
  ___ ___ ___ _ _ _  
 |   |   |_  | | | | 
 | | | | | . | | | | 
 |__ |  _|___|_____|  25.7.0
 |___|_|             

User:   tew@Mathuss-MacBook-Air-357.local
Date:   Mon Nov 24 13:47:07 2025
Arch:   arm64
Pid:    77131
CWD:    /Users/tew/Documents/Project/GitHub/chem-com
Python: 3.13.5
gpaw:   /Users/tew/Documents/Project/GitHub/chem-com/.venv/lib/python3.13/site-packages/gpaw
_gpaw:  /Users/tew/Documents/Project/GitHub/chem-com/.venv/lib/python3.13/site-packages/
        _gpaw.cpython-313-darwin.so
ase:    /Users/tew/Documents/Project/GitHub/chem-com/.venv/lib/python3.13/site-packages/ase (version 3.26.0)
numpy:  /Users/tew/Documents/Project/GitHub/chem-com/.venv/lib/python3.13/site-packages/numpy (version 2.3.5)
scipy:  /Users/tew/Documents/Project/GitHub/chem-com/.venv/lib/python3.13/site-packages/scipy (version 1.16.3)
libxc:  2.x.y
units:  Angstrom and eV
cores: 1
OpenMP: False
OMP_NUM_THREADS: 1

Input parameters:
  basis: dzp
  convergence: {density: 0.0001,
                eigenstates: 5e-06}
  kpts: [2 2 1]
  mode: lcao
  xc: PBE

System changes: positions, numbers, cell, pbc, initial_charges, initial_magmoms 

Initialize ...

species:
  Li:
    name: Lithium
    id: 830b4218f175192f93f959cfc0aad614
    Z: 3.0
    valence: 1
    core: 2
    charge: 0.0
    file: /Users/tew/Documents/Project/GitHub/chem-com/.venv/lib/python3.13/site-packages/gpaw_data/setups/Li.PBE.gz
    compensation charges: {type: gauss,
                           rc: 0.33,
                           lmax: 2}
    cutoffs: {filter: 1.91,
              core: 2.55}
    projectors:
      #              energy  rcut
      - 2s(1.00)    -2.874   1.058
      - 2p(0.00)    -1.090   1.058
      -  s          24.337   1.058
  
    # LCAO basis set for Li:
    #   Name: dzp
    #   File: /Users/tew/Documents/Project/GitHub/chem-com/.venv/lib/python3.13/site-packages/gpaw_data/setups/Li.dzp.basis.gz
    #   Number of radial functions: 3
    #   Number of spherical harmonics: 5
    #     l=0, rc=10.8906 Bohr: 2s-sz confined orbital
    #     l=0, rc=6.6719 Bohr: 2s-dz split-valence wave
    #     l=1, rc=10.8906 Bohr: p-type Gaussian polarization
    #   Number of RI-basis functions 0

Reference energy: -35893.444183  # eV

Spin-paired calculation

Convergence criteria:
 Maximum [total energy] change in last 3 cyles: 0.0005 eV / valence electron
 Maximum integral of absolute [dens]ity change: 0.0001 electrons / valence electron
 Maximum integral of absolute [eigenst]ate change: 5e-06 eV^2 / valence electron
 Maximum number of scf [iter]ations: 333
 (Square brackets indicate name in SCF output, whereas a 'c' in
 the SCF output indicates the quantity has converged.)

Symmetries present (total): 1

  ( 1  0  0)
  ( 0  1  0)
  ( 0  0  1)

4 k-points: 2 x 2 x 1 Monkhorst-Pack grid
2 k-points in the irreducible part of the Brillouin zone
       k-points in crystal coordinates                weights
   0:     0.25000000   -0.25000000    0.00000000          2/4
   1:     0.25000000    0.25000000    0.00000000          2/4

Wave functions: LCAO
  Diagonalizer: Serial LAPACK
  Atomic Correction: dense with blas
  Data-type: complex
 

Occupation numbers: Fermi-Dirac:
  width: 0.1000  # eV
 

Eigensolver
   LCAO using direct dense diagonalizer 

Densities:
  Coarse grid: 100*68*160 grid
  Fine grid: 200*136*320 grid
  Total Charge: 0.000000 

Density mixing:
  Method: separate
  Backend: pulay
  Linear mixing parameter: 0.05
  old densities: 5
  Damping of long wavelength oscillations: 50 

Hamiltonian:
  XC and Coulomb potentials evaluated on a 200*136*320 grid
  Using the PBE Exchange-Correlation functional
  Interpolation: tri-quintic (5. degree polynomial)
  Poisson solver: FastPoissonSolver using
    Stencil: 6*3+1=19 point O(h^6) finite-difference Laplacian
    FFT axes: [np.int64(0), np.int64(1)]
    FST axes: [np.int64(2)]
 

XC parameters: PBE with 2 nearest neighbor stencil

Memory estimate:
  Process memory now: 1215.98 MiB
  Calculator: 1570.72 MiB
    Density: 780.53 MiB
      Arrays: 215.09 MiB
      Localized functions: 482.94 MiB
      Mixer: 82.49 MiB
    Hamiltonian: 178.84 MiB
      Arrays: 140.65 MiB
      XC: 0.00 MiB
      Poisson: 0.00 MiB
      vbar: 38.19 MiB
    Wavefunctions: 611.36 MiB
      C [qnM]: 3.00 MiB
      S, T [2 x qmm]: 47.80 MiB
      P [aqMi]: 1.49 MiB
      BasisFunctions: 559.07 MiB
      Eigensolver: 0.00 MiB

Total number of cores used: 1

Number of atoms: 177
Number of atomic orbitals: 885
Number of bands in calculation: 111
Number of valence electrons: 177
Bands to converge: occupied

... initialized

Initializing position-dependent things.

Density initialized from atomic densities
          .------------------------------------------------.  
         /|                                                |  
        / |                                                |  
       /  |                                                |  
      /   |                                                |  
     /    |                                                |  
    /     |                                                |  
   /      |                                                |  
  /       |                                                |  
 *        |                                                |  
 |        |                                                |  
 |        |                                                |  
 |        |                                                |  
 |       Li  Li      Li                                    |  
 |        |                                                |  
 |        |   Li          Li                               |  
 |     Li |        Li                                      |  
 |        | Li Li       Li Li          Li           Li     |  
 |  Li  Li|      Li Li          Li           Li            |  
 |       Li  Li       Li Li          Li           Li       |  
 |Li Li  Li   Li  Li Li       Li Li       Li  Li           |  
 |     Li Li  Li   Li  Li Li       Li Li       Li  Li      |  
 | Li  Li |    Li  Li       Li Li       Li Li              |  
 |      Li| Li Li    Li Li Li    Li Li Li    Li Li  Li     |  
 Li Li  Li|  Li  Li Li   Li  Li Li    Li Li  Li            |  
 |       Li  Li       Li Li       Li Li       Li  Li       |  
 |Li Li  Li   Li  Li Li    Li Li Li    Li Li  Li           |  
 |     Li Li  Li   Li  Li Li    Li Li Li    Li Li  Li      |  
 | Li  Li |    Li  Li       Li Li       Li Li              |  
 |      Li| Li Li    Li Li Li    Li Li Li    Li Li  Li     |  
 |  Li  Li|      Li Li       Li Li       Li  Li            |  
 Li      Li  Li       Li Li       Li LLi      Li  Li       |  
 |Li Li   |   Li  Li       Li Li       Li Li               |  
 |        Li           Li          Li          Li          |  
 | Li  Li |    Li  Li       Li  Li      Li  Li             |  
 |        |                                                |  
 |      Li|          Li          Li          Li            |  
 Li       |  Li          Li           Li                   |  
 |        |                                                |  
 |        |                                                |  
 |        .------------------------------------------------.  
 |       /                                                /   
 |      /                                                /    
 |     /                                                /     
 |    /                                                /      
 |   /                                                /       
 |  /                                                /        
 | /                                                /         
 |/                                                /          
 *------------------------------------------------*           

Atomic positions and initial magnetic moments

Positions:
   0 Li     0.000000    0.000000   10.000000    ( 0.0000,  0.0000,  0.0000)
   1 Li     2.467803    1.745000   10.000000    ( 0.0000,  0.0000,  0.0000)
   2 Li     2.467803    0.000000   12.467803    ( 0.0000,  0.0000,  0.0000)
   3 Li     0.000000    1.745000   12.467803    ( 0.0000,  0.0000,  0.0000)
   4 Li     4.935605    0.000000   14.935605    ( 0.0000,  0.0000,  0.0000)
   5 Li     2.467803    1.745000   14.935605    ( 0.0000,  0.0000,  0.0000)
   6 Li     2.467803    0.000000   17.403408    ( 0.0000,  0.0000,  0.0000)
   7 Li     4.935605    1.745000   17.403408    ( 0.0000,  0.0000,  0.0000)
   8 Li     4.935605    0.000000   19.871211    ( 0.0000,  0.0000,  0.0000)
   9 Li     2.467803    1.745000   19.871211    ( 0.0000,  0.0000,  0.0000)
  10 Li     2.467803    0.000000   22.339013    ( 0.0000,  0.0000,  0.0000)
  11 Li     0.000000    1.745000   22.339013    ( 0.0000,  0.0000,  0.0000)
  12 Li     0.000000    3.490000   10.000000    ( 0.0000,  0.0000,  0.0000)
  13 Li     2.467803    5.235000   10.000000    ( 0.0000,  0.0000,  0.0000)
  14 Li     2.467803    3.490000   12.467803    ( 0.0000,  0.0000,  0.0000)
  15 Li     0.000000    5.235000   12.467803    ( 0.0000,  0.0000,  0.0000)
  16 Li     4.935605    3.490000   14.935605    ( 0.0000,  0.0000,  0.0000)
  17 Li     2.467803    5.235000   14.935605    ( 0.0000,  0.0000,  0.0000)
  18 Li     2.467803    3.490000   17.403408    ( 0.0000,  0.0000,  0.0000)
  19 Li     4.935605    5.235000   17.403408    ( 0.0000,  0.0000,  0.0000)
  20 Li     4.935605    3.490000   19.871211    ( 0.0000,  0.0000,  0.0000)
  21 Li     2.467803    5.235000   19.871211    ( 0.0000,  0.0000,  0.0000)
  22 Li     2.467803    3.490000   22.339013    ( 0.0000,  0.0000,  0.0000)
  23 Li     0.000000    5.235000   22.339013    ( 0.0000,  0.0000,  0.0000)
  24 Li     0.000000    6.980000   10.000000    ( 0.0000,  0.0000,  0.0000)
  25 Li     2.467803    8.725000   10.000000    ( 0.0000,  0.0000,  0.0000)
  26 Li     2.467803    6.980000   12.467803    ( 0.0000,  0.0000,  0.0000)
  27 Li     0.000000    8.725000   12.467803    ( 0.0000,  0.0000,  0.0000)
  28 Li     4.935605    6.980000   14.935605    ( 0.0000,  0.0000,  0.0000)
  29 Li     2.467803    8.725000   14.935605    ( 0.0000,  0.0000,  0.0000)
  30 Li     2.467803    6.980000   17.403408    ( 0.0000,  0.0000,  0.0000)
  31 Li     4.935605    8.725000   17.403408    ( 0.0000,  0.0000,  0.0000)
  32 Li     4.935605    6.980000   19.871211    ( 0.0000,  0.0000,  0.0000)
  33 Li     2.467803    8.725000   19.871211    ( 0.0000,  0.0000,  0.0000)
  34 Li     2.467803    6.980000   22.339013    ( 0.0000,  0.0000,  0.0000)
  35 Li     0.000000    8.725000   22.339013    ( 0.0000,  0.0000,  0.0000)
  36 Li     0.000000   10.470000   10.000000    ( 0.0000,  0.0000,  0.0000)
  37 Li     2.467803   12.215000   10.000000    ( 0.0000,  0.0000,  0.0000)
  38 Li     2.467803   10.470000   12.467803    ( 0.0000,  0.0000,  0.0000)
  39 Li     0.000000   12.215000   12.467803    ( 0.0000,  0.0000,  0.0000)
  40 Li     4.935605   10.470000   14.935605    ( 0.0000,  0.0000,  0.0000)
  41 Li     2.467803   12.215000   14.935605    ( 0.0000,  0.0000,  0.0000)
  42 Li     2.467803   10.470000   17.403408    ( 0.0000,  0.0000,  0.0000)
  43 Li     4.935605   12.215000   17.403408    ( 0.0000,  0.0000,  0.0000)
  44 Li     4.935605   10.470000   19.871211    ( 0.0000,  0.0000,  0.0000)
  45 Li     2.467803   12.215000   19.871211    ( 0.0000,  0.0000,  0.0000)
  46 Li     2.467803   10.470000   22.339013    ( 0.0000,  0.0000,  0.0000)
  47 Li     0.000000   12.215000   22.339013    ( 0.0000,  0.0000,  0.0000)
  48 Li     4.935605    0.000000   10.000000    ( 0.0000,  0.0000,  0.0000)
  49 Li     7.403408    1.745000   10.000000    ( 0.0000,  0.0000,  0.0000)
  50 Li     7.403408    0.000000   12.467803    ( 0.0000,  0.0000,  0.0000)
  51 Li     4.935605    1.745000   12.467803    ( 0.0000,  0.0000,  0.0000)
  52 Li     9.871211    0.000000   14.935605    ( 0.0000,  0.0000,  0.0000)
  53 Li     7.403408    1.745000   14.935605    ( 0.0000,  0.0000,  0.0000)
  54 Li     7.403408    0.000000   17.403408    ( 0.0000,  0.0000,  0.0000)
  55 Li     9.871211    1.745000   17.403408    ( 0.0000,  0.0000,  0.0000)
  56 Li     9.871211    0.000000   19.871211    ( 0.0000,  0.0000,  0.0000)
  57 Li     7.403408    1.745000   19.871211    ( 0.0000,  0.0000,  0.0000)
  58 Li     7.403408    0.000000   22.339013    ( 0.0000,  0.0000,  0.0000)
  59 Li     4.935605    1.745000   22.339013    ( 0.0000,  0.0000,  0.0000)
  60 Li     4.935605    3.490000   10.000000    ( 0.0000,  0.0000,  0.0000)
  61 Li     7.403408    5.235000   10.000000    ( 0.0000,  0.0000,  0.0000)
  62 Li     7.403408    3.490000   12.467803    ( 0.0000,  0.0000,  0.0000)
  63 Li     4.935605    5.235000   12.467803    ( 0.0000,  0.0000,  0.0000)
  64 Li     9.871211    3.490000   14.935605    ( 0.0000,  0.0000,  0.0000)
  65 Li     7.403408    5.235000   14.935605    ( 0.0000,  0.0000,  0.0000)
  66 Li     7.403408    3.490000   17.403408    ( 0.0000,  0.0000,  0.0000)
  67 Li     9.871211    5.235000   17.403408    ( 0.0000,  0.0000,  0.0000)
  68 Li     9.871211    3.490000   19.871211    ( 0.0000,  0.0000,  0.0000)
  69 Li     7.403408    5.235000   19.871211    ( 0.0000,  0.0000,  0.0000)
  70 Li     7.403408    3.490000   22.339013    ( 0.0000,  0.0000,  0.0000)
  71 Li     4.935605    5.235000   22.339013    ( 0.0000,  0.0000,  0.0000)
  72 Li     4.935605    6.980000   10.000000    ( 0.0000,  0.0000,  0.0000)
  73 Li     7.403408    8.725000   10.000000    ( 0.0000,  0.0000,  0.0000)
  74 Li     7.403408    6.980000   12.467803    ( 0.0000,  0.0000,  0.0000)
  75 Li     4.935605    8.725000   12.467803    ( 0.0000,  0.0000,  0.0000)
  76 Li     9.871211    6.980000   14.935605    ( 0.0000,  0.0000,  0.0000)
  77 Li     7.403408    8.725000   14.935605    ( 0.0000,  0.0000,  0.0000)
  78 Li     7.403408    6.980000   17.403408    ( 0.0000,  0.0000,  0.0000)
  79 Li     9.871211    8.725000   17.403408    ( 0.0000,  0.0000,  0.0000)
  80 Li     9.871211    6.980000   19.871211    ( 0.0000,  0.0000,  0.0000)
  81 Li     7.403408    8.725000   19.871211    ( 0.0000,  0.0000,  0.0000)
  82 Li     7.403408    6.980000   22.339013    ( 0.0000,  0.0000,  0.0000)
  83 Li     4.935605    8.725000   22.339013    ( 0.0000,  0.0000,  0.0000)
  84 Li     4.935605   10.470000   10.000000    ( 0.0000,  0.0000,  0.0000)
  85 Li     7.403408   12.215000   10.000000    ( 0.0000,  0.0000,  0.0000)
  86 Li     7.403408   10.470000   12.467803    ( 0.0000,  0.0000,  0.0000)
  87 Li     4.935605   12.215000   12.467803    ( 0.0000,  0.0000,  0.0000)
  88 Li     9.871211   10.470000   14.935605    ( 0.0000,  0.0000,  0.0000)
  89 Li     7.403408   12.215000   14.935605    ( 0.0000,  0.0000,  0.0000)
  90 Li     7.403408   10.470000   17.403408    ( 0.0000,  0.0000,  0.0000)
  91 Li     9.871211   12.215000   17.403408    ( 0.0000,  0.0000,  0.0000)
  92 Li     9.871211   10.470000   19.871211    ( 0.0000,  0.0000,  0.0000)
  93 Li     7.403408   12.215000   19.871211    ( 0.0000,  0.0000,  0.0000)
  94 Li     7.403408   10.470000   22.339013    ( 0.0000,  0.0000,  0.0000)
  95 Li     4.935605   12.215000   22.339013    ( 0.0000,  0.0000,  0.0000)
  96 Li     9.871211    0.000000   10.000000    ( 0.0000,  0.0000,  0.0000)
  97 Li    12.339013    1.745000   10.000000    ( 0.0000,  0.0000,  0.0000)
  98 Li    12.339013    0.000000   12.467803    ( 0.0000,  0.0000,  0.0000)
  99 Li     9.871211    1.745000   12.467803    ( 0.0000,  0.0000,  0.0000)
 100 Li    14.806816    0.000000   14.935605    ( 0.0000,  0.0000,  0.0000)
 101 Li    12.339013    1.745000   14.935605    ( 0.0000,  0.0000,  0.0000)
 102 Li    12.339013    0.000000   17.403408    ( 0.0000,  0.0000,  0.0000)
 103 Li    14.806816    1.745000   17.403408    ( 0.0000,  0.0000,  0.0000)
 104 Li    14.806816    0.000000   19.871211    ( 0.0000,  0.0000,  0.0000)
 105 Li    12.339013    1.745000   19.871211    ( 0.0000,  0.0000,  0.0000)
 106 Li     9.871211    3.490000   10.000000    ( 0.0000,  0.0000,  0.0000)
 107 Li    12.339013    5.235000   10.000000    ( 0.0000,  0.0000,  0.0000)
 108 Li    12.339013    3.490000   12.467803    ( 0.0000,  0.0000,  0.0000)
 109 Li     9.871211    5.235000   12.467803    ( 0.0000,  0.0000,  0.0000)
 110 Li    14.806816    3.490000   14.935605    ( 0.0000,  0.0000,  0.0000)
 111 Li    12.339013    5.235000   14.935605    ( 0.0000,  0.0000,  0.0000)
 112 Li    12.339013    3.490000   17.403408    ( 0.0000,  0.0000,  0.0000)
 113 Li    14.806816    5.235000   17.403408    ( 0.0000,  0.0000,  0.0000)
 114 Li    14.806816    3.490000   19.871211    ( 0.0000,  0.0000,  0.0000)
 115 Li    12.339013    5.235000   19.871211    ( 0.0000,  0.0000,  0.0000)
 116 Li     9.871211    6.980000   10.000000    ( 0.0000,  0.0000,  0.0000)
 117 Li    12.339013    8.725000   10.000000    ( 0.0000,  0.0000,  0.0000)
 118 Li    12.339013    6.980000   12.467803    ( 0.0000,  0.0000,  0.0000)
 119 Li     9.871211    8.725000   12.467803    ( 0.0000,  0.0000,  0.0000)
 120 Li    14.806816    6.980000   14.935605    ( 0.0000,  0.0000,  0.0000)
 121 Li    12.339013    8.725000   14.935605    ( 0.0000,  0.0000,  0.0000)
 122 Li    12.339013    6.980000   17.403408    ( 0.0000,  0.0000,  0.0000)
 123 Li    14.806816    8.725000   17.403408    ( 0.0000,  0.0000,  0.0000)
 124 Li    14.806816    6.980000   19.871211    ( 0.0000,  0.0000,  0.0000)
 125 Li    12.339013    8.725000   19.871211    ( 0.0000,  0.0000,  0.0000)
 126 Li     9.871211   10.470000   10.000000    ( 0.0000,  0.0000,  0.0000)
 127 Li    12.339013   12.215000   10.000000    ( 0.0000,  0.0000,  0.0000)
 128 Li    12.339013   10.470000   12.467803    ( 0.0000,  0.0000,  0.0000)
 129 Li     9.871211   12.215000   12.467803    ( 0.0000,  0.0000,  0.0000)
 130 Li    14.806816   10.470000   14.935605    ( 0.0000,  0.0000,  0.0000)
 131 Li    12.339013   12.215000   14.935605    ( 0.0000,  0.0000,  0.0000)
 132 Li    12.339013   10.470000   17.403408    ( 0.0000,  0.0000,  0.0000)
 133 Li    14.806816   12.215000   17.403408    ( 0.0000,  0.0000,  0.0000)
 134 Li    14.806816   10.470000   19.871211    ( 0.0000,  0.0000,  0.0000)
 135 Li    12.339013   12.215000   19.871211    ( 0.0000,  0.0000,  0.0000)
 136 Li    14.806816    0.000000   10.000000    ( 0.0000,  0.0000,  0.0000)
 137 Li    17.274619    1.745000   10.000000    ( 0.0000,  0.0000,  0.0000)
 138 Li    17.274619    0.000000   12.467803    ( 0.0000,  0.0000,  0.0000)
 139 Li    14.806816    1.745000   12.467803    ( 0.0000,  0.0000,  0.0000)
 140 Li    19.742421    0.000000   14.935605    ( 0.0000,  0.0000,  0.0000)
 141 Li    17.274619    1.745000   14.935605    ( 0.0000,  0.0000,  0.0000)
 142 Li    17.274619    0.000000   17.403408    ( 0.0000,  0.0000,  0.0000)
 143 Li    19.742421    1.745000   17.403408    ( 0.0000,  0.0000,  0.0000)
 144 Li    19.742421    0.000000   19.871211    ( 0.0000,  0.0000,  0.0000)
 145 Li    17.274619    1.745000   19.871211    ( 0.0000,  0.0000,  0.0000)
 146 Li    14.806816    3.490000   10.000000    ( 0.0000,  0.0000,  0.0000)
 147 Li    17.274619    5.235000   10.000000    ( 0.0000,  0.0000,  0.0000)
 148 Li    17.274619    3.490000   12.467803    ( 0.0000,  0.0000,  0.0000)
 149 Li    14.806816    5.235000   12.467803    ( 0.0000,  0.0000,  0.0000)
 150 Li    19.742421    3.490000   14.935605    ( 0.0000,  0.0000,  0.0000)
 151 Li    17.274619    5.235000   14.935605    ( 0.0000,  0.0000,  0.0000)
 152 Li    17.274619    3.490000   17.403408    ( 0.0000,  0.0000,  0.0000)
 153 Li    19.742421    5.235000   17.403408    ( 0.0000,  0.0000,  0.0000)
 154 Li    19.742421    3.490000   19.871211    ( 0.0000,  0.0000,  0.0000)
 155 Li    17.274619    5.235000   19.871211    ( 0.0000,  0.0000,  0.0000)
 156 Li    14.806816    6.980000   10.000000    ( 0.0000,  0.0000,  0.0000)
 157 Li    17.274619    8.725000   10.000000    ( 0.0000,  0.0000,  0.0000)
 158 Li    17.274619    6.980000   12.467803    ( 0.0000,  0.0000,  0.0000)
 159 Li    14.806816    8.725000   12.467803    ( 0.0000,  0.0000,  0.0000)
 160 Li    19.742421    6.980000   14.935605    ( 0.0000,  0.0000,  0.0000)
 161 Li    17.274619    8.725000   14.935605    ( 0.0000,  0.0000,  0.0000)
 162 Li    17.274619    6.980000   17.403408    ( 0.0000,  0.0000,  0.0000)
 163 Li    19.742421    8.725000   17.403408    ( 0.0000,  0.0000,  0.0000)
 164 Li    19.742421    6.980000   19.871211    ( 0.0000,  0.0000,  0.0000)
 165 Li    17.274619    8.725000   19.871211    ( 0.0000,  0.0000,  0.0000)
 166 Li    14.806816   10.470000   10.000000    ( 0.0000,  0.0000,  0.0000)
 167 Li    17.274619   12.215000   10.000000    ( 0.0000,  0.0000,  0.0000)
 168 Li    17.274619   10.470000   12.467803    ( 0.0000,  0.0000,  0.0000)
 169 Li    14.806816   12.215000   12.467803    ( 0.0000,  0.0000,  0.0000)
 170 Li    19.742421   10.470000   14.935605    ( 0.0000,  0.0000,  0.0000)
 171 Li    17.274619   12.215000   14.935605    ( 0.0000,  0.0000,  0.0000)
 172 Li    17.274619   10.470000   17.403408    ( 0.0000,  0.0000,  0.0000)
 173 Li    19.742421   12.215000   17.403408    ( 0.0000,  0.0000,  0.0000)
 174 Li    19.742421   10.470000   19.871211    ( 0.0000,  0.0000,  0.0000)
 175 Li    17.274619   12.215000   19.871211    ( 0.0000,  0.0000,  0.0000)
 176 Li     2.467803    8.725000   24.339013    ( 0.0000,  0.0000,  0.0000)

Unit cell:
           periodic     x           y           z      points  spacing
  1. axis:    yes   19.742421    0.000000    0.000000   100     0.1974
  2. axis:    yes    0.000000   13.960000    0.000000    68     0.2053
  3. axis:    no     0.000000    0.000000   32.339013   160     0.2021

  Lengths:  19.742421  13.960000  32.339013
  Angles:   90.000000  90.000000  90.000000

Effective grid spacing dv^(1/3) = 0.2016

     iter     time        total  log10-change:
                         energy   eigst   dens
iter:   1 13:47:47  -326.901161        c
iter:   2 13:48:33  -316.590758        c -0.67
iter:   3 13:49:18  -314.463189        c -0.87
iter:   4 13:50:03  -313.421578        c -0.94
iter:   5 13:50:52  -311.162854        c -0.98
iter:   6 13:51:44  -310.431840        c -1.18
iter:   7 13:52:32  -310.089038        c -1.29
iter:   8 13:53:27  -309.869793        c -1.41
iter:   9 13:54:18  -309.786482        c -1.59
iter:  10 13:55:06  -309.756903        c -1.73
iter:  11 13:55:49  -309.737690c       c -1.80
iter:  12 13:56:45  -309.719486c       c -1.87
iter:  13 13:57:36  -309.708946c       c -1.98
iter:  14 13:58:34  -309.705478c       c -2.09
iter:  15 13:59:28  -309.703564c       c -2.17
iter:  16 14:00:22  -309.702272c       c -2.25
iter:  17 14:01:11  -309.701123c       c -2.32
iter:  18 14:01:55  -309.699775c       c -2.38
iter:  19 14:02:37  -309.698458c       c -2.44
iter:  20 14:03:22  -309.697796c       c -2.52
iter:  21 14:04:06  -309.697466c       c -2.59
iter:  22 14:04:51  -309.697389c       c -2.66
iter:  23 14:05:38  -309.697454c       c -2.75
iter:  24 14:06:23  -309.697169c       c -2.76
iter:  25 14:07:08  -309.697032c       c -2.87
iter:  26 14:07:52  -309.696830c       c -2.94
iter:  27 14:08:43  -309.696780c       c -3.02
iter:  28 14:09:27  -309.696761c       c -3.08
iter:  29 14:10:11  -309.696813c       c -3.17
iter:  30 14:10:54  -309.696824c       c -3.16
iter:  31 14:11:41  -309.696824c       c -3.26
iter:  32 14:12:24  -309.696820c       c -3.32
iter:  33 14:13:07  -309.696782c       c -3.39
iter:  34 14:13:51  -309.696745c       c -3.46
iter:  35 14:14:33  -309.696731c       c -3.56
iter:  36 14:15:17  -309.696710c       c -3.59
iter:  37 14:16:00  -309.696712c       c -3.62
