
  ___ ___ ___ _ _ _  
 |   |   |_  | | | | 
 | | | | | . | | | | 
 |__ |  _|___|_____|  25.7.0
 |___|_|             

User:   tew@Mathuss-MacBook-Air-357.local
Date:   Mon Nov 24 18:22:24 2025
Arch:   arm64
Pid:    76608
CWD:    /Users/tew/Documents/Project/GitHub/chem-com
Python: 3.13.5
gpaw:   /Users/tew/Documents/Project/GitHub/chem-com/.venv/lib/python3.13/site-packages/gpaw
_gpaw:  /Users/tew/Documents/Project/GitHub/chem-com/.venv/lib/python3.13/site-packages/
        _gpaw.cpython-313-darwin.so
ase:    /Users/tew/Documents/Project/GitHub/chem-com/.venv/lib/python3.13/site-packages/ase (version 3.26.0)
numpy:  /Users/tew/Documents/Project/GitHub/chem-com/.venv/lib/python3.13/site-packages/numpy (version 2.3.5)
scipy:  /Users/tew/Documents/Project/GitHub/chem-com/.venv/lib/python3.13/site-packages/scipy (version 1.16.3)
libxc:  2.x.y
units:  Angstrom and eV
cores: 1
OpenMP: False
OMP_NUM_THREADS: 1

Input parameters:
  convergence: {density: 0.0001,
                eigenstates: 5e-06}
  kpts: [2 2 1]
  mode: {ecut: 200.0,
         name: pw}
  xc: PBE

System changes: positions, numbers, cell, pbc, initial_charges, initial_magmoms 

Initialize ...

species:
  Li:
    name: Lithium
    id: 830b4218f175192f93f959cfc0aad614
    Z: 3.0
    valence: 1
    core: 2
    charge: 0.0
    file: /Users/tew/Documents/Project/GitHub/chem-com/.venv/lib/python3.13/site-packages/gpaw_data/setups/Li.PBE.gz
    compensation charges: {type: gauss,
                           rc: 0.33,
                           lmax: 2}
    cutoffs: {filter: 1.91,
              core: 2.55}
    projectors:
      #              energy  rcut
      - 2s(1.00)    -2.874   1.058
      - 2p(0.00)    -1.090   1.058
      -  s          24.337   1.058
  
    # Using partial waves for Li as LCAO basis

Reference energy: -14803.510878  # eV

Spin-paired calculation

Convergence criteria:
 Maximum [total energy] change in last 3 cyles: 0.0005 eV / valence electron
 Maximum integral of absolute [dens]ity change: 0.0001 electrons / valence electron
 Maximum integral of absolute [eigenst]ate change: 5e-06 eV^2 / valence electron
 Maximum number of scf [iter]ations: 333
 (Square brackets indicate name in SCF output, whereas a 'c' in
 the SCF output indicates the quantity has converged.)

Symmetries present (total): 1

  ( 1  0  0)
  ( 0  1  0)
  ( 0  0  1)

4 k-points: 2 x 2 x 1 Monkhorst-Pack grid
2 k-points in the irreducible part of the Brillouin zone
       k-points in crystal coordinates                weights
   0:     0.25000000   -0.25000000    0.00000000          2/4
   1:     0.25000000    0.25000000    0.00000000          2/4

Wave functions: Plane wave expansion
  Cutoff energy: 200.000 eV
  Number of coefficients (min, max): 33010, 33019
  Pulay-stress correction: 0.000000 eV/Ang^3 (de/decut=0.000000)
  Using Numpy's FFT
  ScaLapack parameters: grid=1x1, blocksize=None
  Wavefunction extrapolation:
    Improved wavefunction reuse through dual PAW basis 

Occupation numbers: Fermi-Dirac:
  width: 0.1000  # eV
 

Eigensolver
   Davidson(niter=2) 

Densities:
  Coarse grid: 49*49*90 grid
  Fine grid: 98*98*180 grid
  Total Charge: 0.000000 

Density mixing:
  Method: separate
  Backend: pulay
  Linear mixing parameter: 0.05
  old densities: 5
  Damping of long wavelength oscillations: 50 

Hamiltonian:
  XC and Coulomb potentials evaluated on a 98*98*180 grid
  Using the PBE Exchange-Correlation functional
  External potential:
    NoExternalPotential
 

XC parameters: PBE with 2 nearest neighbor stencil

Memory estimate:
  Process memory now: 2373.62 MiB
  Calculator: 211.72 MiB
    Density: 94.25 MiB
      Arrays: 42.86 MiB
      Localized functions: 34.90 MiB
      Mixer: 16.49 MiB
    Hamiltonian: 28.74 MiB
      Arrays: 28.03 MiB
      XC: 0.00 MiB
      Poisson: 0.00 MiB
      vbar: 0.71 MiB
    Wavefunctions: 88.74 MiB
      Arrays psit_nG: 48.37 MiB
      Eigensolver: 27.06 MiB
      Projections: 0.53 MiB
      Projectors: 3.53 MiB
      PW-descriptor: 9.25 MiB

Total number of cores used: 1

Number of atoms: 73
Number of atomic orbitals: 292
Number of bands in calculation: 48
Number of valence electrons: 73
Bands to converge: occupied

... initialized

Initializing position-dependent things.

Density initialized from atomic densities
Creating initial wave functions:
  48 bands from LCAO basis set

                                                                       
                                                                       
                                                                       
                                                                       
                                                                       
                                                                       
                               Li          Li          Li              
                                                                       
                        Li            Li          Li          Li       
               Li      Li         LiLi        LiLi                     
                             LiLi        LiLi        LiLi              
                Li        LiLi        LiLi        Li          Li       
              Li      LiLi         Lii         Lii                     
       Li          LiLi        LiLi        LiLi        Li              
                Li          Lii         Lii          Li                
              Li        LiLi        LiLi        Li                     
                     Lii         Lii         LiLi                      
       Li          Li          Li                                      
              LiLi        LiLi        LiLi                             
                                                                       
       Li          Li          Li                                      
                                                                       
                                                                       
                                                                       
                                                                       

Atomic positions and initial magnetic moments

Positions:
   0 Li     0.000000    0.000000   10.000000    ( 0.0000,  0.0000,  0.0000)
   1 Li     2.467803    1.424787   11.007476    ( 0.0000,  0.0000,  0.0000)
   2 Li     4.935605    2.849573   12.014952    ( 0.0000,  0.0000,  0.0000)
   3 Li     0.000000    0.000000   13.022429    ( 0.0000,  0.0000,  0.0000)
   4 Li     2.463505    1.422954   13.649375    ( 0.0000,  0.0000,  0.0000)
   5 Li     4.922394    2.844001   15.037927    ( 0.0000,  0.0000,  0.0000)
   6 Li     0.000459   -0.000975   15.915165    ( 0.0000,  0.0000,  0.0000)
   7 Li     2.472152    1.418500   16.197923    ( 0.0000,  0.0000,  0.0000)
   8 Li     2.467803    4.274360   10.000000    ( 0.0000,  0.0000,  0.0000)
   9 Li     4.935605    5.699146   11.007476    ( 0.0000,  0.0000,  0.0000)
  10 Li     7.403408    7.123933   12.014952    ( 0.0000,  0.0000,  0.0000)
  11 Li     2.467803    4.274360   13.022429    ( 0.0000,  0.0000,  0.0000)
  12 Li     4.930752    5.705179   13.954831    ( 0.0000,  0.0000,  0.0000)
  13 Li     7.400059    7.119881   15.073521    ( 0.0000,  0.0000,  0.0000)
  14 Li     2.461929    4.272079   15.928629    ( 0.0000,  0.0000,  0.0000)
  15 Li     4.970585    5.665606   16.825944    ( 0.0000,  0.0000,  0.0000)
  16 Li     4.935605    8.548719   10.000000    ( 0.0000,  0.0000,  0.0000)
  17 Li     7.403408    9.973506   11.007476    ( 0.0000,  0.0000,  0.0000)
  18 Li     9.871211   11.398292   12.014952    ( 0.0000,  0.0000,  0.0000)
  19 Li     4.935605    8.548719   13.022429    ( 0.0000,  0.0000,  0.0000)
  20 Li     7.395495    9.971744   14.030034    ( 0.0000,  0.0000,  0.0000)
  21 Li     9.869345   11.402848   15.041117    ( 0.0000,  0.0000,  0.0000)
  22 Li     4.938712    8.542792   15.865086    ( 0.0000,  0.0000,  0.0000)
  23 Li     7.458462    9.946826   16.980742    ( 0.0000,  0.0000,  0.0000)
  24 Li     4.935605    0.000000   10.000000    ( 0.0000,  0.0000,  0.0000)
  25 Li     7.403408    1.424787   11.007476    ( 0.0000,  0.0000,  0.0000)
  26 Li     9.871211    2.849573   12.014952    ( 0.0000,  0.0000,  0.0000)
  27 Li     4.935605    0.000000   13.022429    ( 0.0000,  0.0000,  0.0000)
  28 Li     7.407478    1.417428   14.030788    ( 0.0000,  0.0000,  0.0000)
  29 Li     9.868594    2.849272   15.083476    ( 0.0000,  0.0000,  0.0000)
  30 Li     4.930101    0.001524   15.907084    ( 0.0000,  0.0000,  0.0000)
  31 Li     7.382171    1.468938   16.982326    ( 0.0000,  0.0000,  0.0000)
  32 Li     7.403408    4.274360   10.000000    ( 0.0000,  0.0000,  0.0000)
  33 Li     9.871211    5.699146   11.007476    ( 0.0000,  0.0000,  0.0000)
  34 Li    12.339013    7.123933   12.014952    ( 0.0000,  0.0000,  0.0000)
  35 Li     7.403408    4.274360   13.022429    ( 0.0000,  0.0000,  0.0000)
  36 Li     9.873338    5.698905   14.006074    ( 0.0000,  0.0000,  0.0000)
  37 Li    12.333252    7.121403   15.082940    ( 0.0000,  0.0000,  0.0000)
  38 Li     7.379658    4.261183   15.821771    ( 0.0000,  0.0000,  0.0000)
  39 Li     9.868338    5.708665   16.932832    ( 0.0000,  0.0000,  0.0000)
  40 Li     9.871211    8.548719   10.000000    ( 0.0000,  0.0000,  0.0000)
  41 Li    12.339013    9.973506   11.007476    ( 0.0000,  0.0000,  0.0000)
  42 Li    14.806816   11.398292   12.014952    ( 0.0000,  0.0000,  0.0000)
  43 Li     9.871211    8.548719   13.022429    ( 0.0000,  0.0000,  0.0000)
  44 Li    12.344366    9.967904   14.023780    ( 0.0000,  0.0000,  0.0000)
  45 Li    14.807500   11.389379   15.093197    ( 0.0000,  0.0000,  0.0000)
  46 Li     9.865657    8.569836   15.797731    ( 0.0000,  0.0000,  0.0000)
  47 Li    12.289128    9.952734   16.968360    ( 0.0000,  0.0000,  0.0000)
  48 Li     9.871211    0.000000   10.000000    ( 0.0000,  0.0000,  0.0000)
  49 Li    12.339013    1.424787   11.007476    ( 0.0000,  0.0000,  0.0000)
  50 Li    14.806816    2.849573   12.014952    ( 0.0000,  0.0000,  0.0000)
  51 Li     9.871211    0.000000   13.022429    ( 0.0000,  0.0000,  0.0000)
  52 Li    12.332305    1.420171   14.028284    ( 0.0000,  0.0000,  0.0000)
  53 Li    14.807957    2.845415   15.043715    ( 0.0000,  0.0000,  0.0000)
  54 Li     9.866254    0.005387   15.852446    ( 0.0000,  0.0000,  0.0000)
  55 Li    12.344615    1.476326   16.973006    ( 0.0000,  0.0000,  0.0000)
  56 Li    12.339013    4.274360   10.000000    ( 0.0000,  0.0000,  0.0000)
  57 Li    14.806816    5.699146   11.007476    ( 0.0000,  0.0000,  0.0000)
  58 Li    17.274619    7.123933   12.014952    ( 0.0000,  0.0000,  0.0000)
  59 Li    12.339013    4.274360   13.022429    ( 0.0000,  0.0000,  0.0000)
  60 Li    14.803270    5.705787   14.028492    ( 0.0000,  0.0000,  0.0000)
  61 Li    17.268402    7.129109   15.085078    ( 0.0000,  0.0000,  0.0000)
  62 Li    12.358508    4.263565   15.806635    ( 0.0000,  0.0000,  0.0000)
  63 Li    14.765124    5.676764   16.977571    ( 0.0000,  0.0000,  0.0000)
  64 Li    14.806816    8.548719   10.000000    ( 0.0000,  0.0000,  0.0000)
  65 Li    17.274619    9.973506   11.007476    ( 0.0000,  0.0000,  0.0000)
  66 Li    19.742421   11.398292   12.014952    ( 0.0000,  0.0000,  0.0000)
  67 Li    14.806816    8.548719   13.022429    ( 0.0000,  0.0000,  0.0000)
  68 Li    17.271428    9.973248   14.021530    ( 0.0000,  0.0000,  0.0000)
  69 Li    19.731361   11.394068   15.097224    ( 0.0000,  0.0000,  0.0000)
  70 Li    14.799323    8.539622   15.843141    ( 0.0000,  0.0000,  0.0000)
  71 Li    17.259688    9.963454   16.942062    ( 0.0000,  0.0000,  0.0000)
  72 Li     2.889032    2.141860   18.618348    ( 0.0000,  0.0000,  0.0000)

Unit cell:
           periodic     x           y           z      points  spacing
  1. axis:    yes   14.806816    0.000000    0.000000    49     0.2617
  2. axis:    yes    7.403408   12.823079    0.000000    49     0.2617
  3. axis:    no     0.000000    0.000000   27.052334    90     0.3006

  Lengths:  14.806816  14.806816  27.052334
  Angles:   90.000000  90.000000  60.000000

Effective grid spacing dv^(1/3) = 0.2875

     iter     time        total  log10-change:
                         energy   eigst   dens
iter:   1 18:23:04  -134.385587
iter:   2 18:23:11  -130.171214   -0.95  -0.52
iter:   3 18:23:17  -125.931758   -0.79  -0.63
iter:   4 18:23:24  -127.157411   -1.33  -0.89
iter:   5 18:23:30  -126.806287   -1.94  -0.84
iter:   6 18:23:36  -125.983834   -1.06  -0.87
iter:   7 18:23:42  -125.196696   -2.03  -1.04
iter:   8 18:23:47  -125.252610   -2.43  -1.41
iter:   9 18:23:53  -125.253702   -2.53  -1.44
iter:  10 18:23:59  -125.227071c  -3.03  -1.51
iter:  11 18:24:05  -125.233480c  -3.21  -1.70
iter:  12 18:24:10  -125.236794c  -3.42  -1.93
iter:  13 18:24:16  -125.228888c  -3.69  -2.11
iter:  14 18:24:21  -125.229012c  -4.16  -2.31
iter:  15 18:24:27  -125.231144c  -4.03  -2.37
iter:  16 18:24:33  -125.228614c  -4.34  -2.47
iter:  17 18:24:39  -125.228654c  -4.54  -2.78
iter:  18 18:24:45  -125.228534c  -4.86  -2.88
iter:  19 18:24:50  -125.228405c  -4.72  -2.96
iter:  20 18:24:56  -125.228474c  -5.03  -3.10
iter:  21 18:25:02  -125.228117c  -5.07  -3.26
iter:  22 18:25:07  -125.228191c  -5.25  -3.25
iter:  23 18:25:13  -125.228268c  -5.20  -3.37
iter:  24 18:25:19  -125.228091c  -5.42c -3.38
iter:  25 18:25:25  -125.227991c  -5.57c -3.58
iter:  26 18:25:30  -125.228005c  -5.57c -3.60
iter:  27 18:25:38  -125.227991c  -5.73c -3.77
iter:  28 18:25:43  -125.227913c  -5.59c -3.90
iter:  29 18:25:50  -125.227919c  -5.62c -3.98
iter:  30 18:25:56  -125.227851c  -5.73c -3.96
iter:  31 18:26:02  -125.227800c  -5.76c -4.28c

Converged after 31 iterations.

Dipole moment: (-9.902081, -5.119232, 0.299684) |e|*Ang

Energy contributions relative to reference atoms: (reference = -14803.510878)

Kinetic:        +99.442211
Potential:      -89.024794
External:        +0.000000
XC:            -134.613923
Entropy (-ST):   -1.151442
Local:           -0.455572
SIC:             +0.000000
--------------------------
Free energy:   -125.803521
Extrapolated:  -125.227800

Showing all kpts
 Kpt  Band  Eigenvalues  Occupancy
  0    34     -1.82480    1.12166
  0    35     -1.77787    0.88811
  0    36     -1.75481    0.77617
  0    37     -1.70839    0.57011

  1    34     -1.94093    1.60620
  1    35     -1.93815    1.59735
  1    36     -1.83633    1.17801
  1    37     -1.74137    0.71338


Fermi level: -1.80035

No gap
No difference between direct/indirect transitions

Forces in eV/Ang:
  0 Li   -0.00358   -0.00291    0.07278
  1 Li   -0.00090   -0.00240   -0.11528
  2 Li    0.01243    0.00625   -0.07983
  3 Li   -0.01095   -0.00425   -0.08602
  4 Li   -0.00810   -0.01465    0.00888
  5 Li   -0.02434    0.00118    0.05460
  6 Li   -0.04243   -0.02167   -0.01045
  7 Li   -0.07574   -0.10011   -0.11797
  8 Li   -0.00263    0.00591    0.07774
  9 Li    0.00038    0.00650    0.14208
 10 Li    0.00440    0.00331   -0.06706
 11 Li   -0.00881    0.01493   -0.08382
 12 Li    0.00086    0.01257    0.04605
 13 Li   -0.00259   -0.00637   -0.01076
 14 Li   -0.00715   -0.00743    0.03723
 15 Li   -0.04767   -0.02536    0.11750
 16 Li   -0.00027   -0.00173    0.04112
 17 Li    0.00208    0.00098    0.18458
 18 Li    0.00345   -0.02071   -0.09485
 19 Li   -0.00669    0.00847   -0.16561
 20 Li   -0.00274    0.00174    0.03653
 21 Li    0.00051   -0.01377   -0.03713
 22 Li    0.01075    0.01405   -0.02922
 23 Li   -0.01538   -0.00141   -0.01717
 24 Li    0.00233   -0.00522    0.07282
 25 Li    0.00405   -0.00424    0.18189
 26 Li    0.00387    0.00056   -0.05801
 27 Li    0.00944   -0.00789   -0.09007
 28 Li    0.00787   -0.00615    0.02644
 29 Li   -0.00228    0.00429   -0.00003
 30 Li    0.02994   -0.00019    0.03513
 31 Li   -0.01544   -0.01290    0.00105
 32 Li   -0.00375   -0.00154    0.04232
 33 Li    0.00083   -0.00037    0.18134
 34 Li    0.00377    0.00134   -0.05487
 35 Li   -0.00039   -0.00541   -0.18646
 36 Li   -0.00008   -0.00027    0.03348
 37 Li   -0.00334   -0.00408   -0.00192
 38 Li    0.05767    0.00412   -0.02305
 39 Li    0.00456   -0.00096   -0.00582
 40 Li   -0.00181    0.00648    0.03643
 41 Li    0.00119    0.00085    0.18437
 42 Li    0.00562   -0.00257   -0.05973
 43 Li    0.00000    0.00124   -0.21473
 44 Li    0.00449    0.00240    0.03393
 45 Li   -0.00842    0.00447   -0.00767
 46 Li    0.00539   -0.03516    0.00231
 47 Li    0.01429    0.00342   -0.00816
 48 Li   -0.00078    0.00056    0.03856
 49 Li   -0.00020    0.00058    0.18265
 50 Li   -0.01317    0.01111   -0.08602
 51 Li   -0.00100   -0.00565   -0.17745
 52 Li   -0.00290   -0.00359    0.03310
 53 Li    0.00879    0.00297    0.00126
 54 Li   -0.00443    0.01305   -0.00039
 55 Li   -0.00894   -0.01078   -0.00729
 56 Li    0.00409   -0.00417    0.03824
 57 Li   -0.00142    0.00437    0.18285
 58 Li   -0.00202    0.00941   -0.06914
 59 Li    0.00169   -0.00126   -0.20582
 60 Li    0.00213    0.00758    0.02536
 61 Li    0.00683   -0.01045   -0.02010
 62 Li   -0.03636    0.02410    0.00037
 63 Li    0.03219   -0.01520    0.00695
 64 Li    0.00035   -0.00075    0.04207
 65 Li   -0.00327   -0.00227    0.17953
 66 Li   -0.00023    0.00100   -0.05790
 67 Li    0.00493    0.00190   -0.18409
 68 Li   -0.00141   -0.00045    0.02802
 69 Li    0.00842    0.00374   -0.00340
 70 Li   -0.01708   -0.00408   -0.00008
 71 Li   -0.00063    0.00439    0.00795
 72 Li    0.12970    0.17846    0.01902

System changes: positions 

Initializing position-dependent things.

Density initialized from wave functions
                                                                       
                                                                       
                                                                       
                                                                       
                                                                       
                                                                       
                               Li          Li          Li              
                                                                       
                        Li            Li          Li          Li       
               Li      Li         LiLi        LiLi                     
                             LiLi        LiLi        LiLi              
                Li        LiLi        LiLi        Li          Li       
              Li      LiLi         Lii         Lii                     
       Li          LiLi        LiLi        LiLi        Li              
                Li          Lii         Lii          Li                
              Li        LiLi        LiLi        Li                     
                     Lii         Lii         LiLi                      
       Li          Li          Li                                      
              LiLi        LiLi        LiLi                             
                                                                       
       Li          Li          Li                                      
                                                                       
                                                                       
                                                                       
                                                                       

Atomic positions and initial magnetic moments

Positions:
   0 Li     0.000000    0.000000   10.000000    ( 0.0000,  0.0000,  0.0000)
   1 Li     2.467803    1.424787   11.007476    ( 0.0000,  0.0000,  0.0000)
   2 Li     4.935605    2.849573   12.014952    ( 0.0000,  0.0000,  0.0000)
   3 Li     0.000000    0.000000   13.022429    ( 0.0000,  0.0000,  0.0000)
   4 Li     2.463425    1.422807   13.649319    ( 0.0000,  0.0000,  0.0000)
   5 Li     4.922146    2.844006   15.038474    ( 0.0000,  0.0000,  0.0000)
   6 Li     0.000032   -0.001190   15.915084    ( 0.0000,  0.0000,  0.0000)
   7 Li     2.471375    1.417504   16.196447    ( 0.0000,  0.0000,  0.0000)
   8 Li     2.467803    4.274360   10.000000    ( 0.0000,  0.0000,  0.0000)
   9 Li     4.935605    5.699146   11.007476    ( 0.0000,  0.0000,  0.0000)
  10 Li     7.403408    7.123933   12.014952    ( 0.0000,  0.0000,  0.0000)
  11 Li     2.467803    4.274360   13.022429    ( 0.0000,  0.0000,  0.0000)
  12 Li     4.930759    5.705306   13.955436    ( 0.0000,  0.0000,  0.0000)
  13 Li     7.400036    7.119818   15.073428    ( 0.0000,  0.0000,  0.0000)
  14 Li     2.461856    4.272002   15.929001    ( 0.0000,  0.0000,  0.0000)
  15 Li     4.970123    5.665339   16.827416    ( 0.0000,  0.0000,  0.0000)
  16 Li     4.935605    8.548719   10.000000    ( 0.0000,  0.0000,  0.0000)
  17 Li     7.403408    9.973506   11.007476    ( 0.0000,  0.0000,  0.0000)
  18 Li     9.871211   11.398292   12.014952    ( 0.0000,  0.0000,  0.0000)
  19 Li     4.935605    8.548719   13.022429    ( 0.0000,  0.0000,  0.0000)
  20 Li     7.395465    9.971758   14.030399    ( 0.0000,  0.0000,  0.0000)
  21 Li     9.869350   11.402712   15.040731    ( 0.0000,  0.0000,  0.0000)
  22 Li     4.938822    8.542930   15.864770    ( 0.0000,  0.0000,  0.0000)
  23 Li     7.458312    9.946817   16.980570    ( 0.0000,  0.0000,  0.0000)
  24 Li     4.935605    0.000000   10.000000    ( 0.0000,  0.0000,  0.0000)
  25 Li     7.403408    1.424787   11.007476    ( 0.0000,  0.0000,  0.0000)
  26 Li     9.871211    2.849573   12.014952    ( 0.0000,  0.0000,  0.0000)
  27 Li     4.935605    0.000000   13.022429    ( 0.0000,  0.0000,  0.0000)
  28 Li     7.407555    1.417365   14.031053    ( 0.0000,  0.0000,  0.0000)
  29 Li     9.868568    2.849316   15.083471    ( 0.0000,  0.0000,  0.0000)
  30 Li     4.930399    0.001511   15.907476    ( 0.0000,  0.0000,  0.0000)
  31 Li     7.382031    1.468834   16.982338    ( 0.0000,  0.0000,  0.0000)
  32 Li     7.403408    4.274360   10.000000    ( 0.0000,  0.0000,  0.0000)
  33 Li     9.871211    5.699146   11.007476    ( 0.0000,  0.0000,  0.0000)
  34 Li    12.339013    7.123933   12.014952    ( 0.0000,  0.0000,  0.0000)
  35 Li     7.403408    4.274360   13.022429    ( 0.0000,  0.0000,  0.0000)
  36 Li     9.873336    5.698904   14.006399    ( 0.0000,  0.0000,  0.0000)
  37 Li    12.333217    7.121360   15.082921    ( 0.0000,  0.0000,  0.0000)
  38 Li     7.380227    4.261219   15.821499    ( 0.0000,  0.0000,  0.0000)
  39 Li     9.868386    5.708636   16.932756    ( 0.0000,  0.0000,  0.0000)
  40 Li     9.871211    8.548719   10.000000    ( 0.0000,  0.0000,  0.0000)
  41 Li    12.339013    9.973506   11.007476    ( 0.0000,  0.0000,  0.0000)
  42 Li    14.806816   11.398292   12.014952    ( 0.0000,  0.0000,  0.0000)
  43 Li     9.871211    8.548719   13.022429    ( 0.0000,  0.0000,  0.0000)
  44 Li    12.344412    9.967927   14.024128    ( 0.0000,  0.0000,  0.0000)
  45 Li    14.807418   11.389420   15.093125    ( 0.0000,  0.0000,  0.0000)
  46 Li     9.865719    8.569497   15.797753    ( 0.0000,  0.0000,  0.0000)
  47 Li    12.289253    9.952760   16.968295    ( 0.0000,  0.0000,  0.0000)
  48 Li     9.871211    0.000000   10.000000    ( 0.0000,  0.0000,  0.0000)
  49 Li    12.339013    1.424787   11.007476    ( 0.0000,  0.0000,  0.0000)
  50 Li    14.806816    2.849573   12.014952    ( 0.0000,  0.0000,  0.0000)
  51 Li     9.871211    0.000000   13.022429    ( 0.0000,  0.0000,  0.0000)
  52 Li    12.332274    1.420133   14.028618    ( 0.0000,  0.0000,  0.0000)
  53 Li    14.808050    2.845443   15.043707    ( 0.0000,  0.0000,  0.0000)
  54 Li     9.866212    0.005521   15.852442    ( 0.0000,  0.0000,  0.0000)
  55 Li    12.344529    1.476237   16.972947    ( 0.0000,  0.0000,  0.0000)
  56 Li    12.339013    4.274360   10.000000    ( 0.0000,  0.0000,  0.0000)
  57 Li    14.806816    5.699146   11.007476    ( 0.0000,  0.0000,  0.0000)
  58 Li    17.274619    7.123933   12.014952    ( 0.0000,  0.0000,  0.0000)
  59 Li    12.339013    4.274360   13.022429    ( 0.0000,  0.0000,  0.0000)
  60 Li    14.803293    5.705867   14.028745    ( 0.0000,  0.0000,  0.0000)
  61 Li    17.268466    7.129007   15.084897    ( 0.0000,  0.0000,  0.0000)
  62 Li    12.358153    4.263798   15.806621    ( 0.0000,  0.0000,  0.0000)
  63 Li    14.765427    5.676580   16.977639    ( 0.0000,  0.0000,  0.0000)
  64 Li    14.806816    8.548719   10.000000    ( 0.0000,  0.0000,  0.0000)
  65 Li    17.274619    9.973506   11.007476    ( 0.0000,  0.0000,  0.0000)
  66 Li    19.742421   11.398292   12.014952    ( 0.0000,  0.0000,  0.0000)
  67 Li    14.806816    8.548719   13.022429    ( 0.0000,  0.0000,  0.0000)
  68 Li    17.271413    9.973239   14.021807    ( 0.0000,  0.0000,  0.0000)
  69 Li    19.731443   11.394099   15.097190    ( 0.0000,  0.0000,  0.0000)
  70 Li    14.799140    8.539583   15.843158    ( 0.0000,  0.0000,  0.0000)
  71 Li    17.259695    9.963508   16.942128    ( 0.0000,  0.0000,  0.0000)
  72 Li     2.889552    2.142298   18.618538    ( 0.0000,  0.0000,  0.0000)

Unit cell:
           periodic     x           y           z      points  spacing
  1. axis:    yes   14.806816    0.000000    0.000000    49     0.2617
  2. axis:    yes    7.403408   12.823079    0.000000    49     0.2617
  3. axis:    no     0.000000    0.000000   27.052334    90     0.3006

  Lengths:  14.806816  14.806816  27.052334
  Angles:   90.000000  90.000000  60.000000

Effective grid spacing dv^(1/3) = 0.2875

     iter     time        total  log10-change:
                         energy   eigst   dens
iter:   1 18:47:48  -125.228939   -5.15
iter:   2 18:47:55  -125.228831   -5.32c -3.00
iter:   3 18:48:02  -125.228778c  -5.46c -3.39
iter:   4 18:48:08  -125.228727c  -5.78c -3.64
iter:   5 18:48:18  -125.228695c  -5.72c -3.83
iter:   6 18:48:26  -125.228661c  -5.60c -3.80
iter:   7 18:48:32  -125.228652c  -6.10c -4.02c

Converged after 7 iterations.

Dipole moment: (-9.899535, -5.121564, 0.299246) |e|*Ang

Energy contributions relative to reference atoms: (reference = -14803.510878)

Kinetic:        +99.456530
Potential:      -89.035831
External:        +0.000000
XC:            -134.615189
Entropy (-ST):   -1.152085
Local:           -0.458119
SIC:             +0.000000
--------------------------
Free energy:   -125.804694
Extrapolated:  -125.228652

Showing all kpts
 Kpt  Band  Eigenvalues  Occupancy
  0    34     -1.82490    1.12158
  0    35     -1.77800    0.88815
  0    36     -1.75490    0.77606
  0    37     -1.70844    0.56982

  1    34     -1.94104    1.60620
  1    35     -1.93827    1.59736
  1    36     -1.83635    1.17756
  1    37     -1.74141    0.71305


Fermi level: -1.80046

No gap
No difference between direct/indirect transitions

Forces in eV/Ang:
  0 Li   -0.00356   -0.00291    0.07269
  1 Li   -0.00090   -0.00243   -0.11563
  2 Li    0.01245    0.00623   -0.07969
  3 Li   -0.01070   -0.00415   -0.08552
  4 Li   -0.00807   -0.01439    0.00743
  5 Li   -0.02406    0.00102    0.05456
  6 Li   -0.04262   -0.02184   -0.01052
  7 Li   -0.07474   -0.09874   -0.11250
  8 Li   -0.00264    0.00576    0.07758
  9 Li    0.00040    0.00652    0.14240
 10 Li    0.00443    0.00333   -0.06689
 11 Li   -0.00891    0.01477   -0.08341
 12 Li    0.00100    0.01245    0.04567
 13 Li   -0.00231   -0.00617   -0.01045
 14 Li   -0.00708   -0.00777    0.03728
 15 Li   -0.04698   -0.02521    0.11696
 16 Li   -0.00027   -0.00165    0.04089
 17 Li    0.00218    0.00094    0.18459
 18 Li    0.00347   -0.02070   -0.09501
 19 Li   -0.00665    0.00859   -0.16576
 20 Li   -0.00277    0.00158    0.03598
 21 Li    0.00046   -0.01390   -0.03675
 22 Li    0.01058    0.01369   -0.02851
 23 Li   -0.01518   -0.00142   -0.01681
 24 Li    0.00224   -0.00522    0.07275
 25 Li    0.00408   -0.00430    0.18190
 26 Li    0.00391    0.00053   -0.05782
 27 Li    0.00927   -0.00796   -0.08949
 28 Li    0.00783   -0.00598    0.02616
 29 Li   -0.00202    0.00420    0.00002
 30 Li    0.02935   -0.00027    0.03506
 31 Li   -0.01512   -0.01273    0.00149
 32 Li   -0.00369   -0.00151    0.04219
 33 Li    0.00082   -0.00032    0.18145
 34 Li    0.00375    0.00136   -0.05478
 35 Li   -0.00027   -0.00537   -0.18672
 36 Li   -0.00009   -0.00030    0.03319
 37 Li   -0.00343   -0.00396   -0.00175
 38 Li    0.05664    0.00432   -0.02219
 39 Li    0.00468   -0.00091   -0.00550
 40 Li   -0.00179    0.00655    0.03637
 41 Li    0.00114    0.00082    0.18451
 42 Li    0.00572   -0.00260   -0.05971
 43 Li    0.00002    0.00125   -0.21455
 44 Li    0.00450    0.00217    0.03337
 45 Li   -0.00818    0.00433   -0.00728
 46 Li    0.00533   -0.03489    0.00263
 47 Li    0.01414    0.00334   -0.00782
 48 Li   -0.00073    0.00048    0.03847
 49 Li   -0.00021    0.00061    0.18267
 50 Li   -0.01321    0.01104   -0.08604
 51 Li   -0.00094   -0.00564   -0.17732
 52 Li   -0.00298   -0.00351    0.03261
 53 Li    0.00832    0.00291    0.00123
 54 Li   -0.00439    0.01287   -0.00016
 55 Li   -0.00898   -0.01059   -0.00696
 56 Li    0.00410   -0.00420    0.03822
 57 Li   -0.00150    0.00434    0.18294
 58 Li   -0.00200    0.00956   -0.06909
 59 Li    0.00162   -0.00125   -0.20573
 60 Li    0.00200    0.00752    0.02499
 61 Li    0.00663   -0.01032   -0.01949
 62 Li   -0.03593    0.02381    0.00076
 63 Li    0.03176   -0.01507    0.00723
 64 Li    0.00031   -0.00070    0.04197
 65 Li   -0.00331   -0.00220    0.17959
 66 Li   -0.00025    0.00109   -0.05782
 67 Li    0.00489    0.00199   -0.18401
 68 Li   -0.00135   -0.00041    0.02754
 69 Li    0.00794    0.00362   -0.00314
 70 Li   -0.01682   -0.00398    0.00020
 71 Li   -0.00067    0.00442    0.00813
 72 Li    0.12946    0.17765    0.01516

System changes: positions 

Initializing position-dependent things.

Density initialized from wave functions
                                                                       
                                                                       
                                                                       
                                                                       
                                                                       
                                                                       
                                                                       
                               Li          Li          Li              
                                      Li          Li          Li       
               Li      Lii        LiLi        LiLi                     
                               Li          Li          Li              
                Li          Lii         Lii          Li                
                        LiLi        LiLi        LiLi          Li       
              Li     Lii         LiLi        LiLi                      
       Li          Li          Li          Li          Li              
                Li        LiLii       LiLii          Li                
              Li        Li          Li          Li                     
       Li          LiLii       LiLiLi        LiLi                      
                                                                       
              LiLi        LiLi        LiLi                             
                                                                       
       Li          Li          Li                                      
                                                                       
                                                                       
                                                                       
                                                                       

Atomic positions and initial magnetic moments

Positions:
   0 Li     0.000000    0.000000   10.000000    ( 0.0000,  0.0000,  0.0000)
   1 Li     2.467803    1.424787   11.007476    ( 0.0000,  0.0000,  0.0000)
   2 Li     4.935605    2.849573   12.014952    ( 0.0000,  0.0000,  0.0000)
   3 Li     0.000000    0.000000   13.022429    ( 0.0000,  0.0000,  0.0000)
   4 Li     2.463267    1.422516   13.649191    ( 0.0000,  0.0000,  0.0000)
   5 Li     4.921653    2.844015   15.039567    ( 0.0000,  0.0000,  0.0000)
   6 Li    -0.000823   -0.001623   15.914922    ( 0.0000,  0.0000,  0.0000)
   7 Li     2.469830    1.415526   16.193547    ( 0.0000,  0.0000,  0.0000)
   8 Li     2.467803    4.274360   10.000000    ( 0.0000,  0.0000,  0.0000)
   9 Li     4.935605    5.699146   11.007476    ( 0.0000,  0.0000,  0.0000)
  10 Li     7.403408    7.123933   12.014952    ( 0.0000,  0.0000,  0.0000)
  11 Li     2.467803    4.274360   13.022429    ( 0.0000,  0.0000,  0.0000)
  12 Li     4.930775    5.705560   13.956642    ( 0.0000,  0.0000,  0.0000)
  13 Li     7.399993    7.119694   15.073245    ( 0.0000,  0.0000,  0.0000)
  14 Li     2.461710    4.271845   15.929747    ( 0.0000,  0.0000,  0.0000)
  15 Li     4.969206    5.664806   16.830353    ( 0.0000,  0.0000,  0.0000)
  16 Li     4.935605    8.548719   10.000000    ( 0.0000,  0.0000,  0.0000)
  17 Li     7.403408    9.973506   11.007476    ( 0.0000,  0.0000,  0.0000)
  18 Li     9.871211   11.398292   12.014952    ( 0.0000,  0.0000,  0.0000)
  19 Li     4.935605    8.548719   13.022429    ( 0.0000,  0.0000,  0.0000)
  20 Li     7.395407    9.971783   14.031123    ( 0.0000,  0.0000,  0.0000)
  21 Li     9.869358   11.402438   15.039963    ( 0.0000,  0.0000,  0.0000)
  22 Li     4.939041    8.543204   15.864146    ( 0.0000,  0.0000,  0.0000)
  23 Li     7.458013    9.946798   16.980229    ( 0.0000,  0.0000,  0.0000)
  24 Li     4.935605    0.000000   10.000000    ( 0.0000,  0.0000,  0.0000)
  25 Li     7.403408    1.424787   11.007476    ( 0.0000,  0.0000,  0.0000)
  26 Li     9.871211    2.849573   12.014952    ( 0.0000,  0.0000,  0.0000)
  27 Li     4.935605    0.000000   13.022429    ( 0.0000,  0.0000,  0.0000)
  28 Li     7.407710    1.417240   14.031579    ( 0.0000,  0.0000,  0.0000)
  29 Li     9.868519    2.849403   15.083462    ( 0.0000,  0.0000,  0.0000)
  30 Li     4.930987    0.001485   15.908261    ( 0.0000,  0.0000,  0.0000)
  31 Li     7.381753    1.468627   16.982365    ( 0.0000,  0.0000,  0.0000)
  32 Li     7.403408    4.274360   10.000000    ( 0.0000,  0.0000,  0.0000)
  33 Li     9.871211    5.699146   11.007476    ( 0.0000,  0.0000,  0.0000)
  34 Li    12.339013    7.123933   12.014952    ( 0.0000,  0.0000,  0.0000)
  35 Li     7.403408    4.274360   13.022429    ( 0.0000,  0.0000,  0.0000)
  36 Li     9.873331    5.698902   14.007048    ( 0.0000,  0.0000,  0.0000)
  37 Li    12.333146    7.121275   15.082885    ( 0.0000,  0.0000,  0.0000)
  38 Li     7.381353    4.261293   15.820966    ( 0.0000,  0.0000,  0.0000)
  39 Li     9.868485    5.708578   16.932607    ( 0.0000,  0.0000,  0.0000)
  40 Li     9.871211    8.548719   10.000000    ( 0.0000,  0.0000,  0.0000)
  41 Li    12.339013    9.973506   11.007476    ( 0.0000,  0.0000,  0.0000)
  42 Li    14.806816   11.398292   12.014952    ( 0.0000,  0.0000,  0.0000)
  43 Li     9.871211    8.548719   13.022429    ( 0.0000,  0.0000,  0.0000)
  44 Li    12.344506    9.967968   14.024817    ( 0.0000,  0.0000,  0.0000)
  45 Li    14.807256   11.389502   15.092984    ( 0.0000,  0.0000,  0.0000)
  46 Li     9.865841    8.568824   15.797802    ( 0.0000,  0.0000,  0.0000)
  47 Li    12.289499    9.952812   16.968169    ( 0.0000,  0.0000,  0.0000)
  48 Li     9.871211    0.000000   10.000000    ( 0.0000,  0.0000,  0.0000)
  49 Li    12.339013    1.424787   11.007476    ( 0.0000,  0.0000,  0.0000)
  50 Li    14.806816    2.849573   12.014952    ( 0.0000,  0.0000,  0.0000)
  51 Li     9.871211    0.000000   13.022429    ( 0.0000,  0.0000,  0.0000)
  52 Li    12.332211    1.420058   14.029281    ( 0.0000,  0.0000,  0.0000)
  53 Li    14.808230    2.845500   15.043692    ( 0.0000,  0.0000,  0.0000)
  54 Li     9.866129    0.005788   15.852437    ( 0.0000,  0.0000,  0.0000)
  55 Li    12.344357    1.476061   16.972834    ( 0.0000,  0.0000,  0.0000)
  56 Li    12.339013    4.274360   10.000000    ( 0.0000,  0.0000,  0.0000)
  57 Li    14.806816    5.699146   11.007476    ( 0.0000,  0.0000,  0.0000)
  58 Li    17.274619    7.123933   12.014952    ( 0.0000,  0.0000,  0.0000)
  59 Li    12.339013    4.274360   13.022429    ( 0.0000,  0.0000,  0.0000)
  60 Li    14.803337    5.706026   14.029248    ( 0.0000,  0.0000,  0.0000)
  61 Li    17.268592    7.128806   15.084541    ( 0.0000,  0.0000,  0.0000)
  62 Li    12.357446    4.264260   15.806598    ( 0.0000,  0.0000,  0.0000)
  63 Li    14.766029    5.676213   16.977780    ( 0.0000,  0.0000,  0.0000)
  64 Li    14.806816    8.548719   10.000000    ( 0.0000,  0.0000,  0.0000)
  65 Li    17.274619    9.973506   11.007476    ( 0.0000,  0.0000,  0.0000)
  66 Li    19.742421   11.398292   12.014952    ( 0.0000,  0.0000,  0.0000)
  67 Li    14.806816    8.548719   13.022429    ( 0.0000,  0.0000,  0.0000)
  68 Li    17.271383    9.973224   14.022356    ( 0.0000,  0.0000,  0.0000)
  69 Li    19.731601   11.394162   15.097126    ( 0.0000,  0.0000,  0.0000)
  70 Li    14.798777    8.539507   15.843193    ( 0.0000,  0.0000,  0.0000)
  71 Li    17.259709    9.963617   16.942261    ( 0.0000,  0.0000,  0.0000)
  72 Li     2.890588    2.143166   18.618880    ( 0.0000,  0.0000,  0.0000)

Unit cell:
           periodic     x           y           z      points  spacing
  1. axis:    yes   14.806816    0.000000    0.000000    49     0.2617
  2. axis:    yes    7.403408   12.823079    0.000000    49     0.2617
  3. axis:    no     0.000000    0.000000   27.052334    90     0.3006

  Lengths:  14.806816  14.806816  27.052334
  Angles:   90.000000  90.000000  60.000000

Effective grid spacing dv^(1/3) = 0.2875

     iter     time        total  log10-change:
                         energy   eigst   dens
iter:   1 18:52:56  -125.230789   -5.18
iter:   2 18:53:03  -125.230705   -5.74c -3.00
iter:   3 18:53:11  -125.230669c  -5.51c -3.20
iter:   4 18:53:18  -125.230621c  -5.88c -3.43
iter:   5 18:53:25  -125.230602c  -5.94c -3.60
iter:   6 18:53:31  -125.230581c  -5.97c -3.85
iter:   7 18:53:37  -125.230568c  -6.22c -3.89
iter:   8 18:53:44  -125.230556c  -6.04c -4.12c

Converged after 8 iterations.

Dipole moment: (-9.891811, -5.124274, 0.299910) |e|*Ang

Energy contributions relative to reference atoms: (reference = -14803.510878)

Kinetic:        +99.445410
Potential:      -89.028664
External:        +0.000000
XC:            -134.612908
Entropy (-ST):   -1.152398
Local:           -0.458195
SIC:             +0.000000
--------------------------
Free energy:   -125.806755
Extrapolated:  -125.230556

Showing all kpts
 Kpt  Band  Eigenvalues  Occupancy
  0    34     -1.82490    1.12189
  0    35     -1.77795    0.88821
  0    36     -1.75477    0.77576
  0    37     -1.70832    0.56958

  1    34     -1.94096    1.60616
  1    35     -1.93818    1.59727
  1    36     -1.83626    1.17743
  1    37     -1.74130    0.71281


Fermi level: -1.80040

No gap
No difference between direct/indirect transitions

Forces in eV/Ang:
  0 Li   -0.00355   -0.00290    0.07260
  1 Li   -0.00080   -0.00228   -0.11589
  2 Li    0.01246    0.00645   -0.07903
  3 Li   -0.01071   -0.00404   -0.08554
  4 Li   -0.00743   -0.01340    0.00385
  5 Li   -0.02348    0.00123    0.05395
  6 Li   -0.04286   -0.02202   -0.01052
  7 Li   -0.07249   -0.09559   -0.10203
  8 Li   -0.00256    0.00574    0.07762
  9 Li    0.00039    0.00645    0.14336
 10 Li    0.00424    0.00318   -0.06679
 11 Li   -0.00862    0.01481   -0.08291
 12 Li    0.00111    0.01176    0.04507
 13 Li   -0.00263   -0.00614   -0.01016
 14 Li   -0.00668   -0.00868    0.03657
 15 Li   -0.04571   -0.02508    0.11469
 16 Li   -0.00028   -0.00170    0.04076
 17 Li    0.00217    0.00089    0.18481
 18 Li    0.00356   -0.02076   -0.09557
 19 Li   -0.00676    0.00840   -0.16634
 20 Li   -0.00280    0.00107    0.03455
 21 Li    0.00072   -0.01457   -0.03610
 22 Li    0.01008    0.01262   -0.02774
 23 Li   -0.01471   -0.00166   -0.01613
 24 Li    0.00226   -0.00516    0.07279
 25 Li    0.00402   -0.00427    0.18221
 26 Li    0.00385    0.00053   -0.05787
 27 Li    0.00930   -0.00773   -0.08894
 28 Li    0.00722   -0.00544    0.02524
 29 Li   -0.00170    0.00378   -0.00029
 30 Li    0.02815   -0.00002    0.03441
 31 Li   -0.01482   -0.01214    0.00198
 32 Li   -0.00386   -0.00155    0.04221
 33 Li    0.00089   -0.00030    0.18173
 34 Li    0.00380    0.00135   -0.05484
 35 Li   -0.00083   -0.00539   -0.18722
 36 Li   -0.00025   -0.00032    0.03190
 37 Li   -0.00309   -0.00372   -0.00190
 38 Li    0.05402    0.00459   -0.02135
 39 Li    0.00463   -0.00080   -0.00453
 40 Li   -0.00181    0.00656    0.03635
 41 Li    0.00117    0.00079    0.18480
 42 Li    0.00577   -0.00255   -0.05986
 43 Li    0.00005    0.00131   -0.21467
 44 Li    0.00447    0.00190    0.03214
 45 Li   -0.00766    0.00404   -0.00707
 46 Li    0.00509   -0.03398    0.00283
 47 Li    0.01378    0.00319   -0.00728
 48 Li   -0.00077    0.00049    0.03844
 49 Li   -0.00019    0.00062    0.18295
 50 Li   -0.01321    0.01116   -0.08616
 51 Li   -0.00093   -0.00577   -0.17748
 52 Li   -0.00301   -0.00316    0.03140
 53 Li    0.00735    0.00336    0.00106
 54 Li   -0.00441    0.01238   -0.00015
 55 Li   -0.00890   -0.01005   -0.00645
 56 Li    0.00412   -0.00417    0.03826
 57 Li   -0.00146    0.00432    0.18320
 58 Li   -0.00181    0.00946   -0.06907
 59 Li    0.00186   -0.00129   -0.20587
 60 Li    0.00199    0.00724    0.02419
 61 Li    0.00647   -0.01018   -0.01884
 62 Li   -0.03456    0.02310    0.00100
 63 Li    0.03118   -0.01490    0.00740
 64 Li    0.00031   -0.00069    0.04196
 65 Li   -0.00334   -0.00221    0.17983
 66 Li   -0.00025    0.00113   -0.05793
 67 Li    0.00496    0.00200   -0.18406
 68 Li   -0.00133   -0.00058    0.02667
 69 Li    0.00680    0.00332   -0.00312
 70 Li   -0.01603   -0.00406    0.00020
 71 Li   -0.00068    0.00423    0.00806
 72 Li    0.12888    0.17606    0.00839

System changes: positions 

Initializing position-dependent things.

Density initialized from wave functions
                                                                       
                                                                       
                                                                       
                                                                       
                                                                       
                                                                       
                                                                       
                               Li          Li          Li              
                                      Li          Li          Li       
               Li      Lii         Lii        LiLi                     
                               Li          Li          Li              
                Li          Lii         Lii          Li                
                        LiLi        LiLi        LiLi          Li       
              Li     Lii         LiLi        LiLi                      
       Li          Li          Li          Li          Li              
                Li        LiLii       LiLii          Li                
              Li        Li          Li          Li                     
       Li          LiLii       LiLiLi        LiLi                      
                                                                       
              LiLi        LiLi        LiLi                             
                                                                       
       Li          Li          Li                                      
                                                                       
                                                                       
                                                                       
                                                                       

Atomic positions and initial magnetic moments

Positions:
   0 Li     0.000000    0.000000   10.000000    ( 0.0000,  0.0000,  0.0000)
   1 Li     2.467803    1.424787   11.007476    ( 0.0000,  0.0000,  0.0000)
   2 Li     4.935605    2.849573   12.014952    ( 0.0000,  0.0000,  0.0000)
   3 Li     0.000000    0.000000   13.022429    ( 0.0000,  0.0000,  0.0000)
   4 Li     2.463038    1.422094   13.648947    ( 0.0000,  0.0000,  0.0000)
   5 Li     4.920922    2.844029   15.041200    ( 0.0000,  0.0000,  0.0000)
   6 Li    -0.002111   -0.002276   15.914681    ( 0.0000,  0.0000,  0.0000)
   7 Li     2.467542    1.412596   16.189332    ( 0.0000,  0.0000,  0.0000)
   8 Li     2.467803    4.274360   10.000000    ( 0.0000,  0.0000,  0.0000)
   9 Li     4.935605    5.699146   11.007476    ( 0.0000,  0.0000,  0.0000)
  10 Li     7.403408    7.123933   12.014952    ( 0.0000,  0.0000,  0.0000)
  11 Li     2.467803    4.274360   13.022429    ( 0.0000,  0.0000,  0.0000)
  12 Li     4.930801    5.705932   13.958444    ( 0.0000,  0.0000,  0.0000)
  13 Li     7.399926    7.119508   15.072976    ( 0.0000,  0.0000,  0.0000)
  14 Li     2.461496    4.271595   15.930863    ( 0.0000,  0.0000,  0.0000)
  15 Li     4.967849    5.664010   16.834729    ( 0.0000,  0.0000,  0.0000)
  16 Li     4.935605    8.548719   10.000000    ( 0.0000,  0.0000,  0.0000)
  17 Li     7.403408    9.973506   11.007476    ( 0.0000,  0.0000,  0.0000)
  18 Li     9.871211   11.398292   12.014952    ( 0.0000,  0.0000,  0.0000)
  19 Li     4.935605    8.548719   13.022429    ( 0.0000,  0.0000,  0.0000)
  20 Li     7.395318    9.971814   14.032191    ( 0.0000,  0.0000,  0.0000)
  21 Li     9.869373   11.402018   15.038818    ( 0.0000,  0.0000,  0.0000)
  22 Li     4.939362    8.543598   15.863222    ( 0.0000,  0.0000,  0.0000)
  23 Li     7.457571    9.946767   16.979728    ( 0.0000,  0.0000,  0.0000)
  24 Li     4.935605    0.000000   10.000000    ( 0.0000,  0.0000,  0.0000)
  25 Li     7.403408    1.424787   11.007476    ( 0.0000,  0.0000,  0.0000)
  26 Li     9.871211    2.849573   12.014952    ( 0.0000,  0.0000,  0.0000)
  27 Li     4.935605    0.000000   13.022429    ( 0.0000,  0.0000,  0.0000)
  28 Li     7.407934    1.417060   14.032358    ( 0.0000,  0.0000,  0.0000)
  29 Li     9.868450    2.849529   15.083444    ( 0.0000,  0.0000,  0.0000)
  30 Li     4.931853    0.001449   15.909432    ( 0.0000,  0.0000,  0.0000)
  31 Li     7.381342    1.468323   16.982414    ( 0.0000,  0.0000,  0.0000)
  32 Li     7.403408    4.274360   10.000000    ( 0.0000,  0.0000,  0.0000)
  33 Li     9.871211    5.699146   11.007476    ( 0.0000,  0.0000,  0.0000)
  34 Li    12.339013    7.123933   12.014952    ( 0.0000,  0.0000,  0.0000)
  35 Li     7.403408    4.274360   13.022429    ( 0.0000,  0.0000,  0.0000)
  36 Li     9.873322    5.698899   14.008005    ( 0.0000,  0.0000,  0.0000)
  37 Li    12.333043    7.121151   15.082831    ( 0.0000,  0.0000,  0.0000)
  38 Li     7.383009    4.261409   15.820180    ( 0.0000,  0.0000,  0.0000)
  39 Li     9.868633    5.708493   16.932396    ( 0.0000,  0.0000,  0.0000)
  40 Li     9.871211    8.548719   10.000000    ( 0.0000,  0.0000,  0.0000)
  41 Li    12.339013    9.973506   11.007476    ( 0.0000,  0.0000,  0.0000)
  42 Li    14.806816   11.398292   12.014952    ( 0.0000,  0.0000,  0.0000)
  43 Li     9.871211    8.548719   13.022429    ( 0.0000,  0.0000,  0.0000)
  44 Li    12.344647    9.968026   14.025836    ( 0.0000,  0.0000,  0.0000)
  45 Li    14.807020   11.389619   15.092777    ( 0.0000,  0.0000,  0.0000)
  46 Li     9.866023    8.567823   15.797879    ( 0.0000,  0.0000,  0.0000)
  47 Li    12.289865    9.952888   16.967988    ( 0.0000,  0.0000,  0.0000)
  48 Li     9.871211    0.000000   10.000000    ( 0.0000,  0.0000,  0.0000)
  49 Li    12.339013    1.424787   11.007476    ( 0.0000,  0.0000,  0.0000)
  50 Li    14.806816    2.849573   12.014952    ( 0.0000,  0.0000,  0.0000)
  51 Li     9.871211    0.000000   13.022429    ( 0.0000,  0.0000,  0.0000)
  52 Li    12.332116    1.419949   14.030260    ( 0.0000,  0.0000,  0.0000)
  53 Li    14.808486    2.845591   15.043669    ( 0.0000,  0.0000,  0.0000)
  54 Li     9.866004    0.006182   15.852430    ( 0.0000,  0.0000,  0.0000)
  55 Li    12.344100    1.475803   16.972670    ( 0.0000,  0.0000,  0.0000)
  56 Li    12.339013    4.274360   10.000000    ( 0.0000,  0.0000,  0.0000)
  57 Li    14.806816    5.699146   11.007476    ( 0.0000,  0.0000,  0.0000)
  58 Li    17.274619    7.123933   12.014952    ( 0.0000,  0.0000,  0.0000)
  59 Li    12.339013    4.274360   13.022429    ( 0.0000,  0.0000,  0.0000)
  60 Li    14.803404    5.706262   14.029992    ( 0.0000,  0.0000,  0.0000)
  61 Li    17.268779    7.128505   15.084017    ( 0.0000,  0.0000,  0.0000)
  62 Li    12.356403    4.264944   15.806568    ( 0.0000,  0.0000,  0.0000)
  63 Li    14.766923    5.675666   16.977994    ( 0.0000,  0.0000,  0.0000)
  64 Li    14.806816    8.548719   10.000000    ( 0.0000,  0.0000,  0.0000)
  65 Li    17.274619    9.973506   11.007476    ( 0.0000,  0.0000,  0.0000)
  66 Li    19.742421   11.398292   12.014952    ( 0.0000,  0.0000,  0.0000)
  67 Li    14.806816    8.548719   13.022429    ( 0.0000,  0.0000,  0.0000)
  68 Li    17.271339    9.973198   14.023169    ( 0.0000,  0.0000,  0.0000)
  69 Li    19.731822   11.394252   15.097030    ( 0.0000,  0.0000,  0.0000)
  70 Li    14.798242    8.539391   15.843249    ( 0.0000,  0.0000,  0.0000)
  71 Li    17.259730    9.963779   16.942461    ( 0.0000,  0.0000,  0.0000)
  72 Li     2.892135    2.144448   18.619304    ( 0.0000,  0.0000,  0.0000)

Unit cell:
           periodic     x           y           z      points  spacing
  1. axis:    yes   14.806816    0.000000    0.000000    49     0.2617
  2. axis:    yes    7.403408   12.823079    0.000000    49     0.2617
  3. axis:    no     0.000000    0.000000   27.052334    90     0.3006

  Lengths:  14.806816  14.806816  27.052334
  Angles:   90.000000  90.000000  60.000000

Effective grid spacing dv^(1/3) = 0.2875

     iter     time        total  log10-change:
                         energy   eigst   dens
iter:   1 18:58:19  -125.234295   -4.48
iter:   2 18:58:24  -125.233602   -5.24  -2.55
iter:   3 18:58:29  -125.233498c  -5.17  -2.90
iter:   4 18:58:34  -125.233411c  -5.80c -3.18
iter:   5 18:58:39  -125.233395c  -5.73c -3.35
iter:   6 18:58:43  -125.233346c  -5.80c -3.43
iter:   7 18:58:48  -125.233341c  -6.36c -3.62
iter:   8 18:58:53  -125.233336c  -5.98c -3.74
iter:   9 18:58:57  -125.233327c  -6.31c -4.08c

Converged after 9 iterations.

Dipole moment: (-9.881720, -5.129094, 0.300489) |e|*Ang

Energy contributions relative to reference atoms: (reference = -14803.510878)

Kinetic:        +99.430408
Potential:      -89.019321
External:        +0.000000
XC:            -134.609830
Entropy (-ST):   -1.152633
Local:           -0.458268
SIC:             +0.000000
--------------------------
Free energy:   -125.809644
Extrapolated:  -125.233327

Showing all kpts
 Kpt  Band  Eigenvalues  Occupancy
  0    34     -1.82492    1.12260
  0    35     -1.77782    0.88815
  0    36     -1.75459    0.77543
  0    37     -1.70817    0.56949

  1    34     -1.94081    1.60606
  1    35     -1.93802    1.59715
  1    36     -1.83611    1.17727
  1    37     -1.74111    0.71250


Fermi level: -1.80028

No gap
No difference between direct/indirect transitions

Forces in eV/Ang:
  0 Li   -0.00344   -0.00288    0.07256
  1 Li   -0.00103   -0.00240   -0.11608
  2 Li    0.01230    0.00627   -0.07854
  3 Li   -0.01032   -0.00403   -0.08467
  4 Li   -0.00734   -0.01285   -0.00107
  5 Li   -0.02268    0.00098    0.05371
  6 Li   -0.04339   -0.02266   -0.01150
  7 Li   -0.06977   -0.09159   -0.08805
  8 Li   -0.00267    0.00569    0.07740
  9 Li    0.00039    0.00668    0.14410
 10 Li    0.00433    0.00317   -0.06665
 11 Li   -0.00891    0.01452   -0.08205
 12 Li    0.00119    0.01132    0.04463
 13 Li   -0.00229   -0.00582   -0.00932
 14 Li   -0.00643   -0.00979    0.03580
 15 Li   -0.04383   -0.02457    0.11195
 16 Li   -0.00029   -0.00164    0.04049
 17 Li    0.00217    0.00099    0.18529
 18 Li    0.00337   -0.02051   -0.09580
 19 Li   -0.00669    0.00878   -0.16703
 20 Li   -0.00282    0.00107    0.03283
 21 Li    0.00053   -0.01522   -0.03548
 22 Li    0.00959    0.01141   -0.02625
 23 Li   -0.01428   -0.00180   -0.01555
 24 Li    0.00219   -0.00518    0.07268
 25 Li    0.00422   -0.00430    0.18230
 26 Li    0.00379    0.00065   -0.05767
 27 Li    0.00893   -0.00786   -0.08769
 28 Li    0.00690   -0.00499    0.02445
 29 Li   -0.00117    0.00357   -0.00034
 30 Li    0.02653   -0.00014    0.03323
 31 Li   -0.01385   -0.01134    0.00260
 32 Li   -0.00370   -0.00152    0.04193
 33 Li    0.00091   -0.00035    0.18215
 34 Li    0.00370    0.00124   -0.05468
 35 Li   -0.00039   -0.00532   -0.18779
 36 Li   -0.00026   -0.00044    0.03061
 37 Li   -0.00305   -0.00352   -0.00178
 38 Li    0.05123    0.00500   -0.01943
 39 Li    0.00460   -0.00086   -0.00371
 40 Li   -0.00181    0.00651    0.03622
 41 Li    0.00114    0.00077    0.18519
 42 Li    0.00585   -0.00249   -0.05992
 43 Li    0.00004    0.00127   -0.21437
 44 Li    0.00436    0.00161    0.03064
 45 Li   -0.00711    0.00375   -0.00640
 46 Li    0.00486   -0.03303    0.00302
 47 Li    0.01339    0.00280   -0.00667
 48 Li   -0.00077    0.00051    0.03824
 49 Li   -0.00017    0.00063    0.18330
 50 Li   -0.01303    0.01089   -0.08613
 51 Li   -0.00083   -0.00578   -0.17729
 52 Li   -0.00282   -0.00299    0.03012
 53 Li    0.00596    0.00336    0.00079
 54 Li   -0.00439    0.01193    0.00002
 55 Li   -0.00903   -0.00949   -0.00600
 56 Li    0.00405   -0.00411    0.03813
 57 Li   -0.00148    0.00435    0.18347
 58 Li   -0.00176    0.00960   -0.06922
 59 Li    0.00176   -0.00117   -0.20568
 60 Li    0.00179    0.00693    0.02326
 61 Li    0.00600   -0.00995   -0.01736
 62 Li   -0.03326    0.02233    0.00144
 63 Li    0.03017   -0.01439    0.00764
 64 Li    0.00029   -0.00073    0.04180
 65 Li   -0.00330   -0.00222    0.18002
 66 Li   -0.00005    0.00116   -0.05773
 67 Li    0.00494    0.00204   -0.18388
 68 Li   -0.00120   -0.00061    0.02548
 69 Li    0.00583    0.00314   -0.00293
 70 Li   -0.01520   -0.00419    0.00043
 71 Li   -0.00064    0.00414    0.00824
 72 Li    0.12828    0.17415   -0.00067

System changes: positions 

Initializing position-dependent things.

Density initialized from wave functions
                                                                       
                                                                       
                                                                       
                                                                       
                                                                       
                                                                       
                                                                       
                               Li          Li          Li              
                                      Li          Li          Li       
               Li      Lii         Lii        LiLi                     
                               Li          Li          Li              
                Li          Lii         Lii          Li                
                        LiLi        LiLi        LiLi          Li       
              Li     Lii         LiLi        LiLi                      
       Li          Li          Li          Li          Li              
                Li        LiLii       LiLii          Li                
              Li        Li          Li          Li                     
       Li          LiLii       LiLiLi        LiLi                      
                                                                       
              LiLi        LiLi        LiLi                             
                                                                       
       Li          Li          Li                                      
                                                                       
                                                                       
                                                                       
                                                                       

Atomic positions and initial magnetic moments

Positions:
   0 Li     0.000000    0.000000   10.000000    ( 0.0000,  0.0000,  0.0000)
   1 Li     2.467803    1.424787   11.007476    ( 0.0000,  0.0000,  0.0000)
   2 Li     4.935605    2.849573   12.014952    ( 0.0000,  0.0000,  0.0000)
   3 Li     0.000000    0.000000   13.022429    ( 0.0000,  0.0000,  0.0000)
   4 Li     2.462738    1.421545   13.648520    ( 0.0000,  0.0000,  0.0000)
   5 Li     4.919963    2.844044   15.043372    ( 0.0000,  0.0000,  0.0000)
   6 Li    -0.003842   -0.003158   15.914349    ( 0.0000,  0.0000,  0.0000)
   7 Li     2.464538    1.408755   16.183953    ( 0.0000,  0.0000,  0.0000)
   8 Li     2.467803    4.274360   10.000000    ( 0.0000,  0.0000,  0.0000)
   9 Li     4.935605    5.699146   11.007476    ( 0.0000,  0.0000,  0.0000)
  10 Li     7.403408    7.123933   12.014952    ( 0.0000,  0.0000,  0.0000)
  11 Li     2.467803    4.274360   13.022429    ( 0.0000,  0.0000,  0.0000)
  12 Li     4.930838    5.706418   13.960842    ( 0.0000,  0.0000,  0.0000)
  13 Li     7.399840    7.119265   15.072633    ( 0.0000,  0.0000,  0.0000)
  14 Li     2.461219    4.271235   15.932346    ( 0.0000,  0.0000,  0.0000)
  15 Li     4.966074    5.662956   16.840517    ( 0.0000,  0.0000,  0.0000)
  16 Li     4.935605    8.548719   10.000000    ( 0.0000,  0.0000,  0.0000)
  17 Li     7.403408    9.973506   11.007476    ( 0.0000,  0.0000,  0.0000)
  18 Li     9.871211   11.398292   12.014952    ( 0.0000,  0.0000,  0.0000)
  19 Li     4.935605    8.548719   13.022429    ( 0.0000,  0.0000,  0.0000)
  20 Li     7.395199    9.971851   14.033584    ( 0.0000,  0.0000,  0.0000)
  21 Li     9.869393   11.401442   15.037304    ( 0.0000,  0.0000,  0.0000)
  22 Li     4.939781    8.544096   15.862016    ( 0.0000,  0.0000,  0.0000)
  23 Li     7.456990    9.946721   16.979073    ( 0.0000,  0.0000,  0.0000)
  24 Li     4.935605    0.000000   10.000000    ( 0.0000,  0.0000,  0.0000)
  25 Li     7.403408    1.424787   11.007476    ( 0.0000,  0.0000,  0.0000)
  26 Li     9.871211    2.849573   12.014952    ( 0.0000,  0.0000,  0.0000)
  27 Li     4.935605    0.000000   13.022429    ( 0.0000,  0.0000,  0.0000)
  28 Li     7.408224    1.416831   14.033381    ( 0.0000,  0.0000,  0.0000)
  29 Li     9.868370    2.849690   15.083419    ( 0.0000,  0.0000,  0.0000)
  30 Li     4.932975    0.001402   15.910981    ( 0.0000,  0.0000,  0.0000)
  31 Li     7.380808    1.467932   16.982492    ( 0.0000,  0.0000,  0.0000)
  32 Li     7.403408    4.274360   10.000000    ( 0.0000,  0.0000,  0.0000)
  33 Li     9.871211    5.699146   11.007476    ( 0.0000,  0.0000,  0.0000)
  34 Li    12.339013    7.123933   12.014952    ( 0.0000,  0.0000,  0.0000)
  35 Li     7.403408    4.274360   13.022429    ( 0.0000,  0.0000,  0.0000)
  36 Li     9.873308    5.698893   14.009257    ( 0.0000,  0.0000,  0.0000)
  37 Li    12.332908    7.120990   15.082758    ( 0.0000,  0.0000,  0.0000)
  38 Li     7.385161    4.261576   15.819163    ( 0.0000,  0.0000,  0.0000)
  39 Li     9.868830    5.708380   16.932135    ( 0.0000,  0.0000,  0.0000)
  40 Li     9.871211    8.548719   10.000000    ( 0.0000,  0.0000,  0.0000)
  41 Li    12.339013    9.973506   11.007476    ( 0.0000,  0.0000,  0.0000)
  42 Li    14.806816   11.398292   12.014952    ( 0.0000,  0.0000,  0.0000)
  43 Li     9.871211    8.548719   13.022429    ( 0.0000,  0.0000,  0.0000)
  44 Li    12.344833    9.968096   14.027167    ( 0.0000,  0.0000,  0.0000)
  45 Li    14.806716   11.389771   15.092512    ( 0.0000,  0.0000,  0.0000)
  46 Li     9.866259    8.566504   15.797986    ( 0.0000,  0.0000,  0.0000)
  47 Li    12.290345    9.952984   16.967761    ( 0.0000,  0.0000,  0.0000)
  48 Li     9.871211    0.000000   10.000000    ( 0.0000,  0.0000,  0.0000)
  49 Li    12.339013    1.424787   11.007476    ( 0.0000,  0.0000,  0.0000)
  50 Li    14.806816    2.849573   12.014952    ( 0.0000,  0.0000,  0.0000)
  51 Li     9.871211    0.000000   13.022429    ( 0.0000,  0.0000,  0.0000)
  52 Li    12.331991    1.419809   14.031541    ( 0.0000,  0.0000,  0.0000)
  53 Li    14.808801    2.845715   15.043633    ( 0.0000,  0.0000,  0.0000)
  54 Li     9.865837    0.006698   15.852424    ( 0.0000,  0.0000,  0.0000)
  55 Li    12.343756    1.475471   16.972463    ( 0.0000,  0.0000,  0.0000)
  56 Li    12.339013    4.274360   10.000000    ( 0.0000,  0.0000,  0.0000)
  57 Li    14.806816    5.699146   11.007476    ( 0.0000,  0.0000,  0.0000)
  58 Li    17.274619    7.123933   12.014952    ( 0.0000,  0.0000,  0.0000)
  59 Li    12.339013    4.274360   13.022429    ( 0.0000,  0.0000,  0.0000)
  60 Li    14.803490    5.706571   14.030967    ( 0.0000,  0.0000,  0.0000)
  61 Li    17.269020    7.128108   15.083345    ( 0.0000,  0.0000,  0.0000)
  62 Li    12.355035    4.265842   15.806537    ( 0.0000,  0.0000,  0.0000)
  63 Li    14.768097    5.674943   16.978285    ( 0.0000,  0.0000,  0.0000)
  64 Li    14.806816    8.548719   10.000000    ( 0.0000,  0.0000,  0.0000)
  65 Li    17.274619    9.973506   11.007476    ( 0.0000,  0.0000,  0.0000)
  66 Li    19.742421   11.398292   12.014952    ( 0.0000,  0.0000,  0.0000)
  67 Li    14.806816    8.548719   13.022429    ( 0.0000,  0.0000,  0.0000)
  68 Li    17.271283    9.973163   14.024230    ( 0.0000,  0.0000,  0.0000)
  69 Li    19.732096   11.394367   15.096905    ( 0.0000,  0.0000,  0.0000)
  70 Li    14.797546    8.539233   15.843327    ( 0.0000,  0.0000,  0.0000)
  71 Li    17.259757    9.963992   16.942732    ( 0.0000,  0.0000,  0.0000)
  72 Li     2.894183    2.146121   18.619709    ( 0.0000,  0.0000,  0.0000)

Unit cell:
           periodic     x           y           z      points  spacing
  1. axis:    yes   14.806816    0.000000    0.000000    49     0.2617
  2. axis:    yes    7.403408   12.823079    0.000000    49     0.2617
  3. axis:    no     0.000000    0.000000   27.052334    90     0.3006

  Lengths:  14.806816  14.806816  27.052334
  Angles:   90.000000  90.000000  60.000000

Effective grid spacing dv^(1/3) = 0.2875

     iter     time        total  log10-change:
                         energy   eigst   dens
iter:   1 19:03:02  -125.237906   -4.42
iter:   2 19:03:07  -125.237131   -5.26  -2.52
iter:   3 19:03:12  -125.237012c  -5.17  -2.87
iter:   4 19:03:17  -125.236914c  -5.89c -3.12
iter:   5 19:03:22  -125.236903c  -5.70c -3.29
iter:   6 19:03:26  -125.236854c  -5.82c -3.33
iter:   7 19:03:32  -125.236853c  -6.50c -3.50
iter:   8 19:03:36  -125.236856c  -6.18c -3.65
iter:   9 19:03:41  -125.236848c  -6.52c -3.98
iter:  10 19:03:47  -125.236851c  -6.36c -3.97
iter:  11 19:03:51  -125.236840c  -6.36c -4.07c

Converged after 11 iterations.

Dipole moment: (-9.866653, -5.133881, 0.300865) |e|*Ang

Energy contributions relative to reference atoms: (reference = -14803.510878)

Kinetic:        +99.408007
Potential:      -89.005014
External:        +0.000000
XC:            -134.605295
Entropy (-ST):   -1.152680
Local:           -0.458198
SIC:             +0.000000
--------------------------
Free energy:   -125.813180
Extrapolated:  -125.236840

Showing all kpts
 Kpt  Band  Eigenvalues  Occupancy
  0    34     -1.82495    1.12341
  0    35     -1.77770    0.88826
  0    36     -1.75436    0.77497
  0    37     -1.70799    0.56927

  1    34     -1.94067    1.60602
  1    35     -1.93784    1.59701
  1    36     -1.83596    1.17720
  1    37     -1.74091    0.71218


Fermi level: -1.80015

No gap
No difference between direct/indirect transitions

Forces in eV/Ang:
  0 Li   -0.00326   -0.00281    0.07257
  1 Li   -0.00108   -0.00231   -0.11650
  2 Li    0.01220    0.00635   -0.07720
  3 Li   -0.01045   -0.00412   -0.08477
  4 Li   -0.00634   -0.01141   -0.00703
  5 Li   -0.02172    0.00113    0.05280
  6 Li   -0.04369   -0.02305   -0.01174
  7 Li   -0.06591   -0.08631   -0.07041
  8 Li   -0.00265    0.00575    0.07734
  9 Li    0.00028    0.00678    0.14534
 10 Li    0.00419    0.00297   -0.06662
 11 Li   -0.00854    0.01448   -0.08087
 12 Li    0.00125    0.01012    0.04452
 13 Li   -0.00280   -0.00588   -0.00828
 14 Li   -0.00594   -0.01164    0.03425
 15 Li   -0.04141   -0.02410    0.10741
 16 Li   -0.00046   -0.00173    0.04033
 17 Li    0.00210    0.00109    0.18598
 18 Li    0.00335   -0.02045   -0.09646
 19 Li   -0.00687    0.00874   -0.16796
 20 Li   -0.00274    0.00068    0.03026
 21 Li    0.00084   -0.01644   -0.03420
 22 Li    0.00866    0.00944   -0.02454
 23 Li   -0.01353   -0.00223   -0.01431
 24 Li    0.00223   -0.00514    0.07268
 25 Li    0.00429   -0.00433    0.18270
 26 Li    0.00360    0.00069   -0.05762
 27 Li    0.00906   -0.00770   -0.08647
 28 Li    0.00590   -0.00427    0.02311
 29 Li   -0.00067    0.00288   -0.00060
 30 Li    0.02418    0.00021    0.03171
 31 Li   -0.01297   -0.01013    0.00342
 32 Li   -0.00366   -0.00154    0.04179
 33 Li    0.00088   -0.00039    0.18263
 34 Li    0.00366    0.00116   -0.05457
 35 Li   -0.00091   -0.00541   -0.18833
 36 Li   -0.00034   -0.00053    0.02823
 37 Li   -0.00245   -0.00318   -0.00185
 38 Li    0.04690    0.00540   -0.01755
 39 Li    0.00425   -0.00083   -0.00193
 40 Li   -0.00177    0.00637    0.03608
 41 Li    0.00124    0.00084    0.18575
 42 Li    0.00587   -0.00237   -0.05992
 43 Li    0.00012    0.00137   -0.21426
 44 Li    0.00433    0.00139    0.02857
 45 Li   -0.00618    0.00330   -0.00596
 46 Li    0.00450   -0.03132    0.00337
 47 Li    0.01276    0.00244   -0.00575
 48 Li   -0.00095    0.00046    0.03808
 49 Li   -0.00013    0.00064    0.18393
 50 Li   -0.01286    0.01086   -0.08617
 51 Li   -0.00095   -0.00600   -0.17725
 52 Li   -0.00270   -0.00251    0.02821
 53 Li    0.00424    0.00391    0.00074
 54 Li   -0.00454    0.01108    0.00011
 55 Li   -0.00903   -0.00860   -0.00514
 56 Li    0.00397   -0.00398    0.03795
 57 Li   -0.00132    0.00441    0.18385
 58 Li   -0.00158    0.00954   -0.06933
 59 Li    0.00193   -0.00113   -0.20556
 60 Li    0.00175    0.00652    0.02209
 61 Li    0.00569   -0.00961   -0.01583
 62 Li   -0.03093    0.02113    0.00186
 63 Li    0.02914   -0.01388    0.00793
 64 Li    0.00040   -0.00074    0.04171
 65 Li   -0.00332   -0.00232    0.18036
 66 Li    0.00009    0.00111   -0.05764
 67 Li    0.00506    0.00215   -0.18368
 68 Li   -0.00133   -0.00072    0.02413
 69 Li    0.00397    0.00280   -0.00291
 70 Li   -0.01371   -0.00442    0.00055
 71 Li   -0.00067    0.00372    0.00816
 72 Li    0.12752    0.17184   -0.01151

System changes: positions 

Initializing position-dependent things.

Density initialized from wave functions
                                                                       
                                                                       
                                                                       
                                                                       
                                                                       
                                                                       
                                                                       
                               Li          Li          Li              
                                      Li          Li          Li       
               Li      Lii         Lii        LiLi                     
                               Li          Li          Li              
                Li          Lii         Lii          Li                
                        LiLi        LiLi        LiLi          Li       
              Li     Lii         LiLi        LiLi                      
       Li          Li          Li          Li          Li              
                Li        LiLii       LiLii          Li                
              Li        Li          Li          Li                     
       Li          LiLii       LiLiLi        LiLi                      
                                                                       
              LiLi        LiLi        LiLi                             
                                                                       
       Li          Li          Li                                      
                                                                       
                                                                       
                                                                       
                                                                       

Atomic positions and initial magnetic moments

Positions:
   0 Li     0.000000    0.000000   10.000000    ( 0.0000,  0.0000,  0.0000)
   1 Li     2.467803    1.424787   11.007476    ( 0.0000,  0.0000,  0.0000)
   2 Li     4.935605    2.849573   12.014952    ( 0.0000,  0.0000,  0.0000)
   3 Li     0.000000    0.000000   13.022429    ( 0.0000,  0.0000,  0.0000)
   4 Li     2.462381    1.420890   13.647819    ( 0.0000,  0.0000,  0.0000)
   5 Li     4.918785    2.844062   15.046075    ( 0.0000,  0.0000,  0.0000)
   6 Li    -0.006024   -0.004276   15.913928    ( 0.0000,  0.0000,  0.0000)
   7 Li     2.460861    1.404058   16.177607    ( 0.0000,  0.0000,  0.0000)
   8 Li     2.467803    4.274360   10.000000    ( 0.0000,  0.0000,  0.0000)
   9 Li     4.935605    5.699146   11.007476    ( 0.0000,  0.0000,  0.0000)
  10 Li     7.403408    7.123933   12.014952    ( 0.0000,  0.0000,  0.0000)
  11 Li     2.467803    4.274360   13.022429    ( 0.0000,  0.0000,  0.0000)
  12 Li     4.930886    5.707001   13.963847    ( 0.0000,  0.0000,  0.0000)
  13 Li     7.399727    7.118962   15.072230    ( 0.0000,  0.0000,  0.0000)
  14 Li     2.460884    4.270736   15.934184    ( 0.0000,  0.0000,  0.0000)
  15 Li     4.963910    5.661648   16.847666    ( 0.0000,  0.0000,  0.0000)
  16 Li     4.935605    8.548719   10.000000    ( 0.0000,  0.0000,  0.0000)
  17 Li     7.403408    9.973506   11.007476    ( 0.0000,  0.0000,  0.0000)
  18 Li     9.871211   11.398292   12.014952    ( 0.0000,  0.0000,  0.0000)
  19 Li     4.935605    8.548719   13.022429    ( 0.0000,  0.0000,  0.0000)
  20 Li     7.395049    9.971889   14.035270    ( 0.0000,  0.0000,  0.0000)
  21 Li     9.869422   11.400688   15.035432    ( 0.0000,  0.0000,  0.0000)
  22 Li     4.940287    8.544670   15.860551    ( 0.0000,  0.0000,  0.0000)
  23 Li     7.456277    9.946655   16.978279    ( 0.0000,  0.0000,  0.0000)
  24 Li     4.935605    0.000000   10.000000    ( 0.0000,  0.0000,  0.0000)
  25 Li     7.403408    1.424787   11.007476    ( 0.0000,  0.0000,  0.0000)
  26 Li     9.871211    2.849573   12.014952    ( 0.0000,  0.0000,  0.0000)
  27 Li     4.935605    0.000000   13.022429    ( 0.0000,  0.0000,  0.0000)
  28 Li     7.408567    1.416560   14.034634    ( 0.0000,  0.0000,  0.0000)
  29 Li     9.868284    2.849879   15.083381    ( 0.0000,  0.0000,  0.0000)
  30 Li     4.934324    0.001349   15.912895    ( 0.0000,  0.0000,  0.0000)
  31 Li     7.380163    1.467468   16.982612    ( 0.0000,  0.0000,  0.0000)
  32 Li     7.403408    4.274360   10.000000    ( 0.0000,  0.0000,  0.0000)
  33 Li     9.871211    5.699146   11.007476    ( 0.0000,  0.0000,  0.0000)
  34 Li    12.339013    7.123933   12.014952    ( 0.0000,  0.0000,  0.0000)
  35 Li     7.403408    4.274360   13.022429    ( 0.0000,  0.0000,  0.0000)
  36 Li     9.873290    5.698883   14.010774    ( 0.0000,  0.0000,  0.0000)
  37 Li    12.332749    7.120796   15.082668    ( 0.0000,  0.0000,  0.0000)
  38 Li     7.387758    4.261800   15.817940    ( 0.0000,  0.0000,  0.0000)
  39 Li     9.869071    5.708239   16.931847    ( 0.0000,  0.0000,  0.0000)
  40 Li     9.871211    8.548719   10.000000    ( 0.0000,  0.0000,  0.0000)
  41 Li    12.339013    9.973506   11.007476    ( 0.0000,  0.0000,  0.0000)
  42 Li    14.806816   11.398292   12.014952    ( 0.0000,  0.0000,  0.0000)
  43 Li     9.871211    8.548719   13.022429    ( 0.0000,  0.0000,  0.0000)
  44 Li    12.345066    9.968176   14.028786    ( 0.0000,  0.0000,  0.0000)
  45 Li    14.806357   11.389949   15.092194    ( 0.0000,  0.0000,  0.0000)
  46 Li     9.866546    8.564883   15.798130    ( 0.0000,  0.0000,  0.0000)
  47 Li    12.290933    9.953096   16.967498    ( 0.0000,  0.0000,  0.0000)
  48 Li     9.871211    0.000000   10.000000    ( 0.0000,  0.0000,  0.0000)
  49 Li    12.339013    1.424787   11.007476    ( 0.0000,  0.0000,  0.0000)
  50 Li    14.806816    2.849573   12.014952    ( 0.0000,  0.0000,  0.0000)
  51 Li     9.871211    0.000000   13.022429    ( 0.0000,  0.0000,  0.0000)
  52 Li    12.331837    1.419643   14.033102    ( 0.0000,  0.0000,  0.0000)
  53 Li    14.809151    2.845882   15.043587    ( 0.0000,  0.0000,  0.0000)
  54 Li     9.865626    0.007328   15.852420    ( 0.0000,  0.0000,  0.0000)
  55 Li    12.343323    1.475075   16.972224    ( 0.0000,  0.0000,  0.0000)
  56 Li    12.339013    4.274360   10.000000    ( 0.0000,  0.0000,  0.0000)
  57 Li    14.806816    5.699146   11.007476    ( 0.0000,  0.0000,  0.0000)
  58 Li    17.274619    7.123933   12.014952    ( 0.0000,  0.0000,  0.0000)
  59 Li    12.339013    4.274360   13.022429    ( 0.0000,  0.0000,  0.0000)
  60 Li    14.803595    5.706949   14.032162    ( 0.0000,  0.0000,  0.0000)
  61 Li    17.269312    7.127616   15.082543    ( 0.0000,  0.0000,  0.0000)
  62 Li    12.353371    4.266941   15.806511    ( 0.0000,  0.0000,  0.0000)
  63 Li    14.769541    5.674051   16.978657    ( 0.0000,  0.0000,  0.0000)
  64 Li    14.806816    8.548719   10.000000    ( 0.0000,  0.0000,  0.0000)
  65 Li    17.274619    9.973506   11.007476    ( 0.0000,  0.0000,  0.0000)
  66 Li    19.742421   11.398292   12.014952    ( 0.0000,  0.0000,  0.0000)
  67 Li    14.806816    8.548719   13.022429    ( 0.0000,  0.0000,  0.0000)
  68 Li    17.271211    9.973115   14.025527    ( 0.0000,  0.0000,  0.0000)
  69 Li    19.732396   11.394503   15.096751    ( 0.0000,  0.0000,  0.0000)
  70 Li    14.796706    8.539030   15.843430    ( 0.0000,  0.0000,  0.0000)
  71 Li    17.259792    9.964250   16.943074    ( 0.0000,  0.0000,  0.0000)
  72 Li     2.896719    2.148146   18.619967    ( 0.0000,  0.0000,  0.0000)

Unit cell:
           periodic     x           y           z      points  spacing
  1. axis:    yes   14.806816    0.000000    0.000000    49     0.2617
  2. axis:    yes    7.403408   12.823079    0.000000    49     0.2617
  3. axis:    no     0.000000    0.000000   27.052334    90     0.3006

  Lengths:  14.806816  14.806816  27.052334
  Angles:   90.000000  90.000000  60.000000

Effective grid spacing dv^(1/3) = 0.2875

     iter     time        total  log10-change:
                         energy   eigst   dens
iter:   1 19:08:20  -125.243250   -4.10
iter:   2 19:08:26  -125.241382   -4.96  -2.35
iter:   3 19:08:31  -125.241123c  -4.85  -2.71
iter:   4 19:08:36  -125.240987c  -5.77c -3.00
iter:   5 19:08:41  -125.240958c  -5.57c -3.17
iter:   6 19:08:46  -125.240911c  -5.89c -3.25
iter:   7 19:08:51  -125.240915c  -6.64c -3.46
iter:   8 19:08:56  -125.240920c  -6.40c -3.55
iter:   9 19:09:01  -125.240918c  -6.86c -3.89
iter:  10 19:09:06  -125.240921c  -6.78c -3.94
iter:  11 19:09:11  -125.240914c  -6.76c -4.09c

Converged after 11 iterations.

Dipole moment: (-9.848502, -5.139722, 0.301421) |e|*Ang

Energy contributions relative to reference atoms: (reference = -14803.510878)

Kinetic:        +99.384373
Potential:      -88.990109
External:        +0.000000
XC:            -134.600669
Entropy (-ST):   -1.152514
Local:           -0.458252
SIC:             +0.000000
--------------------------
Free energy:   -125.817171
Extrapolated:  -125.240914

Showing all kpts
 Kpt  Band  Eigenvalues  Occupancy
  0    34     -1.82493    1.12459
  0    35     -1.77745    0.88830
  0    36     -1.75397    0.77440
  0    37     -1.70770    0.56918

  1    34     -1.94037    1.60591
  1    35     -1.93752    1.59681
  1    36     -1.83571    1.17724
  1    37     -1.74059    0.71193


Fermi level: -1.79988

No gap
No difference between direct/indirect transitions

Forces in eV/Ang:
  0 Li   -0.00319   -0.00278    0.07250
  1 Li   -0.00114   -0.00228   -0.11724
  2 Li    0.01209    0.00640   -0.07589
  3 Li   -0.01024   -0.00410   -0.08416
  4 Li   -0.00548   -0.00989   -0.01360
  5 Li   -0.02050    0.00102    0.05200
  6 Li   -0.04424   -0.02366   -0.01250
  7 Li   -0.06142   -0.08011   -0.04984
  8 Li   -0.00270    0.00570    0.07723
  9 Li    0.00025    0.00692    0.14711
 10 Li    0.00407    0.00286   -0.06636
 11 Li   -0.00842    0.01433   -0.07953
 12 Li    0.00140    0.00894    0.04362
 13 Li   -0.00287   -0.00552   -0.00718
 14 Li   -0.00536   -0.01356    0.03269
 15 Li   -0.03858   -0.02346    0.10246
 16 Li   -0.00048   -0.00170    0.04005
 17 Li    0.00214    0.00115    0.18669
 18 Li    0.00331   -0.02040   -0.09725
 19 Li   -0.00690    0.00888   -0.16906
 20 Li   -0.00278    0.00021    0.02729
 21 Li    0.00098   -0.01760   -0.03282
 22 Li    0.00772    0.00729   -0.02232
 23 Li   -0.01266   -0.00260   -0.01304
 24 Li    0.00220   -0.00515    0.07271
 25 Li    0.00439   -0.00440    0.18323
 26 Li    0.00352    0.00067   -0.05735
 27 Li    0.00896   -0.00772   -0.08478
 28 Li    0.00495   -0.00344    0.02151
 29 Li    0.00008    0.00220   -0.00091
 30 Li    0.02144    0.00037    0.02993
 31 Li   -0.01183   -0.00883    0.00440
 32 Li   -0.00366   -0.00155    0.04159
 33 Li    0.00091   -0.00035    0.18332
 34 Li    0.00360    0.00109   -0.05437
 35 Li   -0.00119   -0.00544   -0.18919
 36 Li   -0.00041   -0.00067    0.02571
 37 Li   -0.00197   -0.00273   -0.00191
 38 Li    0.04177    0.00586   -0.01495
 39 Li    0.00405   -0.00073   -0.00015
 40 Li   -0.00173    0.00637    0.03600
 41 Li    0.00120    0.00085    0.18649
 42 Li    0.00593   -0.00226   -0.05995
 43 Li    0.00020    0.00146   -0.21401
 44 Li    0.00427    0.00097    0.02603
 45 Li   -0.00521    0.00278   -0.00523
 46 Li    0.00409   -0.02947    0.00372
 47 Li    0.01201    0.00201   -0.00478
 48 Li   -0.00096    0.00041    0.03794
 49 Li   -0.00010    0.00067    0.18466
 50 Li   -0.01277    0.01076   -0.08623
 51 Li   -0.00093   -0.00615   -0.17712
 52 Li   -0.00259   -0.00203    0.02587
 53 Li    0.00217    0.00426    0.00056
 54 Li   -0.00455    0.01016    0.00019
 55 Li   -0.00903   -0.00759   -0.00426
 56 Li    0.00398   -0.00396    0.03784
 57 Li   -0.00131    0.00443    0.18447
 58 Li   -0.00138    0.00957   -0.06938
 59 Li    0.00207   -0.00107   -0.20540
 60 Li    0.00152    0.00601    0.02055
 61 Li    0.00517   -0.00934   -0.01376
 62 Li   -0.02831    0.01967    0.00238
 63 Li    0.02774   -0.01328    0.00826
 64 Li    0.00034   -0.00074    0.04158
 65 Li   -0.00329   -0.00231    0.18093
 66 Li    0.00019    0.00113   -0.05751
 67 Li    0.00510    0.00230   -0.18344
 68 Li   -0.00134   -0.00077    0.02225
 69 Li    0.00188    0.00236   -0.00272
 70 Li   -0.01218   -0.00459    0.00072
 71 Li   -0.00063    0.00342    0.00822
 72 Li    0.12669    0.16902   -0.02463

System changes: positions 

Initializing position-dependent things.

Density initialized from wave functions
                                                                       
                                                                       
                                                                       
                                                                       
                                                                       
                                                                       
                                                                       
                               Li          Li          Li              
                                      Li          Li          Li       
               Li     LiLi         Lii        LiLi                     
                               Li          Li          Li              
[...]
 11 Li   -0.01520    0.03945   -0.17958
 12 Li   -0.00108   -0.00137   -0.00149
 13 Li    0.00762   -0.00725    0.00154
 14 Li    0.00307   -0.00712   -0.00603
 15 Li   -0.00881    0.05642   -0.01281
 16 Li    0.00103    0.00241    0.03906
 17 Li    0.00468    0.00060    0.19481
 18 Li    0.00596   -0.00691   -0.12478
 19 Li   -0.02398   -0.02538   -0.16160
 20 Li   -0.00850   -0.00676   -0.00331
 21 Li   -0.01151    0.01947    0.01388
 22 Li    0.01088   -0.00861    0.01035
 23 Li    0.00239    0.01548   -0.00435
 24 Li   -0.00188   -0.00692    0.07150
 25 Li    0.01199   -0.00600    0.19467
 26 Li   -0.00183   -0.00190   -0.05517
 27 Li    0.00885   -0.03040   -0.06929
 28 Li   -0.00125    0.00042    0.00521
 29 Li   -0.01289    0.01830    0.00260
 30 Li   -0.01047    0.00265   -0.01500
 31 Li   -0.00893    0.00316    0.00784
 32 Li    0.00115    0.00140    0.04611
 33 Li   -0.00190   -0.00196    0.19570
 34 Li   -0.00051   -0.00198   -0.05065
 35 Li    0.00232   -0.00476   -0.19394
 36 Li    0.00093    0.00106   -0.00013
 37 Li   -0.00362   -0.00162   -0.00276
 38 Li   -0.03425    0.00031    0.03487
 39 Li   -0.00198   -0.00748   -0.00722
 40 Li   -0.00061    0.00540    0.03401
 41 Li   -0.00163    0.00090    0.19717
 42 Li    0.00737    0.00086   -0.05407
 43 Li   -0.00153    0.00245   -0.20786
 44 Li   -0.00217    0.00122   -0.00360
 45 Li   -0.00515   -0.00110    0.00219
 46 Li    0.00193    0.00898    0.00374
 47 Li   -0.00201    0.00500   -0.00665
 48 Li    0.00094   -0.00065    0.03479
 49 Li    0.00115    0.00485    0.19865
 50 Li   -0.00243    0.01000   -0.08161
 51 Li   -0.02735   -0.02143   -0.16583
 52 Li   -0.01372   -0.00773   -0.00474
 53 Li   -0.00242   -0.01839   -0.00038
 54 Li   -0.01457    0.01451    0.00389
 55 Li    0.00892   -0.00815   -0.00902
 56 Li    0.00313   -0.00201    0.03665
 57 Li   -0.00281    0.00487    0.18967
 58 Li    0.00206    0.00389   -0.05343
 59 Li   -0.00145   -0.01442   -0.20278
 60 Li   -0.00041   -0.00800    0.00224
 61 Li    0.00150    0.00284    0.00318
 62 Li    0.01379   -0.00102    0.00464
 63 Li    0.01701   -0.00177    0.00489
 64 Li   -0.00160    0.00040    0.04399
 65 Li    0.00188    0.00225    0.20067
 66 Li    0.00095    0.00189   -0.05327
 67 Li   -0.00435   -0.01105   -0.18635
 68 Li   -0.02313   -0.00942   -0.01200
 69 Li   -0.02347   -0.01878   -0.01042
 70 Li   -0.00649   -0.00538    0.00382
 71 Li    0.00212   -0.00291   -0.01172
 72 Li    0.20337    0.04158   -0.07384

System changes: positions 

Initializing position-dependent things.

Density initialized from wave functions
                                                                         
                                                                         
                                                                         
                                                                         
                                                                         
                                                                         
                                 Li          Li          Li              
                                                                         
                         Li            Li         LiLi         Li        
                  Li   Li           LiLi        Li                       
                               Lii         LiLi        LiLi              
                 Li          Li         LLi         Li          Li       
                          LLi       LiLLi         Li                     
              Li      LiLi       LLi         LLiLi       Li              
       Li           Li         LLi         Li          Li                
                 Li        LiLi        LiLi                              
               Li       LiLi        LiLi        LiLi                     
        Li          LiLi        LiLi          Li                         
                 Li          Li          Li                              
               Li          Li          Li                                
                                                                         
        Li          Li          Li                                       
                                                                         
                                                                         
                                                                         
                                                                         

Atomic positions and initial magnetic moments

Positions:
   0 Li     0.000000    0.000000   10.000000    ( 0.0000,  0.0000,  0.0000)
   1 Li     2.467803    1.424787   11.007476    ( 0.0000,  0.0000,  0.0000)
   2 Li     4.935605    2.849573   12.014952    ( 0.0000,  0.0000,  0.0000)
   3 Li     0.000000    0.000000   13.022429    ( 0.0000,  0.0000,  0.0000)
   4 Li     2.488196    1.446480   13.701775    ( 0.0000,  0.0000,  0.0000)
   5 Li     4.828809    2.788146   15.290876    ( 0.0000,  0.0000,  0.0000)
   6 Li    -0.273274   -0.151252   15.865055    ( 0.0000,  0.0000,  0.0000)
   7 Li     2.223623    1.113888   16.294315    ( 0.0000,  0.0000,  0.0000)
   8 Li     2.467803    4.274360   10.000000    ( 0.0000,  0.0000,  0.0000)
   9 Li     4.935605    5.699146   11.007476    ( 0.0000,  0.0000,  0.0000)
  10 Li     7.403408    7.123933   12.014952    ( 0.0000,  0.0000,  0.0000)
  11 Li     2.467803    4.274360   13.022429    ( 0.0000,  0.0000,  0.0000)
  12 Li     4.929003    5.656915   14.043742    ( 0.0000,  0.0000,  0.0000)
  13 Li     7.376018    7.097534   15.061620    ( 0.0000,  0.0000,  0.0000)
  14 Li     2.373604    4.202305   15.813221    ( 0.0000,  0.0000,  0.0000)
  15 Li     4.841142    5.486666   17.008062    ( 0.0000,  0.0000,  0.0000)
  16 Li     4.935605    8.548719   10.000000    ( 0.0000,  0.0000,  0.0000)
  17 Li     7.403408    9.973506   11.007476    ( 0.0000,  0.0000,  0.0000)
  18 Li     9.871211   11.398292   12.014952    ( 0.0000,  0.0000,  0.0000)
  19 Li     4.935605    8.548719   13.022429    ( 0.0000,  0.0000,  0.0000)
  20 Li     7.355437    9.949084   14.046609    ( 0.0000,  0.0000,  0.0000)
  21 Li     9.838463   11.277621   14.973394    ( 0.0000,  0.0000,  0.0000)
  22 Li     4.898713    8.464238   15.867927    ( 0.0000,  0.0000,  0.0000)
  23 Li     7.452857    9.814834   16.949632    ( 0.0000,  0.0000,  0.0000)
  24 Li     4.935605    0.000000   10.000000    ( 0.0000,  0.0000,  0.0000)
  25 Li     7.403408    1.424787   11.007476    ( 0.0000,  0.0000,  0.0000)
  26 Li     9.871211    2.849573   12.014952    ( 0.0000,  0.0000,  0.0000)
  27 Li     4.935605    0.000000   13.022429    ( 0.0000,  0.0000,  0.0000)
  28 Li     7.372455    1.430509   14.072327    ( 0.0000,  0.0000,  0.0000)
  29 Li     9.871384    2.835721   15.074103    ( 0.0000,  0.0000,  0.0000)
  30 Li     4.927096   -0.045646   15.962432    ( 0.0000,  0.0000,  0.0000)
  31 Li     7.356938    1.497098   17.032509    ( 0.0000,  0.0000,  0.0000)
  32 Li     7.403408    4.274360   10.000000    ( 0.0000,  0.0000,  0.0000)
  33 Li     9.871211    5.699146   11.007476    ( 0.0000,  0.0000,  0.0000)
  34 Li    12.339013    7.123933   12.014952    ( 0.0000,  0.0000,  0.0000)
  35 Li     7.403408    4.274360   13.022429    ( 0.0000,  0.0000,  0.0000)
  36 Li     9.870275    5.686621   14.052335    ( 0.0000,  0.0000,  0.0000)
  37 Li    12.371023    7.128334   15.070305    ( 0.0000,  0.0000,  0.0000)
  38 Li     7.392777    4.258503   15.819750    ( 0.0000,  0.0000,  0.0000)
  39 Li     9.852858    5.648759   16.994585    ( 0.0000,  0.0000,  0.0000)
  40 Li     9.871211    8.548719   10.000000    ( 0.0000,  0.0000,  0.0000)
  41 Li    12.339013    9.973506   11.007476    ( 0.0000,  0.0000,  0.0000)
  42 Li    14.806816   11.398292   12.014952    ( 0.0000,  0.0000,  0.0000)
  43 Li     9.871211    8.548719   13.022429    ( 0.0000,  0.0000,  0.0000)
  44 Li    12.365711    9.961491   14.046584    ( 0.0000,  0.0000,  0.0000)
  45 Li    14.802983   11.381331   15.094794    ( 0.0000,  0.0000,  0.0000)
  46 Li     9.882859    8.439124   15.802622    ( 0.0000,  0.0000,  0.0000)
  47 Li    12.309879    9.857486   16.963873    ( 0.0000,  0.0000,  0.0000)
  48 Li     9.871211    0.000000   10.000000    ( 0.0000,  0.0000,  0.0000)
  49 Li    12.339013    1.424787   11.007476    ( 0.0000,  0.0000,  0.0000)
  50 Li    14.806816    2.849573   12.014952    ( 0.0000,  0.0000,  0.0000)
  51 Li     9.871211    0.000000   13.022429    ( 0.0000,  0.0000,  0.0000)
  52 Li    12.312243    1.397473   14.060704    ( 0.0000,  0.0000,  0.0000)
  53 Li    14.742049    2.803473   15.044805    ( 0.0000,  0.0000,  0.0000)
  54 Li     9.833838    0.002132   15.856357    ( 0.0000,  0.0000,  0.0000)
  55 Li    12.213196    1.553165   16.991028    ( 0.0000,  0.0000,  0.0000)
  56 Li    12.339013    4.274360   10.000000    ( 0.0000,  0.0000,  0.0000)
  57 Li    14.806816    5.699146   11.007476    ( 0.0000,  0.0000,  0.0000)
  58 Li    17.274619    7.123933   12.014952    ( 0.0000,  0.0000,  0.0000)
  59 Li    12.339013    4.274360   13.022429    ( 0.0000,  0.0000,  0.0000)
  60 Li    14.801339    5.695116   14.042301    ( 0.0000,  0.0000,  0.0000)
  61 Li    17.260877    7.067963   15.075177    ( 0.0000,  0.0000,  0.0000)
  62 Li    12.319876    4.330332   15.810999    ( 0.0000,  0.0000,  0.0000)
  63 Li    14.844717    5.623221   17.005001    ( 0.0000,  0.0000,  0.0000)
  64 Li    14.806816    8.548719   10.000000    ( 0.0000,  0.0000,  0.0000)
  65 Li    17.274619    9.973506   11.007476    ( 0.0000,  0.0000,  0.0000)
  66 Li    19.742421   11.398292   12.014952    ( 0.0000,  0.0000,  0.0000)
  67 Li    14.806816    8.548719   13.022429    ( 0.0000,  0.0000,  0.0000)
  68 Li    17.248211    9.936874   14.054851    ( 0.0000,  0.0000,  0.0000)
  69 Li    19.618645   11.310706   15.071977    ( 0.0000,  0.0000,  0.0000)
  70 Li    14.833110    8.515654   15.848061    ( 0.0000,  0.0000,  0.0000)
  71 Li    17.255817    9.977899   16.989465    ( 0.0000,  0.0000,  0.0000)
  72 Li     3.465416    2.865562   18.163570    ( 0.0000,  0.0000,  0.0000)

Unit cell:
           periodic     x           y           z      points  spacing
  1. axis:    yes   14.806816    0.000000    0.000000    49     0.2617
  2. axis:    yes    7.403408   12.823079    0.000000    49     0.2617
  3. axis:    no     0.000000    0.000000   27.052334    90     0.3006

  Lengths:  14.806816  14.806816  27.052334
  Angles:   90.000000  90.000000  60.000000

Effective grid spacing dv^(1/3) = 0.2875

     iter     time        total  log10-change:
                         energy   eigst   dens
iter:   1 23:00:13  -125.656624   -2.64
iter:   2 23:00:28  -125.608388   -3.81  -1.71
iter:   3 23:00:40  -125.591212   -3.24  -1.93
iter:   4 23:00:52  -125.589469c  -4.44  -2.25
iter:   5 23:01:06  -125.588522c  -4.26  -2.49
iter:   6 23:01:18  -125.588503c  -5.20  -2.69
iter:   7 23:01:30  -125.588495c  -5.37c -2.88
iter:   8 23:01:42  -125.588468c  -4.92  -2.97
iter:   9 23:01:53  -125.588303c  -5.82c -2.89
iter:  10 23:02:05  -125.588307c  -5.80c -3.19
iter:  11 23:02:16  -125.588243c  -6.27c -3.28
iter:  12 23:02:29  -125.588269c  -6.77c -3.46
iter:  13 23:02:41  -125.588284c  -7.28c -3.64
iter:  14 23:02:51  -125.588294c  -6.98c -3.70
iter:  15 23:03:04  -125.588298c  -7.20c -3.85
iter:  16 23:03:15  -125.588286c  -7.85c -3.99
iter:  17 23:03:27  -125.588262c  -7.47c -4.06c

Converged after 17 iterations.

Dipole moment: (-4.080680, -2.261135, 0.158319) |e|*Ang

Energy contributions relative to reference atoms: (reference = -14803.510878)

Kinetic:        +99.187714
Potential:      -88.997268
External:        +0.000000
XC:            -134.746844
Entropy (-ST):   -1.147965
Local:           -0.457882
SIC:             +0.000000
--------------------------
Free energy:   -126.162245
Extrapolated:  -125.588262

Showing all kpts
 Kpt  Band  Eigenvalues  Occupancy
  0    34     -1.84442    1.15223
  0    35     -1.78311    0.84803
  0    36     -1.75925    0.73409
  0    37     -1.72919    0.60075

  1    34     -1.94913    1.58952
  1    35     -1.94421    1.57326
  1    36     -1.85325    1.19503
  1    37     -1.75426    0.71109


Fermi level: -1.81374

No gap
No difference between direct/indirect transitions

Forces in eV/Ang:
  0 Li    0.00075   -0.00142    0.05976
  1 Li   -0.00941   -0.01011   -0.05516
  2 Li    0.00779    0.00907    0.00641
  3 Li    0.01905   -0.00371   -0.09184
  4 Li   -0.01120   -0.01580    0.08008
  5 Li    0.00898    0.00526   -0.04995
  6 Li   -0.01528   -0.01722   -0.04018
  7 Li   -0.03472    0.00995    0.15075
  8 Li   -0.00603    0.00142    0.07245
  9 Li    0.00453    0.01641    0.17978
 10 Li    0.00267   -0.00396   -0.06453
 11 Li   -0.01493    0.03607   -0.19638
 12 Li   -0.00027    0.00095   -0.00620
 13 Li    0.00796   -0.00658    0.00138
 14 Li    0.00881   -0.01255    0.00273
 15 Li    0.00221    0.08091   -0.02707
 16 Li    0.00128    0.00301    0.03953
 17 Li    0.00473    0.00075    0.19378
 18 Li    0.00634   -0.00654   -0.12603
 19 Li   -0.02545   -0.02802   -0.15861
 20 Li   -0.00591   -0.00619   -0.00150
 21 Li   -0.01243    0.02232    0.01818
 22 Li    0.01211   -0.00510    0.00556
 23 Li    0.00271    0.01767   -0.00327
 24 Li   -0.00194   -0.00692    0.06993
 25 Li    0.01207   -0.00604    0.19552
 26 Li   -0.00232   -0.00200   -0.05713
 27 Li    0.00823   -0.03043   -0.07452
 28 Li    0.00159   -0.00143    0.00533
 29 Li   -0.01447    0.02097    0.00584
 30 Li   -0.01327    0.00519   -0.01516
 31 Li   -0.00968    0.00124    0.00707
 32 Li    0.00166    0.00137    0.04696
 33 Li   -0.00246   -0.00239    0.19521
 34 Li   -0.00088   -0.00194   -0.05196
 35 Li    0.00285   -0.00481   -0.19022
 36 Li    0.00105    0.00326    0.00074
 37 Li   -0.00410   -0.00268   -0.00189
 38 Li   -0.03676    0.00085    0.03339
 39 Li   -0.00153   -0.00709   -0.00721
 40 Li   -0.00063    0.00541    0.03376
 41 Li   -0.00186    0.00134    0.19646
 42 Li    0.00684    0.00181   -0.05472
 43 Li   -0.00209    0.00276   -0.20779
 44 Li   -0.00437    0.00317   -0.00204
 45 Li   -0.00660   -0.00004    0.00296
 46 Li    0.00160    0.01031    0.00336
 47 Li   -0.00231    0.00726   -0.00603
 48 Li    0.00115   -0.00075    0.03526
 49 Li    0.00114    0.00497    0.19780
 50 Li   -0.00118    0.00939   -0.08090
 51 Li   -0.03031   -0.01947   -0.16543
 52 Li   -0.01571   -0.00713   -0.00246
 53 Li   -0.00079   -0.01694    0.00077
 54 Li   -0.01481    0.01593    0.00296
 55 Li    0.01150   -0.01027   -0.01115
 56 Li    0.00279   -0.00199    0.03673
 57 Li   -0.00274    0.00465    0.18883
 58 Li    0.00190    0.00296   -0.05506
 59 Li   -0.00214   -0.01663   -0.20207
 60 Li   -0.00006   -0.00771    0.00436
 61 Li    0.00261    0.00047    0.00604
 62 Li    0.01290   -0.00308    0.00347
 63 Li    0.01549    0.00013    0.00515
 64 Li   -0.00173    0.00070    0.04417
 65 Li    0.00222    0.00255    0.20012
 66 Li    0.00118    0.00207   -0.05356
 67 Li   -0.00447   -0.01160   -0.18671
 68 Li   -0.02410   -0.01082   -0.00925
 69 Li   -0.02236   -0.01642   -0.00903
 70 Li   -0.00837   -0.00479    0.00303
 71 Li    0.00182   -0.00359   -0.01363
 72 Li    0.18957    0.00144   -0.05804

Timing:                                      incl.     excl.
-------------------------------------------------------------------
Density initialized from wave functions:    43.194    43.193   0.2% |
 Symmetrize density:                         0.001     0.001   0.0% |
Forces:                                    176.753   176.753   0.8% |
Hamiltonian:                                62.027     0.514   0.0% |
 Atomic:                                    26.202     0.122   0.0% |
  XC Correction:                            26.080    26.080   0.1% |
 Calculate atomic Hamiltonians:             23.130    23.130   0.1% |
 Communicate:                                0.001     0.001   0.0% |
 Initialize Hamiltonian:                     0.047     0.047   0.0% |
 Poisson:                                    1.391     1.391   0.0% |
 XC 3D grid:                                10.742    10.742   0.1% |
LCAO initialization:                        26.601     0.019   0.0% |
 LCAO eigensolver:                           0.698     0.000   0.0% |
  Calculate projections:                     0.007     0.007   0.0% |
  DenseAtomicCorrection:                     0.079     0.079   0.0% |
  Distribute overlap matrix:                 0.001     0.001   0.0% |
  Orbital Layouts:                           0.131     0.131   0.0% |
  Potential matrix:                          0.455     0.455   0.0% |
  Sum over cells:                            0.024     0.024   0.0% |
 LCAO to grid:                              24.673    24.673   0.1% |
 Set positions (LCAO WFS):                   1.211     0.314   0.0% |
  Basic WFS set positions:                   0.002     0.002   0.0% |
  Basis functions set positions:             0.001     0.001   0.0% |
  P tci:                                     0.576     0.576   0.0% |
  ST tci:                                    0.270     0.270   0.0% |
  mktci:                                     0.049     0.049   0.0% |
PWDescriptor:                                0.138     0.138   0.0% |
Redistribute:                                0.101     0.101   0.0% |
SCF-cycle:                                2984.339     0.619   0.0% |
 Davidson:                                1777.197   327.814   1.5% ||
  Apply H:                                 314.397   311.058   1.5% ||
   HMM T:                                    3.339     3.339   0.0% |
  Subspace diag:                           358.546     0.173   0.0% |
   calc_h_matrix:                          333.257    19.780   0.1% |
    Apply H:                               313.477   309.158   1.5% ||
     HMM T:                                  4.319     4.319   0.0% |
   diagonalize:                              0.779     0.779   0.0% |
   rotate_psi:                              24.336    24.336   0.1% |
  calc. matrices:                          722.841    96.964   0.5% |
   Apply H:                                625.877   619.622   2.9% ||
    HMM T:                                   6.255     6.255   0.0% |
  diagonalize:                               5.907     5.907   0.0% |
  rotate_psi:                               47.692    47.692   0.2% |
 Density:                                  424.139     0.007   0.0% |
  Atomic density matrices:                   1.414     1.414   0.0% |
  Mix:                                     268.136   268.136   1.3% ||
  Multipole moments:                         0.323     0.323   0.0% |
  Pseudo density:                          154.259   154.252   0.7% |
   Symmetrize density:                       0.008     0.008   0.0% |
 Hamiltonian:                              767.537     1.931   0.0% |
  Atomic:                                  331.345     1.359   0.0% |
   XC Correction:                          329.987   329.987   1.6% ||
  Calculate atomic Hamiltonians:           296.381   296.381   1.4% ||
  Communicate:                               0.003     0.003   0.0% |
  Poisson:                                   1.237     1.237   0.0% |
  XC 3D grid:                              136.641   136.641   0.6% |
 Orthonormalize:                            14.848     0.019   0.0% |
  calc_s_matrix:                             0.859     0.859   0.0% |
  inverse-cholesky:                          0.094     0.094   0.0% |
  projections:                               9.022     9.022   0.0% |
  rotate_psi_s:                              4.854     4.854   0.0% |
Set symmetry:                                0.002     0.002   0.0% |
Other:                                   17983.578 17983.578  84.5% |---------------------------------|
-------------------------------------------------------------------
Total:                                             21276.732 100.0%

Memory usage: 4.13 GiB
Date: Tue Nov 25 00:17:01 2025
