
  ___ ___ ___ _ _ _  
 |   |   |_  | | | | 
 | | | | | . | | | | 
 |__ |  _|___|_____|  25.7.0
 |___|_|             

User:   tew@Mathuss-MacBook-Air-357.local
Date:   Mon Nov 24 18:22:24 2025
Arch:   arm64
Pid:    76608
CWD:    /Users/tew/Documents/Project/GitHub/chem-com
Python: 3.13.5
gpaw:   /Users/tew/Documents/Project/GitHub/chem-com/.venv/lib/python3.13/site-packages/gpaw
_gpaw:  /Users/tew/Documents/Project/GitHub/chem-com/.venv/lib/python3.13/site-packages/
        _gpaw.cpython-313-darwin.so
ase:    /Users/tew/Documents/Project/GitHub/chem-com/.venv/lib/python3.13/site-packages/ase (version 3.26.0)
numpy:  /Users/tew/Documents/Project/GitHub/chem-com/.venv/lib/python3.13/site-packages/numpy (version 2.3.5)
scipy:  /Users/tew/Documents/Project/GitHub/chem-com/.venv/lib/python3.13/site-packages/scipy (version 1.16.3)
libxc:  2.x.y
units:  Angstrom and eV
cores: 1
OpenMP: False
OMP_NUM_THREADS: 1

Input parameters:
  convergence: {density: 0.0001,
                eigenstates: 5e-06}
  kpts: [2 2 1]
  mode: {ecut: 200.0,
         name: pw}
  xc: PBE

System changes: positions, numbers, cell, pbc, initial_charges, initial_magmoms 

Initialize ...

species:
  Li:
    name: Lithium
    id: 830b4218f175192f93f959cfc0aad614
    Z: 3.0
    valence: 1
    core: 2
    charge: 0.0
    file: /Users/tew/Documents/Project/GitHub/chem-com/.venv/lib/python3.13/site-packages/gpaw_data/setups/Li.PBE.gz
    compensation charges: {type: gauss,
                           rc: 0.33,
                           lmax: 2}
    cutoffs: {filter: 1.91,
              core: 2.55}
    projectors:
      #              energy  rcut
      - 2s(1.00)    -2.874   1.058
      - 2p(0.00)    -1.090   1.058
      -  s          24.337   1.058
  
    # Using partial waves for Li as LCAO basis

Reference energy: -14803.510878  # eV

Spin-paired calculation

Convergence criteria:
 Maximum [total energy] change in last 3 cyles: 0.0005 eV / valence electron
 Maximum integral of absolute [dens]ity change: 0.0001 electrons / valence electron
 Maximum integral of absolute [eigenst]ate change: 5e-06 eV^2 / valence electron
 Maximum number of scf [iter]ations: 333
 (Square brackets indicate name in SCF output, whereas a 'c' in
 the SCF output indicates the quantity has converged.)

Symmetries present (total): 1

  ( 1  0  0)
  ( 0  1  0)
  ( 0  0  1)

4 k-points: 2 x 2 x 1 Monkhorst-Pack grid
2 k-points in the irreducible part of the Brillouin zone
       k-points in crystal coordinates                weights
   0:     0.25000000   -0.25000000    0.00000000          2/4
   1:     0.25000000    0.25000000    0.00000000          2/4

Wave functions: Plane wave expansion
  Cutoff energy: 200.000 eV
  Number of coefficients (min, max): 33010, 33019
  Pulay-stress correction: 0.000000 eV/Ang^3 (de/decut=0.000000)
  Using Numpy's FFT
  ScaLapack parameters: grid=1x1, blocksize=None
  Wavefunction extrapolation:
    Improved wavefunction reuse through dual PAW basis 

Occupation numbers: Fermi-Dirac:
  width: 0.1000  # eV
 

Eigensolver
   Davidson(niter=2) 

Densities:
  Coarse grid: 49*49*90 grid
  Fine grid: 98*98*180 grid
  Total Charge: 0.000000 

Density mixing:
  Method: separate
  Backend: pulay
  Linear mixing parameter: 0.05
  old densities: 5
  Damping of long wavelength oscillations: 50 

Hamiltonian:
  XC and Coulomb potentials evaluated on a 98*98*180 grid
  Using the PBE Exchange-Correlation functional
  External potential:
    NoExternalPotential
 

XC parameters: PBE with 2 nearest neighbor stencil

Memory estimate:
  Process memory now: 2506.38 MiB
  Calculator: 211.72 MiB
    Density: 94.25 MiB
      Arrays: 42.86 MiB
      Localized functions: 34.90 MiB
      Mixer: 16.49 MiB
    Hamiltonian: 28.74 MiB
      Arrays: 28.03 MiB
      XC: 0.00 MiB
      Poisson: 0.00 MiB
      vbar: 0.71 MiB
    Wavefunctions: 88.74 MiB
      Arrays psit_nG: 48.37 MiB
      Eigensolver: 27.06 MiB
      Projections: 0.53 MiB
      Projectors: 3.53 MiB
      PW-descriptor: 9.25 MiB

Total number of cores used: 1

Number of atoms: 73
Number of atomic orbitals: 292
Number of bands in calculation: 48
Number of valence electrons: 73
Bands to converge: occupied

... initialized

Initializing position-dependent things.

Density initialized from atomic densities
Creating initial wave functions:
  48 bands from LCAO basis set

                                                                       
                                                                       
                                                                       
                                                                       
                                                                       
                                                                       
                                                                       
                     Li        Li          Li          Li              
                                      Li          Li          Li       
                        Li         Lii         Lii                     
                      Li       Li          Li          Li              
                Li          Lii         Lii          Li                
              Li        LiLi        LiLi        LiLi          Li       
                     Lii         LiLi        LiLi                      
       Li          Li          Li          Li          Li              
              LiLi        LiLii       LiLii          Li                
                        Li          Li          Li                     
       Li          LiLii       LiLii         LiLi                      
                                                                       
              LiLi        LiLi        LiLi                             
                                                                       
       Li          Li          Li                                      
                                                                       
                                                                       
                                                                       
                                                                       

Atomic positions and initial magnetic moments

Positions:
   0 Li     0.000000    0.000000   10.000000    ( 0.0000,  0.0000,  0.0000)
   1 Li     2.467803    1.424787   11.007476    ( 0.0000,  0.0000,  0.0000)
   2 Li     4.935605    2.849573   12.014952    ( 0.0000,  0.0000,  0.0000)
   3 Li     0.000000    0.000000   13.022429    ( 0.0000,  0.0000,  0.0000)
   4 Li     2.459805    1.423412   13.954447    ( 0.0000,  0.0000,  0.0000)
   5 Li     4.932176    2.857869   15.036229    ( 0.0000,  0.0000,  0.0000)
   6 Li     0.005245   -0.003170   15.865352    ( 0.0000,  0.0000,  0.0000)
   7 Li     2.514286    1.407637   16.825137    ( 0.0000,  0.0000,  0.0000)
   8 Li     2.467803    4.274360   10.000000    ( 0.0000,  0.0000,  0.0000)
   9 Li     4.935605    5.699146   11.007476    ( 0.0000,  0.0000,  0.0000)
  10 Li     7.403408    7.123933   12.014952    ( 0.0000,  0.0000,  0.0000)
  11 Li     2.467803    4.274360   13.022429    ( 0.0000,  0.0000,  0.0000)
  12 Li     4.933335    5.701103   13.650505    ( 0.0000,  0.0000,  0.0000)
  13 Li     7.394195    7.119099   15.043348    ( 0.0000,  0.0000,  0.0000)
  14 Li     2.465984    4.277047   15.928635    ( 0.0000,  0.0000,  0.0000)
  15 Li     4.940083    5.693892   16.199006    ( 0.0000,  0.0000,  0.0000)
  16 Li     4.935605    8.548719   10.000000    ( 0.0000,  0.0000,  0.0000)
  17 Li     7.403408    9.973506   11.007476    ( 0.0000,  0.0000,  0.0000)
  18 Li     9.871211   11.398292   12.014952    ( 0.0000,  0.0000,  0.0000)
  19 Li     4.935605    8.548719   13.022429    ( 0.0000,  0.0000,  0.0000)
  20 Li     7.399129    9.979839   14.030579    ( 0.0000,  0.0000,  0.0000)
  21 Li     9.870928   11.399151   15.072909    ( 0.0000,  0.0000,  0.0000)
  22 Li     4.933182    8.546520   15.915926    ( 0.0000,  0.0000,  0.0000)
  23 Li     7.450988    9.936614   16.981700    ( 0.0000,  0.0000,  0.0000)
  24 Li     4.935605    0.000000   10.000000    ( 0.0000,  0.0000,  0.0000)
  25 Li     7.403408    1.424787   11.007476    ( 0.0000,  0.0000,  0.0000)
  26 Li     9.871211    2.849573   12.014952    ( 0.0000,  0.0000,  0.0000)
  27 Li     4.935605    0.000000   13.022429    ( 0.0000,  0.0000,  0.0000)
  28 Li     7.410331    1.421149   14.030289    ( 0.0000,  0.0000,  0.0000)
  29 Li     9.875249    2.846879   15.093119    ( 0.0000,  0.0000,  0.0000)
  30 Li     4.934062    0.024433   15.820913    ( 0.0000,  0.0000,  0.0000)
  31 Li     7.352697    1.416732   16.980919    ( 0.0000,  0.0000,  0.0000)
  32 Li     7.403408    4.274360   10.000000    ( 0.0000,  0.0000,  0.0000)
  33 Li     9.871211    5.699146   11.007476    ( 0.0000,  0.0000,  0.0000)
  34 Li    12.339013    7.123933   12.014952    ( 0.0000,  0.0000,  0.0000)
  35 Li     7.403408    4.274360   13.022429    ( 0.0000,  0.0000,  0.0000)
  36 Li     9.876566    5.694890   14.025346    ( 0.0000,  0.0000,  0.0000)
  37 Li    12.336275    7.126338   15.082152    ( 0.0000,  0.0000,  0.0000)
  38 Li     7.396431    4.273010   15.908020    ( 0.0000,  0.0000,  0.0000)
  39 Li     9.862028    5.749731   16.971020    ( 0.0000,  0.0000,  0.0000)
  40 Li     9.871211    8.548719   10.000000    ( 0.0000,  0.0000,  0.0000)
  41 Li    12.339013    9.973506   11.007476    ( 0.0000,  0.0000,  0.0000)
  42 Li    14.806816   11.398292   12.014952    ( 0.0000,  0.0000,  0.0000)
  43 Li     9.871211    8.548719   13.022429    ( 0.0000,  0.0000,  0.0000)
  44 Li    12.340613    9.972080   14.005730    ( 0.0000,  0.0000,  0.0000)
  45 Li    14.803639   11.396427   15.084203    ( 0.0000,  0.0000,  0.0000)
  46 Li     9.848983    8.541262   15.799042    ( 0.0000,  0.0000,  0.0000)
  47 Li    12.328953    9.969399   16.932921    ( 0.0000,  0.0000,  0.0000)
  48 Li     9.871211    0.000000   10.000000    ( 0.0000,  0.0000,  0.0000)
  49 Li    12.339013    1.424787   11.007476    ( 0.0000,  0.0000,  0.0000)
  50 Li    14.806816    2.849573   12.014952    ( 0.0000,  0.0000,  0.0000)
  51 Li     9.871211    0.000000   13.022429    ( 0.0000,  0.0000,  0.0000)
  52 Li    12.336227    1.424698   14.021831    ( 0.0000,  0.0000,  0.0000)
  53 Li    14.798061    2.847573   15.085895    ( 0.0000,  0.0000,  0.0000)
  54 Li     9.861212   -0.002334   15.852725    ( 0.0000,  0.0000,  0.0000)
  55 Li    12.336754    1.437046   16.943022    ( 0.0000,  0.0000,  0.0000)
  56 Li    12.339013    4.274360   10.000000    ( 0.0000,  0.0000,  0.0000)
  57 Li    14.806816    5.699146   11.007476    ( 0.0000,  0.0000,  0.0000)
  58 Li    17.274619    7.123933   12.014952    ( 0.0000,  0.0000,  0.0000)
  59 Li    12.339013    4.274360   13.022429    ( 0.0000,  0.0000,  0.0000)
  60 Li    14.799522    5.697269   14.029292    ( 0.0000,  0.0000,  0.0000)
  61 Li    17.277218    7.122749   15.043607    ( 0.0000,  0.0000,  0.0000)
  62 Li    12.341363    4.281707   15.843563    ( 0.0000,  0.0000,  0.0000)
  63 Li    14.804428    5.744655   16.978976    ( 0.0000,  0.0000,  0.0000)
  64 Li    14.806816    8.548719   10.000000    ( 0.0000,  0.0000,  0.0000)
  65 Li    17.274619    9.973506   11.007476    ( 0.0000,  0.0000,  0.0000)
  66 Li    19.742421   11.398292   12.014952    ( 0.0000,  0.0000,  0.0000)
  67 Li    14.806816    8.548719   13.022429    ( 0.0000,  0.0000,  0.0000)
  68 Li    17.273464    9.980760   14.027899    ( 0.0000,  0.0000,  0.0000)
  69 Li    19.736730   11.405811   15.096597    ( 0.0000,  0.0000,  0.0000)
  70 Li    14.825149    8.535450   15.807056    ( 0.0000,  0.0000,  0.0000)
  71 Li    17.231319    9.941350   16.971874    ( 0.0000,  0.0000,  0.0000)
  72 Li     4.530668    4.985162   18.618876    ( 0.0000,  0.0000,  0.0000)

Unit cell:
           periodic     x           y           z      points  spacing
  1. axis:    yes   14.806816    0.000000    0.000000    49     0.2617
  2. axis:    yes    7.403408   12.823079    0.000000    49     0.2617
  3. axis:    no     0.000000    0.000000   27.052334    90     0.3006

  Lengths:  14.806816  14.806816  27.052334
  Angles:   90.000000  90.000000  60.000000

Effective grid spacing dv^(1/3) = 0.2875

     iter     time        total  log10-change:
                         energy   eigst   dens
iter:   1 18:36:47  -134.379796
iter:   2 18:36:56  -130.165499   -0.95  -0.52
iter:   3 18:37:03  -125.923949   -0.79  -0.63
iter:   4 18:37:11  -127.142682   -1.33  -0.89
iter:   5 18:37:19  -126.800361   -1.93  -0.85
iter:   6 18:37:27  -126.011360   -1.05  -0.87
iter:   7 18:37:35  -125.189404   -1.99  -1.03
iter:   8 18:37:42  -125.248299   -2.44  -1.41
iter:   9 18:37:50  -125.245000   -2.54  -1.44
iter:  10 18:37:57  -125.221216c  -3.06  -1.51
iter:  11 18:38:05  -125.228274c  -3.17  -1.70
iter:  12 18:38:13  -125.230559c  -3.51  -1.95
iter:  13 18:38:20  -125.222772c  -3.67  -2.11
iter:  14 18:38:28  -125.222998c  -4.17  -2.31
iter:  15 18:38:35  -125.225004c  -4.05  -2.38
iter:  16 18:38:43  -125.222660c  -4.35  -2.46
iter:  17 18:38:51  -125.222472c  -4.53  -2.75
iter:  18 18:38:59  -125.222380c  -4.89  -2.87
iter:  19 18:39:06  -125.222320c  -4.73  -2.97
iter:  20 18:39:14  -125.222206c  -5.04  -3.13
iter:  21 18:39:22  -125.221996c  -5.12  -3.29
iter:  22 18:39:30  -125.221979c  -5.32c -3.31
iter:  23 18:39:38  -125.222079c  -5.30  -3.34
iter:  24 18:39:46  -125.221779c  -5.23  -3.39
iter:  25 18:39:53  -125.221766c  -5.51c -3.38
iter:  26 18:40:00  -125.221793c  -5.59c -3.52
iter:  27 18:40:06  -125.221738c  -5.68c -3.85
iter:  28 18:40:12  -125.221707c  -5.64c -3.92
iter:  29 18:40:19  -125.221677c  -5.80c -4.03c

Converged after 29 iterations.

Dipole moment: (-9.924620, -5.182376, 0.299024) |e|*Ang

Energy contributions relative to reference atoms: (reference = -14803.510878)

Kinetic:        +99.464703
Potential:      -89.031845
External:        +0.000000
XC:            -134.611838
Entropy (-ST):   -1.153520
Local:           -0.465936
SIC:             +0.000000
--------------------------
Free energy:   -125.798437
Extrapolated:  -125.221677

Showing all kpts
 Kpt  Band  Eigenvalues  Occupancy
  0    34     -1.81850    1.09017
  0    35     -1.77772    0.88698
  0    36     -1.75496    0.77656
  0    37     -1.71287    0.58821

  1    34     -1.94100    1.60622
  1    35     -1.93759    1.59530
  1    36     -1.83832    1.18729
  1    37     -1.74029    0.70810


Fermi level: -1.80042

No gap
No difference between direct/indirect transitions

Forces in eV/Ang:
  0 Li    0.00117    0.00011    0.04095
  1 Li   -0.00341   -0.00506    0.14210
  2 Li    0.00392   -0.01201   -0.08206
  3 Li   -0.00931    0.00035   -0.16511
  4 Li   -0.00939   -0.00841    0.04563
  5 Li   -0.01406    0.01928    0.05373
  6 Li   -0.00720   -0.01749   -0.02879
  7 Li   -0.00116    0.05392    0.11737
  8 Li   -0.00736   -0.00318    0.07793
  9 Li    0.00266    0.00289   -0.11434
 10 Li    0.01825    0.00978   -0.09194
 11 Li   -0.01719   -0.00262   -0.08440
 12 Li    0.00769    0.01376    0.00800
 13 Li    0.01145    0.00547   -0.03652
 14 Li    0.00568    0.00950    0.03727
 15 Li    0.04965    0.11687   -0.12785
 16 Li   -0.00030    0.00395    0.07227
 17 Li   -0.00323    0.00011    0.18443
 18 Li    0.00452    0.00132   -0.06751
 19 Li   -0.00349    0.01166   -0.08412
 20 Li   -0.00421    0.00177    0.03704
 21 Li    0.00468    0.00563   -0.01041
 22 Li   -0.00418    0.04698   -0.01062
 23 Li   -0.00635    0.01513   -0.01708
 24 Li   -0.00268    0.00339    0.04402
 25 Li    0.00552   -0.00354    0.18324
 26 Li    0.00503   -0.00339   -0.06054
 27 Li    0.00473   -0.00019   -0.18649
 28 Li    0.00926   -0.00662    0.02593
 29 Li   -0.00895    0.00030   -0.00748
 30 Li    0.02611   -0.05544   -0.02515
 31 Li    0.00376    0.02033   -0.00064
 32 Li    0.00470   -0.00157    0.07229
 33 Li   -0.00161   -0.00344    0.18201
 34 Li    0.00624    0.00166   -0.05704
 35 Li    0.00848   -0.00736   -0.09039
 36 Li   -0.00148   -0.00506    0.03435
 37 Li    0.00145    0.00196   -0.00086
 38 Li    0.01222   -0.02856    0.03473
 39 Li    0.00382   -0.01333   -0.00679
 40 Li   -0.00546   -0.00212    0.03414
 41 Li    0.00274    0.00301    0.18216
 42 Li    0.00261    0.00137   -0.05544
 43 Li   -0.00175    0.00055   -0.21239
 44 Li    0.00143    0.00271    0.03259
 45 Li   -0.00855   -0.00146   -0.00020
 46 Li    0.03139    0.01258    0.00366
 47 Li    0.00429   -0.00135   -0.00635
 48 Li    0.00010    0.00005    0.04218
 49 Li   -0.00252   -0.00051    0.17791
 50 Li   -0.00268    0.00109   -0.06970
 51 Li    0.00361    0.00202   -0.17872
 52 Li   -0.00307   -0.00232    0.03029
 53 Li    0.01250   -0.00330   -0.01849
 54 Li   -0.01215   -0.00209   -0.00073
 55 Li   -0.00504   -0.00371    0.00715
 56 Li    0.00011   -0.00033    0.03655
 57 Li   -0.00285    0.00088    0.18169
 58 Li   -0.01446    0.01191   -0.08591
 59 Li    0.00102   -0.00525   -0.18278
 60 Li   -0.00408   -0.00400    0.02468
 61 Li    0.00182   -0.01113    0.00179
 62 Li   -0.00577    0.01735   -0.00089
 63 Li    0.02983   -0.01946    0.00876
 64 Li    0.00334   -0.00446    0.04006
 65 Li    0.00124    0.00272    0.18504
 66 Li   -0.00165    0.00451   -0.05846
 67 Li    0.00203    0.00034   -0.20566
 68 Li    0.00133    0.00573    0.03235
 69 Li   -0.00130   -0.00997   -0.00381
 70 Li   -0.03874    0.02120   -0.00070
 71 Li    0.00535    0.01393   -0.00810
 72 Li   -0.09000   -0.19928    0.02816

System changes: positions 

Initializing position-dependent things.

Density initialized from wave functions
                                                                       
                                                                       
                                                                       
                                                                       
                                                                       
                                                                       
                                                                       
                     Li        Li          Li          Li              
                                      Li          Li          Li       
                        Li         Lii         Lii                     
                      Li       Li          Li          Li              
                Li          Lii         Lii          Li                
              Li        LiLi        LiLi        LiLi          Li       
                     Lii         LiLi        LiLi                      
       Li          Li          Li          Li          Li              
              LiLi        LiLii       LiLii          Li                
                        Li          Li          Li                     
       Li          LiLii       LiLii         LiLi                      
                                                                       
              LiLi        LiLi        LiLi                             
                                                                       
       Li          Li          Li                                      
                                                                       
                                                                       
                                                                       
                                                                       

Atomic positions and initial magnetic moments

Positions:
   0 Li     0.000000    0.000000   10.000000    ( 0.0000,  0.0000,  0.0000)
   1 Li     2.467803    1.424787   11.007476    ( 0.0000,  0.0000,  0.0000)
   2 Li     4.935605    2.849573   12.014952    ( 0.0000,  0.0000,  0.0000)
   3 Li     0.000000    0.000000   13.022429    ( 0.0000,  0.0000,  0.0000)
   4 Li     2.459708    1.423329   13.955186    ( 0.0000,  0.0000,  0.0000)
   5 Li     4.932045    2.858075   15.036764    ( 0.0000,  0.0000,  0.0000)
   6 Li     0.005177   -0.003347   15.865018    ( 0.0000,  0.0000,  0.0000)
   7 Li     2.514313    1.408166   16.826892    ( 0.0000,  0.0000,  0.0000)
   8 Li     2.467803    4.274360   10.000000    ( 0.0000,  0.0000,  0.0000)
   9 Li     4.935605    5.699146   11.007476    ( 0.0000,  0.0000,  0.0000)
  10 Li     7.403408    7.123933   12.014952    ( 0.0000,  0.0000,  0.0000)
  11 Li     2.467803    4.274360   13.022429    ( 0.0000,  0.0000,  0.0000)
  12 Li     4.933414    5.701237   13.650303    ( 0.0000,  0.0000,  0.0000)
  13 Li     7.394304    7.119153   15.042954    ( 0.0000,  0.0000,  0.0000)
  14 Li     2.466044    4.277146   15.929007    ( 0.0000,  0.0000,  0.0000)
  15 Li     4.940552    5.695087   16.197146    ( 0.0000,  0.0000,  0.0000)
  16 Li     4.935605    8.548719   10.000000    ( 0.0000,  0.0000,  0.0000)
  17 Li     7.403408    9.973506   11.007476    ( 0.0000,  0.0000,  0.0000)
  18 Li     9.871211   11.398292   12.014952    ( 0.0000,  0.0000,  0.0000)
  19 Li     4.935605    8.548719   13.022429    ( 0.0000,  0.0000,  0.0000)
  20 Li     7.399090    9.979864   14.030950    ( 0.0000,  0.0000,  0.0000)
  21 Li     9.870977   11.399204   15.072835    ( 0.0000,  0.0000,  0.0000)
  22 Li     4.933135    8.546993   15.915867    ( 0.0000,  0.0000,  0.0000)
  23 Li     7.450918    9.936756   16.981530    ( 0.0000,  0.0000,  0.0000)
  24 Li     4.935605    0.000000   10.000000    ( 0.0000,  0.0000,  0.0000)
  25 Li     7.403408    1.424787   11.007476    ( 0.0000,  0.0000,  0.0000)
  26 Li     9.871211    2.849573   12.014952    ( 0.0000,  0.0000,  0.0000)
  27 Li     4.935605    0.000000   13.022429    ( 0.0000,  0.0000,  0.0000)
  28 Li     7.410426    1.421087   14.030548    ( 0.0000,  0.0000,  0.0000)
  29 Li     9.875166    2.846880   15.093053    ( 0.0000,  0.0000,  0.0000)
  30 Li     4.934327    0.023900   15.820581    ( 0.0000,  0.0000,  0.0000)
  31 Li     7.352708    1.416887   16.980911    ( 0.0000,  0.0000,  0.0000)
  32 Li     7.403408    4.274360   10.000000    ( 0.0000,  0.0000,  0.0000)
  33 Li     9.871211    5.699146   11.007476    ( 0.0000,  0.0000,  0.0000)
  34 Li    12.339013    7.123933   12.014952    ( 0.0000,  0.0000,  0.0000)
  35 Li     7.403408    4.274360   13.022429    ( 0.0000,  0.0000,  0.0000)
  36 Li     9.876554    5.694836   14.025707    ( 0.0000,  0.0000,  0.0000)
  37 Li    12.336293    7.126362   15.082142    ( 0.0000,  0.0000,  0.0000)
  38 Li     7.396569    4.272735   15.908447    ( 0.0000,  0.0000,  0.0000)
  39 Li     9.862060    5.749636   16.970987    ( 0.0000,  0.0000,  0.0000)
  40 Li     9.871211    8.548719   10.000000    ( 0.0000,  0.0000,  0.0000)
  41 Li    12.339013    9.973506   11.007476    ( 0.0000,  0.0000,  0.0000)
  42 Li    14.806816   11.398292   12.014952    ( 0.0000,  0.0000,  0.0000)
  43 Li     9.871211    8.548719   13.022429    ( 0.0000,  0.0000,  0.0000)
  44 Li    12.340623    9.972111   14.006039    ( 0.0000,  0.0000,  0.0000)
  45 Li    14.803550   11.396419   15.084193    ( 0.0000,  0.0000,  0.0000)
  46 Li     9.849281    8.541361   15.799080    ( 0.0000,  0.0000,  0.0000)
  47 Li    12.329033    9.969401   16.932825    ( 0.0000,  0.0000,  0.0000)
  48 Li     9.871211    0.000000   10.000000    ( 0.0000,  0.0000,  0.0000)
  49 Li    12.339013    1.424787   11.007476    ( 0.0000,  0.0000,  0.0000)
  50 Li    14.806816    2.849573   12.014952    ( 0.0000,  0.0000,  0.0000)
  51 Li     9.871211    0.000000   13.022429    ( 0.0000,  0.0000,  0.0000)
  52 Li    12.336200    1.424679   14.022128    ( 0.0000,  0.0000,  0.0000)
  53 Li    14.798177    2.847542   15.085749    ( 0.0000,  0.0000,  0.0000)
  54 Li     9.861086   -0.002362   15.852718    ( 0.0000,  0.0000,  0.0000)
  55 Li    12.336696    1.436972   16.943066    ( 0.0000,  0.0000,  0.0000)
  56 Li    12.339013    4.274360   10.000000    ( 0.0000,  0.0000,  0.0000)
  57 Li    14.806816    5.699146   11.007476    ( 0.0000,  0.0000,  0.0000)
  58 Li    17.274619    7.123933   12.014952    ( 0.0000,  0.0000,  0.0000)
  59 Li    12.339013    4.274360   13.022429    ( 0.0000,  0.0000,  0.0000)
  60 Li    14.799477    5.697221   14.029539    ( 0.0000,  0.0000,  0.0000)
  61 Li    17.277245    7.122632   15.043586    ( 0.0000,  0.0000,  0.0000)
  62 Li    12.341290    4.281897   15.843588    ( 0.0000,  0.0000,  0.0000)
  63 Li    14.804763    5.744523   16.979065    ( 0.0000,  0.0000,  0.0000)
  64 Li    14.806816    8.548719   10.000000    ( 0.0000,  0.0000,  0.0000)
  65 Li    17.274619    9.973506   11.007476    ( 0.0000,  0.0000,  0.0000)
  66 Li    19.742421   11.398292   12.014952    ( 0.0000,  0.0000,  0.0000)
  67 Li    14.806816    8.548719   13.022429    ( 0.0000,  0.0000,  0.0000)
  68 Li    17.273479    9.980824   14.028229    ( 0.0000,  0.0000,  0.0000)
  69 Li    19.736722   11.405722   15.096558    ( 0.0000,  0.0000,  0.0000)
  70 Li    14.824786    8.535658   15.807016    ( 0.0000,  0.0000,  0.0000)
  71 Li    17.231346    9.941469   16.971821    ( 0.0000,  0.0000,  0.0000)
  72 Li     4.531289    4.985804   18.619158    ( 0.0000,  0.0000,  0.0000)

Unit cell:
           periodic     x           y           z      points  spacing
  1. axis:    yes   14.806816    0.000000    0.000000    49     0.2617
  2. axis:    yes    7.403408   12.823079    0.000000    49     0.2617
  3. axis:    no     0.000000    0.000000   27.052334    90     0.3006

  Lengths:  14.806816  14.806816  27.052334
  Angles:   90.000000  90.000000  60.000000

Effective grid spacing dv^(1/3) = 0.2875

     iter     time        total  log10-change:
                         energy   eigst   dens
iter:   1 18:51:53  -125.222571   -5.12
iter:   2 18:52:00  -125.222473   -5.32c -3.02
iter:   3 18:52:07  -125.222417c  -5.37c -3.32
iter:   4 18:52:14  -125.222377c  -5.91c -3.64
iter:   5 18:52:20  -125.222355c  -5.83c -3.80
iter:   6 18:52:26  -125.222324c  -5.71c -3.82
iter:   7 18:52:33  -125.222314c  -6.08c -3.92
iter:   8 18:52:40  -125.222298c  -5.87c -4.18c

Converged after 8 iterations.

Dipole moment: (-9.915271, -5.169286, 0.299352) |e|*Ang

Energy contributions relative to reference atoms: (reference = -14803.510878)

Kinetic:        +99.440206
Potential:      -89.020545
External:        +0.000000
XC:            -134.606826
Entropy (-ST):   -1.154225
Local:           -0.458020
SIC:             +0.000000
--------------------------
Free energy:   -125.799411
Extrapolated:  -125.222298

Showing all kpts
 Kpt  Band  Eigenvalues  Occupancy
  0    34     -1.81850    1.08987
  0    35     -1.77778    0.88701
  0    36     -1.75499    0.77641
  0    37     -1.71284    0.58785

  1    34     -1.94106    1.60622
  1    35     -1.93762    1.59523
  1    36     -1.83830    1.18689
  1    37     -1.74026    0.70771


Fermi level: -1.80048

No gap
No difference between direct/indirect transitions

Forces in eV/Ang:
  0 Li    0.00112    0.00022    0.04077
  1 Li   -0.00339   -0.00497    0.14274
  2 Li    0.00388   -0.01203   -0.08165
  3 Li   -0.00942    0.00044   -0.16548
  4 Li   -0.00916   -0.00821    0.04483
  5 Li   -0.01393    0.01889    0.05333
  6 Li   -0.00684   -0.01703   -0.02806
  7 Li   -0.00089    0.05324    0.11648
  8 Li   -0.00725   -0.00319    0.07818
  9 Li    0.00262    0.00274   -0.11476
 10 Li    0.01834    0.00974   -0.09211
 11 Li   -0.01712   -0.00270   -0.08421
 12 Li    0.00735    0.01318    0.00579
 13 Li    0.01173    0.00554   -0.03627
 14 Li    0.00603    0.00943    0.03708
 15 Li    0.04864    0.11475   -0.12224
 16 Li   -0.00032    0.00388    0.07243
 17 Li   -0.00320    0.00002    0.18458
 18 Li    0.00464    0.00147   -0.06726
 19 Li   -0.00355    0.01155   -0.08400
 20 Li   -0.00399    0.00198    0.03616
 21 Li    0.00453    0.00551   -0.01036
 22 Li   -0.00422    0.04725   -0.01026
 23 Li   -0.00625    0.01504   -0.01659
 24 Li   -0.00277    0.00334    0.04403
 25 Li    0.00544   -0.00345    0.18340
 26 Li    0.00507   -0.00339   -0.06039
 27 Li    0.00458   -0.00003   -0.18697
 28 Li    0.00885   -0.00642    0.02533
 29 Li   -0.00866    0.00025   -0.00744
 30 Li    0.02528   -0.05420   -0.02426
 31 Li    0.00358    0.02004   -0.00016
 32 Li    0.00455   -0.00152    0.07252
 33 Li   -0.00165   -0.00338    0.18225
 34 Li    0.00628    0.00170   -0.05689
 35 Li    0.00843   -0.00740   -0.09014
 36 Li   -0.00127   -0.00500    0.03349
 37 Li    0.00143    0.00185   -0.00103
 38 Li    0.01186   -0.02810    0.03474
 39 Li    0.00379   -0.01321   -0.00637
 40 Li   -0.00536   -0.00208    0.03410
 41 Li    0.00267    0.00291    0.18217
 42 Li    0.00257    0.00133   -0.05530
 43 Li   -0.00177    0.00047   -0.21249
 44 Li    0.00141    0.00275    0.03195
 45 Li   -0.00828   -0.00159   -0.00028
 46 Li    0.03114    0.01258    0.00395
 47 Li    0.00430   -0.00142   -0.00581
 48 Li    0.00031    0.00011    0.04219
 49 Li   -0.00244   -0.00049    0.17802
 50 Li   -0.00261    0.00098   -0.06951
 51 Li    0.00370    0.00203   -0.17884
 52 Li   -0.00293   -0.00228    0.02948
 53 Li    0.01241   -0.00314   -0.01824
 54 Li   -0.01189   -0.00211   -0.00034
 55 Li   -0.00502   -0.00373    0.00740
 56 Li    0.00013   -0.00041    0.03644
 57 Li   -0.00281    0.00086    0.18197
 58 Li   -0.01451    0.01193   -0.08586
 59 Li    0.00100   -0.00537   -0.18278
 60 Li   -0.00400   -0.00399    0.02404
 61 Li    0.00134   -0.01076    0.00178
 62 Li   -0.00556    0.01702   -0.00069
 63 Li    0.02964   -0.01919    0.00905
 64 Li    0.00320   -0.00445    0.04012
 65 Li    0.00123    0.00265    0.18523
 66 Li   -0.00166    0.00458   -0.05832
 67 Li    0.00210    0.00020   -0.20584
 68 Li    0.00123    0.00563    0.03155
 69 Li   -0.00143   -0.00938   -0.00379
 70 Li   -0.03816    0.02083   -0.00022
 71 Li    0.00518    0.01378   -0.00760
 72 Li   -0.08939   -0.19822    0.02397

System changes: positions 

Initializing position-dependent things.

Density initialized from wave functions
                                                                       
                                                                       
                                                                       
                                                                       
                                                                       
                                                                       
                                                                       
                     Li        Li          Li          Li              
                                      Li          Li          Li       
                        Li         Lii         Lii                     
                      Li       Li          Li          Li              
                Li          Lii         Lii          Li                
              Li        LiLi        LiLi        LiLi          Li       
                     Lii         LiLi        LiLi                      
       Li          Li          Li          Li          Li              
              LiLi        LiLii       LiLii          Li                
                        Li          Li          Li                     
       Li          LiLii       LiLii         LiLi                      
                                                                       
              LiLi        LiLi        LiLi                             
                                                                       
       Li          Li          Li                                      
                                                                       
                                                                       
                                                                       
                                                                       

Atomic positions and initial magnetic moments

Positions:
   0 Li     0.000000    0.000000   10.000000    ( 0.0000,  0.0000,  0.0000)
   1 Li     2.467803    1.424787   11.007476    ( 0.0000,  0.0000,  0.0000)
   2 Li     4.935605    2.849573   12.014952    ( 0.0000,  0.0000,  0.0000)
   3 Li     0.000000    0.000000   13.022429    ( 0.0000,  0.0000,  0.0000)
   4 Li     2.459516    1.423164   13.956656    ( 0.0000,  0.0000,  0.0000)
   5 Li     4.931783    2.858481   15.037830    ( 0.0000,  0.0000,  0.0000)
   6 Li     0.005047   -0.003695   15.864359    ( 0.0000,  0.0000,  0.0000)
   7 Li     2.514371    1.409216   16.830390    ( 0.0000,  0.0000,  0.0000)
   8 Li     2.467803    4.274360   10.000000    ( 0.0000,  0.0000,  0.0000)
   9 Li     4.935605    5.699146   11.007476    ( 0.0000,  0.0000,  0.0000)
  10 Li     7.403408    7.123933   12.014952    ( 0.0000,  0.0000,  0.0000)
  11 Li     2.467803    4.274360   13.022429    ( 0.0000,  0.0000,  0.0000)
  12 Li     4.933569    5.701498   13.649873    ( 0.0000,  0.0000,  0.0000)
  13 Li     7.394525    7.119261   15.042172    ( 0.0000,  0.0000,  0.0000)
  14 Li     2.466169    4.277345   15.929751    ( 0.0000,  0.0000,  0.0000)
  15 Li     4.941477    5.697452   16.193484    ( 0.0000,  0.0000,  0.0000)
  16 Li     4.935605    8.548719   10.000000    ( 0.0000,  0.0000,  0.0000)
  17 Li     7.403408    9.973506   11.007476    ( 0.0000,  0.0000,  0.0000)
  18 Li     9.871211   11.398292   12.014952    ( 0.0000,  0.0000,  0.0000)
  19 Li     4.935605    8.548719   13.022429    ( 0.0000,  0.0000,  0.0000)
  20 Li     7.399015    9.979917   14.031682    ( 0.0000,  0.0000,  0.0000)
  21 Li     9.871072   11.399308   15.072686    ( 0.0000,  0.0000,  0.0000)
  22 Li     4.933041    8.547942   15.915754    ( 0.0000,  0.0000,  0.0000)
  23 Li     7.450778    9.937038   16.981196    ( 0.0000,  0.0000,  0.0000)
  24 Li     4.935605    0.000000   10.000000    ( 0.0000,  0.0000,  0.0000)
  25 Li     7.403408    1.424787   11.007476    ( 0.0000,  0.0000,  0.0000)
  26 Li     9.871211    2.849573   12.014952    ( 0.0000,  0.0000,  0.0000)
  27 Li     4.935605    0.000000   13.022429    ( 0.0000,  0.0000,  0.0000)
  28 Li     7.410612    1.420964   14.031058    ( 0.0000,  0.0000,  0.0000)
  29 Li     9.875002    2.846881   15.092922    ( 0.0000,  0.0000,  0.0000)
  30 Li     4.934846    0.022848   15.819929    ( 0.0000,  0.0000,  0.0000)
  31 Li     7.352726    1.417193   16.980901    ( 0.0000,  0.0000,  0.0000)
  32 Li     7.403408    4.274360   10.000000    ( 0.0000,  0.0000,  0.0000)
  33 Li     9.871211    5.699146   11.007476    ( 0.0000,  0.0000,  0.0000)
  34 Li    12.339013    7.123933   12.014952    ( 0.0000,  0.0000,  0.0000)
  35 Li     7.403408    4.274360   13.022429    ( 0.0000,  0.0000,  0.0000)
  36 Li     9.876533    5.694728   14.026420    ( 0.0000,  0.0000,  0.0000)
  37 Li    12.336327    7.126409   15.082122    ( 0.0000,  0.0000,  0.0000)
  38 Li     7.396840    4.272192   15.909302    ( 0.0000,  0.0000,  0.0000)
  39 Li     9.862124    5.749446   16.970927    ( 0.0000,  0.0000,  0.0000)
  40 Li     9.871211    8.548719   10.000000    ( 0.0000,  0.0000,  0.0000)
  41 Li    12.339013    9.973506   11.007476    ( 0.0000,  0.0000,  0.0000)
  42 Li    14.806816   11.398292   12.014952    ( 0.0000,  0.0000,  0.0000)
  43 Li     9.871211    8.548719   13.022429    ( 0.0000,  0.0000,  0.0000)
  44 Li    12.340645    9.972174   14.006650    ( 0.0000,  0.0000,  0.0000)
  45 Li    14.803375   11.396402   15.084171    ( 0.0000,  0.0000,  0.0000)
  46 Li     9.849875    8.541560   15.799159    ( 0.0000,  0.0000,  0.0000)
  47 Li    12.329193    9.969404   16.932638    ( 0.0000,  0.0000,  0.0000)
  48 Li     9.871211    0.000000   10.000000    ( 0.0000,  0.0000,  0.0000)
  49 Li    12.339013    1.424787   11.007476    ( 0.0000,  0.0000,  0.0000)
  50 Li    14.806816    2.849573   12.014952    ( 0.0000,  0.0000,  0.0000)
  51 Li     9.871211    0.000000   13.022429    ( 0.0000,  0.0000,  0.0000)
  52 Li    12.336147    1.424641   14.022712    ( 0.0000,  0.0000,  0.0000)
  53 Li    14.798408    2.847482   15.085461    ( 0.0000,  0.0000,  0.0000)
  54 Li     9.860836   -0.002419   15.852708    ( 0.0000,  0.0000,  0.0000)
  55 Li    12.336581    1.436825   16.943156    ( 0.0000,  0.0000,  0.0000)
  56 Li    12.339013    4.274360   10.000000    ( 0.0000,  0.0000,  0.0000)
  57 Li    14.806816    5.699146   11.007476    ( 0.0000,  0.0000,  0.0000)
  58 Li    17.274619    7.123933   12.014952    ( 0.0000,  0.0000,  0.0000)
  59 Li    12.339013    4.274360   13.022429    ( 0.0000,  0.0000,  0.0000)
  60 Li    14.799390    5.697126   14.030027    ( 0.0000,  0.0000,  0.0000)
  61 Li    17.277292    7.122402   15.043545    ( 0.0000,  0.0000,  0.0000)
  62 Li    12.341145    4.282274   15.843641    ( 0.0000,  0.0000,  0.0000)
  63 Li    14.805429    5.744263   16.979245    ( 0.0000,  0.0000,  0.0000)
  64 Li    14.806816    8.548719   10.000000    ( 0.0000,  0.0000,  0.0000)
  65 Li    17.274619    9.973506   11.007476    ( 0.0000,  0.0000,  0.0000)
  66 Li    19.742421   11.398292   12.014952    ( 0.0000,  0.0000,  0.0000)
  67 Li    14.806816    8.548719   13.022429    ( 0.0000,  0.0000,  0.0000)
  68 Li    17.273508    9.980951   14.028878    ( 0.0000,  0.0000,  0.0000)
  69 Li    19.736704   11.405551   15.096481    ( 0.0000,  0.0000,  0.0000)
  70 Li    14.824066    8.536070   15.806940    ( 0.0000,  0.0000,  0.0000)
  71 Li    17.231399    9.941704   16.971720    ( 0.0000,  0.0000,  0.0000)
  72 Li     4.532542    4.987108   18.619680    ( 0.0000,  0.0000,  0.0000)

Unit cell:
           periodic     x           y           z      points  spacing
  1. axis:    yes   14.806816    0.000000    0.000000    49     0.2617
  2. axis:    yes    7.403408   12.823079    0.000000    49     0.2617
  3. axis:    no     0.000000    0.000000   27.052334    90     0.3006

  Lengths:  14.806816  14.806816  27.052334
  Angles:   90.000000  90.000000  60.000000

Effective grid spacing dv^(1/3) = 0.2875

     iter     time        total  log10-change:
                         energy   eigst   dens
iter:   1 18:57:20  -125.224336   -4.72
iter:   2 18:57:27  -125.223974   -5.46c -2.67
iter:   3 18:57:35  -125.223900c  -5.32c -3.00
iter:   4 18:57:41  -125.223845c  -5.97c -3.33
iter:   5 18:57:47  -125.223832c  -5.86c -3.50
iter:   6 18:57:52  -125.223793c  -5.87c -3.58
iter:   7 18:57:57  -125.223786c  -6.40c -3.79
iter:   8 18:58:02  -125.223776c  -5.93c -3.91
iter:   9 18:58:07  -125.223766c  -6.20c -4.20c

Converged after 9 iterations.

Dipole moment: (-9.892401, -5.142653, 0.299739) |e|*Ang

Energy contributions relative to reference atoms: (reference = -14803.510878)

Kinetic:        +99.428196
Potential:      -89.012357
External:        +0.000000
XC:            -134.604307
Entropy (-ST):   -1.154494
Local:           -0.458051
SIC:             +0.000000
--------------------------
Free energy:   -125.801012
Extrapolated:  -125.223766

Showing all kpts
 Kpt  Band  Eigenvalues  Occupancy
  0    34     -1.81840    1.09003
  0    35     -1.77765    0.88702
  0    36     -1.75481    0.77621
  0    37     -1.71267    0.58772

  1    34     -1.94093    1.60623
  1    35     -1.93745    1.59511
  1    36     -1.83812    1.18666
  1    37     -1.74006    0.70741


Fermi level: -1.80034

No gap
No difference between direct/indirect transitions

Forces in eV/Ang:
  0 Li    0.00104    0.00018    0.04058
  1 Li   -0.00354   -0.00500    0.14343
  2 Li    0.00399   -0.01178   -0.08119
  3 Li   -0.00968    0.00032   -0.16599
  4 Li   -0.00883   -0.00804    0.04439
  5 Li   -0.01331    0.01831    0.05271
  6 Li   -0.00632   -0.01631   -0.02698
  7 Li   -0.00059    0.05158    0.11426
  8 Li   -0.00720   -0.00311    0.07814
  9 Li    0.00268    0.00277   -0.11513
 10 Li    0.01815    0.00971   -0.09227
 11 Li   -0.01688   -0.00247   -0.08359
 12 Li    0.00712    0.01278    0.00209
 13 Li    0.01204    0.00579   -0.03574
 14 Li    0.00672    0.00969    0.03662
 15 Li    0.04712    0.11126   -0.11203
 16 Li   -0.00029    0.00387    0.07254
 17 Li   -0.00329   -0.00005    0.18489
 18 Li    0.00463    0.00142   -0.06713
 19 Li   -0.00341    0.01123   -0.08332
 20 Li   -0.00397    0.00202    0.03503
 21 Li    0.00432    0.00520   -0.00973
 22 Li   -0.00399    0.04768   -0.01061
 23 Li   -0.00608    0.01480   -0.01619
 24 Li   -0.00272    0.00329    0.04392
 25 Li    0.00556   -0.00347    0.18349
 26 Li    0.00510   -0.00343   -0.06038
 27 Li    0.00469   -0.00013   -0.18753
 28 Li    0.00850   -0.00620    0.02481
 29 Li   -0.00831    0.00011   -0.00702
 30 Li    0.02393   -0.05244   -0.02283
 31 Li    0.00352    0.01913    0.00021
 32 Li    0.00457   -0.00145    0.07265
 33 Li   -0.00172   -0.00344    0.18253
 34 Li    0.00624    0.00173   -0.05680
 35 Li    0.00834   -0.00716   -0.08918
 36 Li   -0.00115   -0.00497    0.03251
 37 Li    0.00128    0.00178   -0.00092
 38 Li    0.01148   -0.02694    0.03402
 39 Li    0.00373   -0.01291   -0.00608
 40 Li   -0.00540   -0.00214    0.03409
 41 Li    0.00271    0.00294    0.18247
 42 Li    0.00259    0.00138   -0.05512
 43 Li   -0.00188    0.00041   -0.21229
 44 Li    0.00146    0.00275    0.03116
 45 Li   -0.00773   -0.00175   -0.00030
 46 Li    0.03047    0.01241    0.00413
 47 Li    0.00424   -0.00144   -0.00518
 48 Li    0.00037    0.00015    0.04219
 49 Li   -0.00248   -0.00054    0.17828
 50 Li   -0.00271    0.00089   -0.06960
 51 Li    0.00376    0.00201   -0.17874
 52 Li   -0.00290   -0.00227    0.02864
 53 Li    0.01200   -0.00294   -0.01726
 54 Li   -0.01163   -0.00206   -0.00028
 55 Li   -0.00495   -0.00376    0.00741
 56 Li    0.00008   -0.00042    0.03642
 57 Li   -0.00284    0.00079    0.18215
 58 Li   -0.01422    0.01192   -0.08580
 59 Li    0.00087   -0.00549   -0.18267
 60 Li   -0.00392   -0.00385    0.02348
 61 Li    0.00083   -0.00980    0.00160
 62 Li   -0.00529    0.01635   -0.00055
 63 Li    0.02895   -0.01870    0.00914
 64 Li    0.00318   -0.00446    0.04009
 65 Li    0.00127    0.00268    0.18548
 66 Li   -0.00162    0.00454   -0.05821
 67 Li    0.00210    0.00025   -0.20580
 68 Li    0.00120    0.00552    0.03072
 69 Li   -0.00165   -0.00864   -0.00355
 70 Li   -0.03717    0.02025    0.00019
 71 Li    0.00487    0.01368   -0.00727
 72 Li   -0.08812   -0.19629    0.01730

System changes: positions 

Initializing position-dependent things.

Density initialized from wave functions
                                                                       
                                                                       
                                                                       
                                                                       
                                                                       
                                                                       
                                                                       
                     Li        Li          Li          Li              
                                      Li          Li          Li       
                        Li         Lii         Lii                     
                      Li       Li          Li          Li              
                Li          Lii         Lii          Li                
              Li        LiLi        LiLi        LiLi          Li       
                     Lii         LiLi        LiLi                      
       Li          Li          Li          Li          Li              
              LiLi        LiLii       LiLii          Li                
                        Li          Li          Li                     
       Li          LiLii       LiLii         LiLi                      
                                                                       
              LiLi        LiLi        LiLi                             
                                                                       
       Li          Li          Li                                      
                                                                       
                                                                       
                                                                       
                                                                       

Atomic positions and initial magnetic moments

Positions:
   0 Li     0.000000    0.000000   10.000000    ( 0.0000,  0.0000,  0.0000)
   1 Li     2.467803    1.424787   11.007476    ( 0.0000,  0.0000,  0.0000)
   2 Li     4.935605    2.849573   12.014952    ( 0.0000,  0.0000,  0.0000)
   3 Li     0.000000    0.000000   13.022429    ( 0.0000,  0.0000,  0.0000)
   4 Li     2.459233    1.422920   13.958852    ( 0.0000,  0.0000,  0.0000)
   5 Li     4.931401    2.859081   15.039417    ( 0.0000,  0.0000,  0.0000)
   6 Li     0.004860   -0.004206   15.863388    ( 0.0000,  0.0000,  0.0000)
   7 Li     2.514463    1.410764   16.835603    ( 0.0000,  0.0000,  0.0000)
   8 Li     2.467803    4.274360   10.000000    ( 0.0000,  0.0000,  0.0000)
   9 Li     4.935605    5.699146   11.007476    ( 0.0000,  0.0000,  0.0000)
  10 Li     7.403408    7.123933   12.014952    ( 0.0000,  0.0000,  0.0000)
  11 Li     2.467803    4.274360   13.022429    ( 0.0000,  0.0000,  0.0000)
  12 Li     4.933796    5.701881   13.649169    ( 0.0000,  0.0000,  0.0000)
  13 Li     7.394862    7.119428   15.041006    ( 0.0000,  0.0000,  0.0000)
  14 Li     2.466369    4.277645   15.930863    ( 0.0000,  0.0000,  0.0000)
  15 Li     4.942843    5.700948   16.188127    ( 0.0000,  0.0000,  0.0000)
  16 Li     4.935605    8.548719   10.000000    ( 0.0000,  0.0000,  0.0000)
  17 Li     7.403408    9.973506   11.007476    ( 0.0000,  0.0000,  0.0000)
  18 Li     9.871211   11.398292   12.014952    ( 0.0000,  0.0000,  0.0000)
  19 Li     4.935605    8.548719   13.022429    ( 0.0000,  0.0000,  0.0000)
  20 Li     7.398904    9.979998   14.032761    ( 0.0000,  0.0000,  0.0000)
  21 Li     9.871211   11.399460   15.072473    ( 0.0000,  0.0000,  0.0000)
  22 Li     4.932902    8.549370   15.915585    ( 0.0000,  0.0000,  0.0000)
  23 Li     7.450571    9.937459   16.980703    ( 0.0000,  0.0000,  0.0000)
  24 Li     4.935605    0.000000   10.000000    ( 0.0000,  0.0000,  0.0000)
  25 Li     7.403408    1.424787   11.007476    ( 0.0000,  0.0000,  0.0000)
  26 Li     9.871211    2.849573   12.014952    ( 0.0000,  0.0000,  0.0000)
  27 Li     4.935605    0.000000   13.022429    ( 0.0000,  0.0000,  0.0000)
  28 Li     7.410885    1.420783   14.031815    ( 0.0000,  0.0000,  0.0000)
  29 Li     9.874763    2.846881   15.092731    ( 0.0000,  0.0000,  0.0000)
  30 Li     4.935604    0.021298   15.818971    ( 0.0000,  0.0000,  0.0000)
  31 Li     7.352753    1.417640   16.980892    ( 0.0000,  0.0000,  0.0000)
  32 Li     7.403408    4.274360   10.000000    ( 0.0000,  0.0000,  0.0000)
  33 Li     9.871211    5.699146   11.007476    ( 0.0000,  0.0000,  0.0000)
  34 Li    12.339013    7.123933   12.014952    ( 0.0000,  0.0000,  0.0000)
  35 Li     7.403408    4.274360   13.022429    ( 0.0000,  0.0000,  0.0000)
  36 Li     9.876504    5.694566   14.027473    ( 0.0000,  0.0000,  0.0000)
  37 Li    12.336377    7.126479   15.082092    ( 0.0000,  0.0000,  0.0000)
  38 Li     7.397239    4.271394   15.910577    ( 0.0000,  0.0000,  0.0000)
  39 Li     9.862219    5.749167   16.970843    ( 0.0000,  0.0000,  0.0000)
  40 Li     9.871211    8.548719   10.000000    ( 0.0000,  0.0000,  0.0000)
  41 Li    12.339013    9.973506   11.007476    ( 0.0000,  0.0000,  0.0000)
  42 Li    14.806816   11.398292   12.014952    ( 0.0000,  0.0000,  0.0000)
  43 Li     9.871211    8.548719   13.022429    ( 0.0000,  0.0000,  0.0000)
  44 Li    12.340677    9.972267   14.007553    ( 0.0000,  0.0000,  0.0000)
  45 Li    14.803120   11.396372   15.084138    ( 0.0000,  0.0000,  0.0000)
  46 Li     9.850757    8.541856   15.799281    ( 0.0000,  0.0000,  0.0000)
  47 Li    12.329432    9.969409   16.932369    ( 0.0000,  0.0000,  0.0000)
  48 Li     9.871211    0.000000   10.000000    ( 0.0000,  0.0000,  0.0000)
  49 Li    12.339013    1.424787   11.007476    ( 0.0000,  0.0000,  0.0000)
  50 Li    14.806816    2.849573   12.014952    ( 0.0000,  0.0000,  0.0000)
  51 Li     9.871211    0.000000   13.022429    ( 0.0000,  0.0000,  0.0000)
  52 Li    12.336069    1.424585   14.023574    ( 0.0000,  0.0000,  0.0000)
  53 Li    14.798748    2.847395   15.085042    ( 0.0000,  0.0000,  0.0000)
  54 Li     9.860467   -0.002503   15.852696    ( 0.0000,  0.0000,  0.0000)
  55 Li    12.336409    1.436604   16.943293    ( 0.0000,  0.0000,  0.0000)
  56 Li    12.339013    4.274360   10.000000    ( 0.0000,  0.0000,  0.0000)
  57 Li    14.806816    5.699146   11.007476    ( 0.0000,  0.0000,  0.0000)
  58 Li    17.274619    7.123933   12.014952    ( 0.0000,  0.0000,  0.0000)
  59 Li    12.339013    4.274360   13.022429    ( 0.0000,  0.0000,  0.0000)
  60 Li    14.799260    5.696984   14.030749    ( 0.0000,  0.0000,  0.0000)
  61 Li    17.277355    7.122070   15.043482    ( 0.0000,  0.0000,  0.0000)
  62 Li    12.340932    4.282830   15.843724    ( 0.0000,  0.0000,  0.0000)
  63 Li    14.806419    5.743882   16.979519    ( 0.0000,  0.0000,  0.0000)
  64 Li    14.806816    8.548719   10.000000    ( 0.0000,  0.0000,  0.0000)
  65 Li    17.274619    9.973506   11.007476    ( 0.0000,  0.0000,  0.0000)
  66 Li    19.742421   11.398292   12.014952    ( 0.0000,  0.0000,  0.0000)
  67 Li    14.806816    8.548719   13.022429    ( 0.0000,  0.0000,  0.0000)
  68 Li    17.273551    9.981141   14.029838    ( 0.0000,  0.0000,  0.0000)
  69 Li    19.736674   11.405306   15.096368    ( 0.0000,  0.0000,  0.0000)
  70 Li    14.823001    8.536679   15.806834    ( 0.0000,  0.0000,  0.0000)
  71 Li    17.231473    9.942055   16.971575    ( 0.0000,  0.0000,  0.0000)
  72 Li     4.534452    4.989120   18.620373    ( 0.0000,  0.0000,  0.0000)

Unit cell:
           periodic     x           y           z      points  spacing
  1. axis:    yes   14.806816    0.000000    0.000000    49     0.2617
  2. axis:    yes    7.403408   12.823079    0.000000    49     0.2617
  3. axis:    no     0.000000    0.000000   27.052334    90     0.3006

  Lengths:  14.806816  14.806816  27.052334
  Angles:   90.000000  90.000000  60.000000

Effective grid spacing dv^(1/3) = 0.2875

     iter     time        total  log10-change:
                         energy   eigst   dens
iter:   1 19:02:08  -125.226629   -4.56
iter:   2 19:02:13  -125.226131   -5.42c -2.61
iter:   3 19:02:18  -125.226002c  -5.18  -2.91
iter:   4 19:02:23  -125.225928c  -5.90c -3.21
iter:   5 19:02:29  -125.225905c  -5.76c -3.37
iter:   6 19:02:34  -125.225864c  -5.80c -3.48
iter:   7 19:02:39  -125.225855c  -6.32c -3.64
iter:   8 19:02:44  -125.225845c  -5.91c -3.80
iter:   9 19:02:48  -125.225835c  -6.15c -4.05c

Converged after 9 iterations.

Dipole moment: (-9.857445, -5.102636, 0.300491) |e|*Ang

Energy contributions relative to reference atoms: (reference = -14803.510878)

Kinetic:        +99.411031
Potential:      -89.000834
External:        +0.000000
XC:            -134.600596
Entropy (-ST):   -1.154717
Local:           -0.458078
SIC:             +0.000000
--------------------------
Free energy:   -125.803193
Extrapolated:  -125.225835

Showing all kpts
 Kpt  Band  Eigenvalues  Occupancy
  0    34     -1.81824    1.09022
  0    35     -1.77747    0.88709
  0    36     -1.75457    0.77598
  0    37     -1.71242    0.58749

  1    34     -1.94075    1.60628
  1    35     -1.93721    1.59496
  1    36     -1.83786    1.18639
  1    37     -1.73978    0.70700


Fermi level: -1.80014

No gap
No difference between direct/indirect transitions

Forces in eV/Ang:
  0 Li    0.00100    0.00015    0.04029
  1 Li   -0.00363   -0.00498    0.14465
  2 Li    0.00399   -0.01163   -0.08052
  3 Li   -0.00985    0.00024   -0.16672
  4 Li   -0.00821   -0.00776    0.04377
  5 Li   -0.01261    0.01742    0.05188
  6 Li   -0.00541   -0.01512   -0.02541
  7 Li   -0.00010    0.04932    0.11069
  8 Li   -0.00716   -0.00304    0.07807
  9 Li    0.00268    0.00275   -0.11589
 10 Li    0.01804    0.00968   -0.09266
 11 Li   -0.01665   -0.00239   -0.08271
 12 Li    0.00662    0.01187   -0.00315
 13 Li    0.01272    0.00614   -0.03481
 14 Li    0.00782    0.01000    0.03588
 15 Li    0.04482    0.10601   -0.09736
 16 Li   -0.00027    0.00383    0.07253
 17 Li   -0.00331   -0.00007    0.18535
 18 Li    0.00462    0.00147   -0.06693
 19 Li   -0.00332    0.01096   -0.08262
 20 Li   -0.00376    0.00217    0.03319
 21 Li    0.00405    0.00496   -0.00895
 22 Li   -0.00374    0.04811   -0.01089
 23 Li   -0.00572    0.01440   -0.01541
 24 Li   -0.00266    0.00329    0.04373
 25 Li    0.00564   -0.00349    0.18374
 26 Li    0.00511   -0.00350   -0.06042
 27 Li    0.00471   -0.00007   -0.18832
 28 Li    0.00778   -0.00589    0.02385
 29 Li   -0.00773   -0.00011   -0.00651
 30 Li    0.02187   -0.04965   -0.02089
 31 Li    0.00328    0.01785    0.00088
 32 Li    0.00455   -0.00140    0.07272
 33 Li   -0.00176   -0.00350    0.18298
 34 Li    0.00624    0.00176   -0.05665
 35 Li    0.00823   -0.00700   -0.08795
 36 Li   -0.00091   -0.00489    0.03093
 37 Li    0.00115    0.00161   -0.00092
 38 Li    0.01068   -0.02528    0.03300
 39 Li    0.00363   -0.01242   -0.00552
 40 Li   -0.00542   -0.00217    0.03399
 41 Li    0.00271    0.00297    0.18287
 42 Li    0.00256    0.00145   -0.05489
 43 Li   -0.00199    0.00035   -0.21203
 44 Li    0.00147    0.00273    0.02973
 45 Li   -0.00688   -0.00195   -0.00045
 46 Li    0.02946    0.01215    0.00433
 47 Li    0.00411   -0.00140   -0.00408
 48 Li    0.00041    0.00019    0.04209
 49 Li   -0.00249   -0.00054    0.17862
 50 Li   -0.00272    0.00080   -0.06968
 51 Li    0.00382    0.00199   -0.17863
 52 Li   -0.00281   -0.00212    0.02735
 53 Li    0.01156   -0.00262   -0.01593
 54 Li   -0.01130   -0.00193   -0.00021
 55 Li   -0.00478   -0.00371    0.00755
 56 Li    0.00006   -0.00043    0.03632
 57 Li   -0.00284    0.00070    0.18250
 58 Li   -0.01404    0.01190   -0.08580
 59 Li    0.00076   -0.00565   -0.18249
 60 Li   -0.00378   -0.00365    0.02261
 61 Li   -0.00007   -0.00851    0.00145
 62 Li   -0.00475    0.01542   -0.00036
 63 Li    0.02803   -0.01805    0.00924
 64 Li    0.00316   -0.00446    0.04000
 65 Li    0.00129    0.00271    0.18593
 66 Li   -0.00160    0.00447   -0.05812
 67 Li    0.00211    0.00025   -0.20575
 68 Li    0.00097    0.00531    0.02929
 69 Li   -0.00198   -0.00739   -0.00333
 70 Li   -0.03562    0.01927    0.00063
 71 Li    0.00430    0.01343   -0.00668
 72 Li   -0.08640   -0.19365    0.00799

System changes: positions 

Initializing position-dependent things.

Density initialized from wave functions
                                                                       
                                                                       
                                                                       
                                                                       
                                                                       
                                                                       
                                                                       
                     Li        Li          Li          Li              
                                      Li          Li          Li       
                        Li         Lii         Lii                     
                      Li       Li          Li          Li              
                Li          Lii         Lii          Li                
              Li        LiLi        LiLi        LiLi          Li       
                     Lii         LiLi        LiLi                      
       Li          Li          Li          Li          Li              
              LiLi        LiLii       LiLii          Li                
                        Li          Li          Li                     
       Li          LiLii       LiLii         LiLi                      
                                                                       
              LiLi        LiLi        LiLi                             
                                                                       
       Li          Li          Li                                      
                                                                       
                                                                       
                                                                       
                                                                       

Atomic positions and initial magnetic moments

Positions:
   0 Li     0.000000    0.000000   10.000000    ( 0.0000,  0.0000,  0.0000)
   1 Li     2.467803    1.424787   11.007476    ( 0.0000,  0.0000,  0.0000)
   2 Li     4.935605    2.849573   12.014952    ( 0.0000,  0.0000,  0.0000)
   3 Li     0.000000    0.000000   13.022429    ( 0.0000,  0.0000,  0.0000)
   4 Li     2.458868    1.422602   13.961773    ( 0.0000,  0.0000,  0.0000)
   5 Li     4.930907    2.859863   15.041512    ( 0.0000,  0.0000,  0.0000)
   6 Li     0.004632   -0.004863   15.862126    ( 0.0000,  0.0000,  0.0000)
   7 Li     2.514595    1.412780   16.842490    ( 0.0000,  0.0000,  0.0000)
   8 Li     2.467803    4.274360   10.000000    ( 0.0000,  0.0000,  0.0000)
   9 Li     4.935605    5.699146   11.007476    ( 0.0000,  0.0000,  0.0000)
  10 Li     7.403408    7.123933   12.014952    ( 0.0000,  0.0000,  0.0000)
  11 Li     2.467803    4.274360   13.022429    ( 0.0000,  0.0000,  0.0000)
  12 Li     4.934089    5.702373   13.648115    ( 0.0000,  0.0000,  0.0000)
  13 Li     7.395325    7.119657   15.039469    ( 0.0000,  0.0000,  0.0000)
  14 Li     2.466658    4.278051   15.932337    ( 0.0000,  0.0000,  0.0000)
  15 Li     4.944621    5.705509   16.181235    ( 0.0000,  0.0000,  0.0000)
  16 Li     4.935605    8.548719   10.000000    ( 0.0000,  0.0000,  0.0000)
  17 Li     7.403408    9.973506   11.007476    ( 0.0000,  0.0000,  0.0000)
  18 Li     9.871211   11.398292   12.014952    ( 0.0000,  0.0000,  0.0000)
  19 Li     4.935605    8.548719   13.022429    ( 0.0000,  0.0000,  0.0000)
  20 Li     7.398760    9.980109   14.034164    ( 0.0000,  0.0000,  0.0000)
  21 Li     9.871391   11.399656   15.072206    ( 0.0000,  0.0000,  0.0000)
  22 Li     4.932720    8.551282   15.915359    ( 0.0000,  0.0000,  0.0000)
  23 Li     7.450301    9.938012   16.980061    ( 0.0000,  0.0000,  0.0000)
  24 Li     4.935605    0.000000   10.000000    ( 0.0000,  0.0000,  0.0000)
  25 Li     7.403408    1.424787   11.007476    ( 0.0000,  0.0000,  0.0000)
  26 Li     9.871211    2.849573   12.014952    ( 0.0000,  0.0000,  0.0000)
  27 Li     4.935605    0.000000   13.022429    ( 0.0000,  0.0000,  0.0000)
  28 Li     7.411234    1.420548   14.032806    ( 0.0000,  0.0000,  0.0000)
  29 Li     9.874455    2.846876   15.092486    ( 0.0000,  0.0000,  0.0000)
  30 Li     4.936571    0.019285   15.817733    ( 0.0000,  0.0000,  0.0000)
  31 Li     7.352784    1.418210   16.980894    ( 0.0000,  0.0000,  0.0000)
  32 Li     7.403408    4.274360   10.000000    ( 0.0000,  0.0000,  0.0000)
  33 Li     9.871211    5.699146   11.007476    ( 0.0000,  0.0000,  0.0000)
  34 Li    12.339013    7.123933   12.014952    ( 0.0000,  0.0000,  0.0000)
  35 Li     7.403408    4.274360   13.022429    ( 0.0000,  0.0000,  0.0000)
  36 Li     9.876470    5.694352   14.028846    ( 0.0000,  0.0000,  0.0000)
  37 Li    12.336440    7.126569   15.082051    ( 0.0000,  0.0000,  0.0000)
  38 Li     7.397754    4.270363   15.912263    ( 0.0000,  0.0000,  0.0000)
  39 Li     9.862343    5.748805   16.970743    ( 0.0000,  0.0000,  0.0000)
  40 Li     9.871211    8.548719   10.000000    ( 0.0000,  0.0000,  0.0000)
  41 Li    12.339013    9.973506   11.007476    ( 0.0000,  0.0000,  0.0000)
  42 Li    14.806816   11.398292   12.014952    ( 0.0000,  0.0000,  0.0000)
  43 Li     9.871211    8.548719   13.022429    ( 0.0000,  0.0000,  0.0000)
  44 Li    12.340721    9.972392   14.008730    ( 0.0000,  0.0000,  0.0000)
  45 Li    14.802797   11.396329   15.084092    ( 0.0000,  0.0000,  0.0000)
  46 Li     9.851914    8.542247   15.799448    ( 0.0000,  0.0000,  0.0000)
  47 Li    12.329749    9.969416   16.932030    ( 0.0000,  0.0000,  0.0000)
  48 Li     9.871211    0.000000   10.000000    ( 0.0000,  0.0000,  0.0000)
  49 Li    12.339013    1.424787   11.007476    ( 0.0000,  0.0000,  0.0000)
  50 Li    14.806816    2.849573   12.014952    ( 0.0000,  0.0000,  0.0000)
  51 Li     9.871211    0.000000   13.022429    ( 0.0000,  0.0000,  0.0000)
  52 Li    12.335967    1.424512   14.024697    ( 0.0000,  0.0000,  0.0000)
  53 Li    14.799192    2.847285   15.084512    ( 0.0000,  0.0000,  0.0000)
  54 Li     9.859981   -0.002614   15.852683    ( 0.0000,  0.0000,  0.0000)
  55 Li    12.336184    1.436308   16.943478    ( 0.0000,  0.0000,  0.0000)
  56 Li    12.339013    4.274360   10.000000    ( 0.0000,  0.0000,  0.0000)
  57 Li    14.806816    5.699146   11.007476    ( 0.0000,  0.0000,  0.0000)
  58 Li    17.274619    7.123933   12.014952    ( 0.0000,  0.0000,  0.0000)
  59 Li    12.339013    4.274360   13.022429    ( 0.0000,  0.0000,  0.0000)
  60 Li    14.799089    5.696798   14.031693    ( 0.0000,  0.0000,  0.0000)
  61 Li    17.277420    7.121654   15.043395    ( 0.0000,  0.0000,  0.0000)
  62 Li    12.340659    4.283552   15.843839    ( 0.0000,  0.0000,  0.0000)
  63 Li    14.807720    5.743389   16.979885    ( 0.0000,  0.0000,  0.0000)
  64 Li    14.806816    8.548719   10.000000    ( 0.0000,  0.0000,  0.0000)
  65 Li    17.274619    9.973506   11.007476    ( 0.0000,  0.0000,  0.0000)
  66 Li    19.742421   11.398292   12.014952    ( 0.0000,  0.0000,  0.0000)
  67 Li    14.806816    8.548719   13.022429    ( 0.0000,  0.0000,  0.0000)
  68 Li    17.273605    9.981390   14.031091    ( 0.0000,  0.0000,  0.0000)
  69 Li    19.736628   11.405005   15.096222    ( 0.0000,  0.0000,  0.0000)
  70 Li    14.821610    8.537474   15.806703    ( 0.0000,  0.0000,  0.0000)
  71 Li    17.231561    9.942518   16.971394    ( 0.0000,  0.0000,  0.0000)
  72 Li     4.537062    4.991913   18.621131    ( 0.0000,  0.0000,  0.0000)

Unit cell:
           periodic     x           y           z      points  spacing
  1. axis:    yes   14.806816    0.000000    0.000000    49     0.2617
  2. axis:    yes    7.403408   12.823079    0.000000    49     0.2617
  3. axis:    no     0.000000    0.000000   27.052334    90     0.3006

  Lengths:  14.806816  14.806816  27.052334
  Angles:   90.000000  90.000000  60.000000

Effective grid spacing dv^(1/3) = 0.2875

     iter     time        total  log10-change:
                         energy   eigst   dens
iter:   1 19:07:07  -125.229540   -4.37
iter:   2 19:07:12  -125.228734   -5.30c -2.51
iter:   3 19:07:17  -125.228519c  -5.02  -2.81
iter:   4 19:07:22  -125.228424c  -5.86c -3.10
iter:   5 19:07:27  -125.228388c  -5.70c -3.26
iter:   6 19:07:32  -125.228353c  -5.82c -3.40
iter:   7 19:07:37  -125.228344c  -6.42c -3.55
iter:   8 19:07:43  -125.228338c  -6.03c -3.70
iter:   9 19:07:48  -125.228333c  -6.30c -3.94
iter:  10 19:07:53  -125.228328c  -6.15c -3.96
iter:  11 19:07:59  -125.228315c  -6.17c -3.93
iter:  12 19:08:04  -125.228310c  -6.63c -4.33c

Converged after 12 iterations.

Dipole moment: (-9.811462, -5.050291, 0.301248) |e|*Ang

Energy contributions relative to reference atoms: (reference = -14803.510878)

Kinetic:        +99.385061
Potential:      -88.982788
External:        +0.000000
XC:            -134.595086
Entropy (-ST):   -1.154888
Local:           -0.458054
SIC:             +0.000000
--------------------------
Free energy:   -125.805754
Extrapolated:  -125.228310

Showing all kpts
 Kpt  Band  Eigenvalues  Occupancy
  0    34     -1.81805    1.09031
  0    35     -1.77730    0.88731
  0    36     -1.75429    0.77568
  0    37     -1.71211    0.58708

  1    34     -1.94058    1.60641
  1    35     -1.93695    1.59480
  1    36     -1.83758    1.18605
  1    37     -1.73946    0.70650


Fermi level: -1.79994

No gap
No difference between direct/indirect transitions

Forces in eV/Ang:
  0 Li    0.00096    0.00018    0.04010
  1 Li   -0.00374   -0.00499    0.14613
  2 Li    0.00391   -0.01164   -0.07932
  3 Li   -0.00985    0.00036   -0.16765
  4 Li   -0.00722   -0.00726    0.04384
  5 Li   -0.01224    0.01636    0.05097
  6 Li   -0.00408   -0.01329   -0.02358
  7 Li    0.00079    0.04684    0.10522
  8 Li   -0.00727   -0.00304    0.07802
  9 Li    0.00256    0.00269   -0.11697
 10 Li    0.01813    0.00977   -0.09332
 11 Li   -0.01646   -0.00276   -0.08148
 12 Li    0.00589    0.01029   -0.00945
 13 Li    0.01405    0.00660   -0.03336
 14 Li    0.00977    0.01055    0.03490
 15 Li    0.04183    0.09914   -0.07936
 16 Li   -0.00020    0.00381    0.07263
 17 Li   -0.00332    0.00002    0.18602
 18 Li    0.00467    0.00155   -0.06685
 19 Li   -0.00337    0.01131   -0.08265
 20 Li   -0.00332    0.00224    0.03058
 21 Li    0.00380    0.00534   -0.00792
 22 Li   -0.00350    0.04836   -0.01083
 23 Li   -0.00502    0.01393   -0.01412
 24 Li   -0.00258    0.00308    0.04363
 25 Li    0.00571   -0.00363    0.18417
 26 Li    0.00512   -0.00350   -0.06046
 27 Li    0.00452    0.00034   -0.18911
 28 Li    0.00669   -0.00533    0.02246
 29 Li   -0.00690   -0.00042   -0.00610
 30 Li    0.01918   -0.04596   -0.01883
 31 Li    0.00267    0.01630    0.00191
 32 Li    0.00461   -0.00142    0.07279
 33 Li   -0.00171   -0.00358    0.18352
 34 Li    0.00623    0.00190   -0.05654
 35 Li    0.00828   -0.00723   -0.08661
 36 Li   -0.00071   -0.00480    0.02891
 37 Li    0.00119    0.00122   -0.00102
 38 Li    0.00928   -0.02316    0.03157
 39 Li    0.00349   -0.01169   -0.00473
 40 Li   -0.00529   -0.00208    0.03388
 41 Li    0.00273    0.00304    0.18332
 42 Li    0.00243    0.00152   -0.05487
 43 Li   -0.00202    0.00029   -0.21184
 44 Li    0.00142    0.00262    0.02731
 45 Li   -0.00573   -0.00209   -0.00077
 46 Li    0.02788    0.01168    0.00458
 47 Li    0.00384   -0.00111   -0.00225
 48 Li    0.00039    0.00028    0.04195
 49 Li   -0.00244   -0.00053    0.17894
 50 Li   -0.00263    0.00070   -0.06971
 51 Li    0.00386    0.00203   -0.17865
 52 Li   -0.00267   -0.00172    0.02587
 53 Li    0.01110   -0.00243   -0.01445
 54 Li   -0.01093   -0.00160   -0.00010
 55 Li   -0.00431   -0.00347    0.00760
 56 Li    0.00006   -0.00053    0.03621
 57 Li   -0.00283    0.00055    0.18289
 58 Li   -0.01402    0.01191   -0.08581
 59 Li    0.00067   -0.00589   -0.18229
 60 Li   -0.00353   -0.00346    0.02166
 61 Li   -0.00153   -0.00703    0.00144
 62 Li   -0.00377    0.01414   -0.00019
 63 Li    0.02705   -0.01732    0.00924
 64 Li    0.00297   -0.00434    0.03989
 65 Li    0.00127    0.00278    0.18659
 66 Li   -0.00149    0.00431   -0.05812
 67 Li    0.00217    0.00018   -0.20573
 68 Li    0.00055    0.00491    0.02734
 69 Li   -0.00252   -0.00574   -0.00331
 70 Li   -0.03343    0.01775    0.00108
 71 Li    0.00348    0.01296   -0.00578
 72 Li   -0.08465   -0.19103   -0.00280

System changes: positions 

Initializing position-dependent things.

Density initialized from wave functions
                                                                       
                                                                       
                                                                       
                                                                       
                                                                       
                                                                       
                                                                       
                     Li        Li          Li          Li              
                                      Li          Li          Li       
                        Li         Lii         Lii                     
                      Li       Li          Li          Li              
                Li          Lii         Lii          Li                
              Li        LiLi        LiLi        LiLi          Li       
                     Lii         LiLi        LiLi                      
       Li          Li          Li          Li          Li              
              LiLi        LiLii       LiLii          Li                
                        Li          Li          Li                     
       Li          LiLii       LiLii         LiLi                      
                                                                       
              LiLi        LiLi        LiLi                             
                                                                       
       Li          Li          Li                                      
                                                                       
                                                                       
                                                                       
                                                                       

Atomic positions and initial magnetic moments

Positions:
   0 Li     0.000000    0.000000   10.000000    ( 0.0000,  0.0000,  0.0000)
   1 Li     2.467803    1.424787   11.007476    ( 0.0000,  0.0000,  0.0000)
   2 Li     4.935605    2.849573   12.014952    ( 0.0000,  0.0000,  0.0000)
   3 Li     0.000000    0.000000   13.022429    ( 0.0000,  0.0000,  0.0000)
   4 Li     2.458435    1.422216   13.965431    ( 0.0000,  0.0000,  0.0000)
   5 Li     4.930309    2.860812   15.044102    ( 0.0000,  0.0000,  0.0000)
   6 Li     0.004382   -0.005640   15.860598    ( 0.0000,  0.0000,  0.0000)
   7 Li     2.514781    1.415228   16.850985    ( 0.0000,  0.0000,  0.0000)
   8 Li     2.467803    4.274360   10.000000    ( 0.0000,  0.0000,  0.0000)
   9 Li     4.935605    5.699146   11.007476    ( 0.0000,  0.0000,  0.0000)
  10 Li     7.403408    7.123933   12.014952    ( 0.0000,  0.0000,  0.0000)
  11 Li     2.467803    4.274360   13.022429    ( 0.0000,  0.0000,  0.0000)
  12 Li     4.934437    5.702952   13.646611    ( 0.0000,  0.0000,  0.0000)
  13 Li     7.395932    7.119955   15.037580    ( 0.0000,  0.0000,  0.0000)
  14 Li     2.467068    4.278572   15.934167    ( 0.0000,  0.0000,  0.0000)
  15 Li     4.946776    5.711046   16.173014    ( 0.0000,  0.0000,  0.0000)
  16 Li     4.935605    8.548719   10.000000    ( 0.0000,  0.0000,  0.0000)
  17 Li     7.403408    9.973506   11.007476    ( 0.0000,  0.0000,  0.0000)
  18 Li     9.871211   11.398292   12.014952    ( 0.0000,  0.0000,  0.0000)
  19 Li     4.935605    8.548719   13.022429    ( 0.0000,  0.0000,  0.0000)
  20 Li     7.398588    9.980252   14.035855    ( 0.0000,  0.0000,  0.0000)
  21 Li     9.871608   11.399903   15.071902    ( 0.0000,  0.0000,  0.0000)
  22 Li     4.932498    8.553682   15.915084    ( 0.0000,  0.0000,  0.0000)
  23 Li     7.449977    9.938693   16.979287    ( 0.0000,  0.0000,  0.0000)
  24 Li     4.935605    0.000000   10.000000    ( 0.0000,  0.0000,  0.0000)
  25 Li     7.403408    1.424787   11.007476    ( 0.0000,  0.0000,  0.0000)
  26 Li     9.871211    2.849573   12.014952    ( 0.0000,  0.0000,  0.0000)
  27 Li     4.935605    0.000000   13.022429    ( 0.0000,  0.0000,  0.0000)
  28 Li     7.411646    1.420268   14.034013    ( 0.0000,  0.0000,  0.0000)
  29 Li     9.874090    2.846862   15.092192    ( 0.0000,  0.0000,  0.0000)
  30 Li     4.937710    0.016859   15.816240    ( 0.0000,  0.0000,  0.0000)
  31 Li     7.352812    1.418881   16.980920    ( 0.0000,  0.0000,  0.0000)
  32 Li     7.403408    4.274360   10.000000    ( 0.0000,  0.0000,  0.0000)
  33 Li     9.871211    5.699146   11.007476    ( 0.0000,  0.0000,  0.0000)
  34 Li    12.339013    7.123933   12.014952    ( 0.0000,  0.0000,  0.0000)
  35 Li     7.403408    4.274360   13.022429    ( 0.0000,  0.0000,  0.0000)
  36 Li     9.876435    5.694086   14.030512    ( 0.0000,  0.0000,  0.0000)
  37 Li    12.336517    7.126674   15.082000    ( 0.0000,  0.0000,  0.0000)
  38 Li     7.398367    4.269131   15.914347    ( 0.0000,  0.0000,  0.0000)
  39 Li     9.862493    5.748368   16.970640    ( 0.0000,  0.0000,  0.0000)
  40 Li     9.871211    8.548719   10.000000    ( 0.0000,  0.0000,  0.0000)
  41 Li    12.339013    9.973506   11.007476    ( 0.0000,  0.0000,  0.0000)
  42 Li    14.806816   11.398292   12.014952    ( 0.0000,  0.0000,  0.0000)
  43 Li     9.871211    8.548719   13.022429    ( 0.0000,  0.0000,  0.0000)
  44 Li    12.340776    9.972547   14.010147    ( 0.0000,  0.0000,  0.0000)
  45 Li    14.802421   11.396269   15.084028    ( 0.0000,  0.0000,  0.0000)
  46 Li     9.853327    8.542728   15.799665    ( 0.0000,  0.0000,  0.0000)
  47 Li    12.330141    9.969429   16.931647    ( 0.0000,  0.0000,  0.0000)
  48 Li     9.871211    0.000000   10.000000    ( 0.0000,  0.0000,  0.0000)
  49 Li    12.339013    1.424787   11.007476    ( 0.0000,  0.0000,  0.0000)
  50 Li    14.806816    2.849573   12.014952    ( 0.0000,  0.0000,  0.0000)
  51 Li     9.871211    0.000000   13.022429    ( 0.0000,  0.0000,  0.0000)
  52 Li    12.335844    1.424429   14.026061    ( 0.0000,  0.0000,  0.0000)
  53 Li    14.799735    2.847156   15.083891    ( 0.0000,  0.0000,  0.0000)
  54 Li     9.859383   -0.002748   15.852671    ( 0.0000,  0.0000,  0.0000)
  55 Li    12.335911    1.435941   16.943713    ( 0.0000,  0.0000,  0.0000)
  56 Li    12.339013    4.274360   10.000000    ( 0.0000,  0.0000,  0.0000)
  57 Li    14.806816    5.699146   11.007476    ( 0.0000,  0.0000,  0.0000)
  58 Li    17.274619    7.123933   12.014952    ( 0.0000,  0.0000,  0.0000)
  59 Li    12.339013    4.274360   13.022429    ( 0.0000,  0.0000,  0.0000)
  60 Li    14.798880    5.696569   14.032849    ( 0.0000,  0.0000,  0.0000)
  61 Li    17.277468    7.121174   15.043284    ( 0.0000,  0.0000,  0.0000)
  62 Li    12.340339    4.284424   15.843990    ( 0.0000,  0.0000,  0.0000)
  63 Li    14.809318    5.742796   16.980343    ( 0.0000,  0.0000,  0.0000)
  64 Li    14.806816    8.548719   10.000000    ( 0.0000,  0.0000,  0.0000)
  65 Li    17.274619    9.973506   11.007476    ( 0.0000,  0.0000,  0.0000)
  66 Li    19.742421   11.398292   12.014952    ( 0.0000,  0.0000,  0.0000)
  67 Li    14.806816    8.548719   13.022429    ( 0.0000,  0.0000,  0.0000)
  68 Li    17.273664    9.981694   14.032610    ( 0.0000,  0.0000,  0.0000)
  69 Li    19.736558   11.404668   15.096042    ( 0.0000,  0.0000,  0.0000)
  70 Li    14.819923    8.538434   15.806551    ( 0.0000,  0.0000,  0.0000)
  71 Li    17.231652    9.943086   16.971191    ( 0.0000,  0.0000,  0.0000)
  72 Li     4.540436    4.995603   18.621826    ( 0.0000,  0.0000,  0.0000)

Unit cell:
           periodic     x           y           z      points  spacing
  1. axis:    yes   14.806816    0.000000    0.000000    49     0.2617
  2. axis:    yes    7.403408   12.823079    0.000000    49     0.2617
  3. axis:    no     0.000000    0.000000   27.052334    90     0.3006

  Lengths:  14.806816  14.806816  27.052334
  Angles:   90.000000  90.000000  60.000000

Effective grid spacing dv^(1/3) = 0.2875

     iter     time        total  log10-change:
                         energy   eigst   dens
iter:   1 19:12:51  -125.233404   -4.08
iter:   2 19:12:57  -125.231676   -5.07  -2.36
iter:   3 19:13:02  -125.231258c  -4.77  -2.66
iter:   4 19:13:07  -125.231121c  -5.73c -2.98
iter:   5 19:13:12  -125.231070c  -5.57c -3.15
iter:   6 19:13:18  -125.231034c  -5.84c -3.28
iter:   7 19:13:22  -125.231025c  -6.57c -3.43
iter:   8 19:13:28  -125.231024c  -6.24c -3.59
iter:   9 19:13:33  -125.231025c  -6.58c -3.84
iter:  10 19:13:38  -125.231025c  -6.40c -3.87
iter:  11 19:13:43  -125.231014c  -6.45c -3.86
iter:  12 19:13:48  -125.231013c  -6.97c -4.23c

Converged after 12 iterations.

Dipole moment: (-9.756742, -4.987642, 0.302303) |e|*Ang

Energy contributions relative to reference atoms: (reference = -14803.510878)

Kinetic:        +99.357923
Potential:      -88.964129
External:        +0.000000
XC:            -134.589338
Entropy (-ST):   -1.154814
Local:           -0.458062
SIC:             +0.000000
--------------------------
Free energy:   -125.808420
Extrapolated:  -125.231013

Showing all kpts
 Kpt  Band  Eigenvalues  Occupancy
  0    34     -1.81775    1.09069
  0    35     -1.77696    0.88748
  0    36     -1.75383    0.77527
  0    37     -1.71165    0.58674

  1    34     -1.94023    1.60651
  1    35     -1.93650    1.59457
  1    36     -1.83716    1.18584
  1    37     -1.73896    0.70597


Fermi level: -1.79956

No gap
No difference between direct/indirect transitions

Forces in eV/Ang:
  0 Li    0.00092    0.00019    0.03975
  1 Li   -0.00385   -0.00498    0.14823
  2 Li    0.00385   -0.01160   -0.07810
  3 Li   -0.01000    0.00037   -0.16879
  4 Li   -0.00614   -0.00671    0.04298
  5 Li   -0.01135    0.01508    0.04968
  6 Li   -0.00260   -0.01130   -0.02122
  7 Li    0.00162    0.04359    0.09911
  8 Li   -0.00727   -0.00298    0.07797
  9 Li    0.00247    0.00262   -0.11863
 10 Li    0.01807    0.00977   -0.09401
 11 Li   -0.01621   -0.00287   -0.08002
 12 Li    0.00498    0.00862   -0.01653
 13 Li    0.01521    0.00711   -0.03173
 14 Li    0.01160    0.01097    0.03363
 15 Li    0.03848    0.09119   -0.05843
 16 Li   -0.00016    0.00372    0.07265
 17 Li   -0.00333    0.00007    0.18677
 18 Li    0.00467    0.00174   -0.06649
 19 Li   -0.00334    0.01118   -0.08188
 20 Li   -0.00286    0.00250    0.02761
 21 Li    0.00342    0.00513   -0.00677
 22 Li   -0.00317    0.04875   -0.01108
 23 Li   -0.00433    0.01327   -0.01280
 24 Li   -0.00255    0.00305    0.04340
 25 Li    0.00578   -0.00370    0.18472
 26 Li    0.00511   -0.00353   -0.06051
 27 Li    0.00438    0.00062   -0.19024
 28 Li    0.00545   -0.00483    0.02089
 29 Li   -0.00595   -0.00072   -0.00538
 30 Li    0.01599   -0.04147   -0.01603
 31 Li    0.00220    0.01438    0.00298
 32 Li    0.00458   -0.00139    0.07293
 33 Li   -0.00170   -0.00365    0.18426
 34 Li    0.00625    0.00196   -0.05631
 35 Li    0.00821   -0.00723   -0.08479
 36 Li   -0.00031   -0.00465    0.02641
 37 Li    0.00106    0.00087   -0.00110
 38 Li    0.00782   -0.02056    0.02989
 39 Li    0.00336   -0.01092   -0.00382
 40 Li   -0.00528   -0.00208    0.03378
 41 Li    0.00273    0.00305    0.18394
 42 Li    0.00236    0.00161   -0.05459
 43 Li   -0.00210    0.00020   -0.21145
 44 Li    0.00139    0.00260    0.02486
 45 Li   -0.00445   -0.00231   -0.00107
 46 Li    0.02623    0.01127    0.00484
 47 Li    0.00358   -0.00102   -0.00044
 48 Li    0.00041    0.00035    0.04181
 49 Li   -0.00244   -0.00051    0.17948
 50 Li   -0.00255    0.00054   -0.06969
 51 Li    0.00396    0.00205   -0.17850
 52 Li   -0.00242   -0.00144    0.02387
 53 Li    0.01055   -0.00197   -0.01246
 54 Li   -0.01043   -0.00132    0.00000
 55 Li   -0.00398   -0.00327    0.00778
 56 Li    0.00005   -0.00055    0.03608
 57 Li   -0.00278    0.00041    0.18344
 58 Li   -0.01390    0.01187   -0.08584
 59 Li    0.00052   -0.00613   -0.18203
 60 Li   -0.00325   -0.00318    0.02030
 61 Li   -0.00296   -0.00517    0.00125
 62 Li   -0.00282    0.01267    0.00005
 63 Li    0.02567   -0.01634    0.00928
 64 Li    0.00291   -0.00433    0.03980
 65 Li    0.00126    0.00281    0.18734
 66 Li   -0.00143    0.00419   -0.05799
 67 Li    0.00219    0.00006   -0.20566
 68 Li    0.00017    0.00453    0.02503
 69 Li   -0.00306   -0.00370   -0.00313
 70 Li   -0.03092    0.01611    0.00169
 71 Li    0.00255    0.01246   -0.00484
 72 Li   -0.08231   -0.18743   -0.01575

System changes: positions 

Initializing position-dependent things.

Density initialized from wave functions
                                                                       
                                                                       
                                                                       
                                                                       
                                                                       
                                                                       
                                                                       
                     Li        Li          Li          Li              
[...]
  2 Li    0.00322   -0.02334   -0.08815
  3 Li   -0.00882    0.01296   -0.17453
  4 Li    0.00124    0.00217    0.00266
  5 Li    0.00071    0.00479   -0.00199
  6 Li    0.00037   -0.00276    0.00810
  7 Li   -0.00470   -0.00827    0.00588
  8 Li   -0.00248   -0.00176    0.08674
  9 Li   -0.00003    0.00184   -0.29058
 10 Li    0.01037    0.00560   -0.05230
 11 Li   -0.02079   -0.00656   -0.04785
 12 Li    0.00225   -0.00305   -0.00201
 13 Li   -0.00500   -0.00706    0.00309
 14 Li   -0.01917   -0.01110   -0.00304
 15 Li   -0.02410   -0.01470   -0.00820
 16 Li   -0.00225    0.00308    0.08327
 17 Li   -0.00017    0.00791    0.19403
 18 Li    0.00290    0.00343   -0.05515
 19 Li   -0.00223    0.00751   -0.02180
 20 Li   -0.00437    0.00069    0.00099
 21 Li    0.00000   -0.00168    0.00601
 22 Li    0.00351   -0.01465    0.00262
 23 Li   -0.00114   -0.00229   -0.00231
 24 Li   -0.00191    0.00487    0.03703
 25 Li    0.00435   -0.00378    0.19482
 26 Li    0.00946   -0.00263   -0.05363
 27 Li    0.00249    0.00090   -0.20096
 28 Li   -0.00173    0.00281    0.00078
 29 Li   -0.00363    0.00249    0.00057
 30 Li    0.00013    0.00217    0.00069
 31 Li    0.00344   -0.00145    0.00011
 32 Li    0.00118   -0.00350    0.08548
 33 Li    0.00754   -0.00510    0.19425
 34 Li    0.00442    0.00266   -0.05271
 35 Li    0.01619   -0.00927   -0.03580
 36 Li    0.00212   -0.00110   -0.00277
 37 Li   -0.00182    0.00208    0.00092
 38 Li   -0.00554    0.00469    0.00020
 39 Li   -0.00730   -0.00049   -0.00238
 40 Li   -0.00333   -0.00241    0.03686
 41 Li    0.00214    0.00155    0.19984
 42 Li    0.00348    0.00212   -0.04900
 43 Li   -0.00582   -0.00175   -0.18457
 44 Li    0.00027    0.00086    0.00004
 45 Li   -0.00194    0.00106    0.00261
 46 Li   -0.00607   -0.00544    0.00137
 47 Li   -0.00002   -0.00068   -0.00607
 48 Li    0.00002    0.00012    0.03938
 49 Li   -0.00369   -0.00306    0.19409
 50 Li   -0.00130    0.00057   -0.05414
 51 Li    0.01494    0.01546   -0.17590
 52 Li   -0.00286    0.00033   -0.00436
 53 Li   -0.00598   -0.00508    0.00206
 54 Li   -0.00039    0.00228    0.00161
 55 Li    0.00124   -0.00048   -0.00740
 56 Li   -0.00092   -0.00074    0.03469
 57 Li   -0.00321   -0.00068    0.19401
 58 Li   -0.01202    0.01020   -0.07893
 59 Li    0.00081    0.00235   -0.17082
 60 Li   -0.00185   -0.00169   -0.00114
 61 Li   -0.00759   -0.00243   -0.01124
 62 Li   -0.00328    0.00128    0.00271
 63 Li   -0.00440    0.00103   -0.00116
 64 Li    0.00263   -0.00413    0.03762
 65 Li   -0.00182    0.00578    0.19920
 66 Li    0.00122    0.00997   -0.05686
 67 Li    0.00474    0.00513   -0.19691
 68 Li    0.00235   -0.00130   -0.00143
 69 Li    0.00044   -0.00733   -0.00089
 70 Li    0.00154   -0.00198   -0.00108
 71 Li   -0.00022    0.00082   -0.00727
 72 Li    0.07443    0.03199    0.02376

System changes: positions 

Initializing position-dependent things.

Density initialized from wave functions
                                                                       
                                                                       
                                                                       
                                                                       
                                                                       
                                                                       
                               Li          Li          Li              
                       Li                                              
                        Li          LiLi        LiLi          Li       
                                   Li          Li                      
                      Li     LiLi        LiLi        LiLi              
              LiLi        LiLi        LiLi        Li          Li       
                        Li        LiLi         Lii                     
       Li          LiLii       LiLi        LiLi        Li              
                Li          Lii         Lii          Li                
              Li        LiLi        LiLi        Li                     
                     Lii         Lii         LiLi                      
       Li          Li          Li                                      
              LiLi        LiLi        LiLi                             
                                                                       
       Li          Li          Li                                      
                                                                       
                                                                       
                                                                       
                                                                       

Atomic positions and initial magnetic moments

Positions:
   0 Li     0.000000    0.000000   10.000000    ( 0.0000,  0.0000,  0.0000)
   1 Li     2.467803    1.424787   11.007476    ( 0.0000,  0.0000,  0.0000)
   2 Li     4.935605    2.849573   12.014952    ( 0.0000,  0.0000,  0.0000)
   3 Li     0.000000    0.000000   13.022429    ( 0.0000,  0.0000,  0.0000)
   4 Li     2.462640    1.426668   14.044615    ( 0.0000,  0.0000,  0.0000)
   5 Li     4.943559    2.857519   15.054328    ( 0.0000,  0.0000,  0.0000)
   6 Li     0.002887    0.003871   15.854067    ( 0.0000,  0.0000,  0.0000)
   7 Li     2.516620    1.416202   16.963767    ( 0.0000,  0.0000,  0.0000)
   8 Li     2.467803    4.274360   10.000000    ( 0.0000,  0.0000,  0.0000)
   9 Li     4.935605    5.699146   11.007476    ( 0.0000,  0.0000,  0.0000)
  10 Li     7.403408    7.123933   12.014952    ( 0.0000,  0.0000,  0.0000)
  11 Li     2.467803    4.274360   13.022429    ( 0.0000,  0.0000,  0.0000)
  12 Li     4.925466    5.677475   13.506816    ( 0.0000,  0.0000,  0.0000)
  13 Li     7.422898    7.165692   15.113097    ( 0.0000,  0.0000,  0.0000)
  14 Li     2.512197    4.319264   15.962750    ( 0.0000,  0.0000,  0.0000)
  15 Li     4.928760    5.807362   15.900674    ( 0.0000,  0.0000,  0.0000)
  16 Li     4.935605    8.548719   10.000000    ( 0.0000,  0.0000,  0.0000)
  17 Li     7.403408    9.973506   11.007476    ( 0.0000,  0.0000,  0.0000)
  18 Li     9.871211   11.398292   12.014952    ( 0.0000,  0.0000,  0.0000)
  19 Li     4.935605    8.548719   13.022429    ( 0.0000,  0.0000,  0.0000)
  20 Li     7.403587    9.999664   14.061407    ( 0.0000,  0.0000,  0.0000)
  21 Li     9.870028   11.416505   15.079765    ( 0.0000,  0.0000,  0.0000)
  22 Li     4.926599    8.639804   15.987732    ( 0.0000,  0.0000,  0.0000)
  23 Li     7.482205    9.950530   17.007790    ( 0.0000,  0.0000,  0.0000)
  24 Li     4.935605    0.000000   10.000000    ( 0.0000,  0.0000,  0.0000)
  25 Li     7.403408    1.424787   11.007476    ( 0.0000,  0.0000,  0.0000)
  26 Li     9.871211    2.849573   12.014952    ( 0.0000,  0.0000,  0.0000)
  27 Li     4.935605    0.000000   13.022429    ( 0.0000,  0.0000,  0.0000)
  28 Li     7.415128    1.415853   14.051440    ( 0.0000,  0.0000,  0.0000)
  29 Li     9.851606    2.851461   15.108694    ( 0.0000,  0.0000,  0.0000)
  30 Li     4.942109   -0.008726   15.810374    ( 0.0000,  0.0000,  0.0000)
  31 Li     7.366090    1.398711   16.986939    ( 0.0000,  0.0000,  0.0000)
  32 Li     7.403408    4.274360   10.000000    ( 0.0000,  0.0000,  0.0000)
  33 Li     9.871211    5.699146   11.007476    ( 0.0000,  0.0000,  0.0000)
  34 Li    12.339013    7.123933   12.014952    ( 0.0000,  0.0000,  0.0000)
  35 Li     7.403408    4.274360   13.022429    ( 0.0000,  0.0000,  0.0000)
  36 Li     9.873052    5.693159   14.064151    ( 0.0000,  0.0000,  0.0000)
  37 Li    12.342408    7.103468   15.081287    ( 0.0000,  0.0000,  0.0000)
  38 Li     7.375245    4.298652   15.987261    ( 0.0000,  0.0000,  0.0000)
  39 Li     9.861686    5.761058   17.006733    ( 0.0000,  0.0000,  0.0000)
  40 Li     9.871211    8.548719   10.000000    ( 0.0000,  0.0000,  0.0000)
  41 Li    12.339013    9.973506   11.007476    ( 0.0000,  0.0000,  0.0000)
  42 Li    14.806816   11.398292   12.014952    ( 0.0000,  0.0000,  0.0000)
  43 Li     9.871211    8.548719   13.022429    ( 0.0000,  0.0000,  0.0000)
  44 Li    12.343340    9.975016   14.050786    ( 0.0000,  0.0000,  0.0000)
  45 Li    14.806214   11.403109   15.083139    ( 0.0000,  0.0000,  0.0000)
  46 Li     9.938652    8.584156   15.826250    ( 0.0000,  0.0000,  0.0000)
  47 Li    12.365990   10.018904   16.997271    ( 0.0000,  0.0000,  0.0000)
  48 Li     9.871211    0.000000   10.000000    ( 0.0000,  0.0000,  0.0000)
  49 Li    12.339013    1.424787   11.007476    ( 0.0000,  0.0000,  0.0000)
  50 Li    14.806816    2.849573   12.014952    ( 0.0000,  0.0000,  0.0000)
  51 Li     9.871211    0.000000   13.022429    ( 0.0000,  0.0000,  0.0000)
  52 Li    12.339100    1.440635   14.062527    ( 0.0000,  0.0000,  0.0000)
  53 Li    14.832362    2.868477   15.108929    ( 0.0000,  0.0000,  0.0000)
  54 Li     9.858125   -0.003689   15.854907    ( 0.0000,  0.0000,  0.0000)
  55 Li    12.322898    1.417211   16.990142    ( 0.0000,  0.0000,  0.0000)
  56 Li    12.339013    4.274360   10.000000    ( 0.0000,  0.0000,  0.0000)
  57 Li    14.806816    5.699146   11.007476    ( 0.0000,  0.0000,  0.0000)
  58 Li    17.274619    7.123933   12.014952    ( 0.0000,  0.0000,  0.0000)
  59 Li    12.339013    4.274360   13.022429    ( 0.0000,  0.0000,  0.0000)
  60 Li    14.807464    5.698888   14.053200    ( 0.0000,  0.0000,  0.0000)
  61 Li    17.253557    7.178223   15.054551    ( 0.0000,  0.0000,  0.0000)
  62 Li    12.335119    4.272426   15.857881    ( 0.0000,  0.0000,  0.0000)
  63 Li    14.804942    5.756032   16.978926    ( 0.0000,  0.0000,  0.0000)
  64 Li    14.806816    8.548719   10.000000    ( 0.0000,  0.0000,  0.0000)
  65 Li    17.274619    9.973506   11.007476    ( 0.0000,  0.0000,  0.0000)
  66 Li    19.742421   11.398292   12.014952    ( 0.0000,  0.0000,  0.0000)
  67 Li    14.806816    8.548719   13.022429    ( 0.0000,  0.0000,  0.0000)
  68 Li    17.271569   10.006461   14.059687    ( 0.0000,  0.0000,  0.0000)
  69 Li    19.734819   11.435659   15.087564    ( 0.0000,  0.0000,  0.0000)
  70 Li    14.761442    8.569012   15.816400    ( 0.0000,  0.0000,  0.0000)
  71 Li    17.178610    9.969487   17.007338    ( 0.0000,  0.0000,  0.0000)
  72 Li     5.259425    5.868536   18.427917    ( 0.0000,  0.0000,  0.0000)

Unit cell:
           periodic     x           y           z      points  spacing
  1. axis:    yes   14.806816    0.000000    0.000000    49     0.2617
  2. axis:    yes    7.403408   12.823079    0.000000    49     0.2617
  3. axis:    no     0.000000    0.000000   27.052334    90     0.3006

  Lengths:  14.806816  14.806816  27.052334
  Angles:   90.000000  90.000000  60.000000

Effective grid spacing dv^(1/3) = 0.2875

     iter     time        total  log10-change:
                         energy   eigst   dens
iter:   1 23:11:10  -125.191731   -3.95
iter:   2 23:11:19  -125.190654   -5.25  -2.41
iter:   3 23:11:27  -125.190159c  -4.71  -2.54
iter:   4 23:11:34  -125.190000c  -5.73c -2.83
iter:   5 23:11:41  -125.189963c  -5.29  -3.00
iter:   6 23:11:48  -125.189833c  -5.76c -3.13
iter:   7 23:11:55  -125.189816c  -6.43c -3.24
iter:   8 23:12:04  -125.189854c  -6.51c -3.49
iter:   9 23:12:11  -125.189855c  -7.27c -3.58
iter:  10 23:12:19  -125.189868c  -7.38c -3.75
iter:  11 23:12:29  -125.189853c  -7.82c -3.91
iter:  12 23:12:36  -125.189847c  -7.76c -4.01c

Converged after 12 iterations.

Dipole moment: (-8.622774, -4.640255, 0.304084) |e|*Ang

Energy contributions relative to reference atoms: (reference = -14803.510878)

Kinetic:        +98.464047
Potential:      -88.218525
External:        +0.000000
XC:            -134.403550
Entropy (-ST):   -1.149150
Local:           -0.457245
SIC:             +0.000000
--------------------------
Free energy:   -125.764422
Extrapolated:  -125.189847

Showing all kpts
 Kpt  Band  Eigenvalues  Occupancy
  0    34     -1.81316    1.12179
  0    35     -1.76701    0.89204
  0    36     -1.73351    0.73091
  0    37     -1.68145    0.50990

  1    34     -1.92626    1.59661
  1    35     -1.92305    1.58620
  1    36     -1.82432    1.17633
  1    37     -1.72204    0.67860


Fermi level: -1.78868

No gap
No difference between direct/indirect transitions

Forces in eV/Ang:
  0 Li   -0.00037   -0.00053    0.03408
  1 Li   -0.00098   -0.00234    0.19044
  2 Li    0.00326   -0.02296   -0.08720
  3 Li   -0.00900    0.01312   -0.17345
  4 Li    0.00198    0.00156    0.00220
  5 Li   -0.00039    0.00385   -0.00269
  6 Li    0.00138   -0.00247    0.00629
  7 Li   -0.00469   -0.00872    0.00618
  8 Li   -0.00244   -0.00169    0.08650
  9 Li   -0.00044    0.00153   -0.29181
 10 Li    0.01062    0.00550   -0.05010
 11 Li   -0.01942   -0.00554   -0.04947
 12 Li    0.00340   -0.00431   -0.00301
 13 Li   -0.00646   -0.00780    0.00248
 14 Li   -0.02076   -0.01326   -0.00297
 15 Li   -0.02557   -0.01372    0.01003
 16 Li   -0.00241    0.00292    0.08330
 17 Li    0.00004    0.00810    0.19397
 18 Li    0.00286    0.00337   -0.05496
 19 Li   -0.00251    0.00753   -0.02249
 20 Li   -0.00320   -0.00011    0.00196
 21 Li    0.00013   -0.00163    0.00565
 22 Li    0.00283   -0.01292    0.00441
 23 Li   -0.00112   -0.00264   -0.00236
 24 Li   -0.00194    0.00490    0.03714
 25 Li    0.00429   -0.00391    0.19446
 26 Li    0.00937   -0.00240   -0.05367
 27 Li    0.00210    0.00099   -0.19962
 28 Li   -0.00123    0.00243    0.00142
 29 Li   -0.00464    0.00308    0.00068
 30 Li   -0.00033    0.00319   -0.00097
 31 Li    0.00315    0.00075    0.00083
 32 Li    0.00107   -0.00358    0.08577
 33 Li    0.00788   -0.00508    0.19404
 34 Li    0.00420    0.00275   -0.05269
 35 Li    0.01691   -0.00965   -0.03740
 36 Li    0.00190   -0.00067   -0.00220
 37 Li   -0.00157    0.00214    0.00082
 38 Li   -0.00639    0.00476    0.00101
 39 Li   -0.00819   -0.00109   -0.00261
 40 Li   -0.00318   -0.00234    0.03713
 41 Li    0.00191    0.00153    0.20018
 42 Li    0.00317    0.00221   -0.04928
 43 Li   -0.00559   -0.00131   -0.18319
 44 Li   -0.00110    0.00044   -0.00003
 45 Li   -0.00237    0.00119    0.00335
 46 Li   -0.00600   -0.00619    0.00099
 47 Li   -0.00048   -0.00127   -0.00645
 48 Li   -0.00004    0.00008    0.03943
 49 Li   -0.00348   -0.00292    0.19370
 50 Li   -0.00113    0.00069   -0.05488
 51 Li    0.01324    0.01525   -0.17539
 52 Li   -0.00218    0.00202   -0.00259
 53 Li   -0.00543   -0.00491    0.00321
 54 Li   -0.00105    0.00169    0.00002
 55 Li    0.00114   -0.00028   -0.00799
 56 Li   -0.00089   -0.00070    0.03475
 57 Li   -0.00307   -0.00057    0.19381
 58 Li   -0.01180    0.00991   -0.08031
 59 Li    0.00049    0.00221   -0.17028
 60 Li   -0.00301   -0.00210   -0.00013
 61 Li   -0.00891   -0.00324   -0.01301
 62 Li   -0.00447    0.00224    0.00218
 63 Li   -0.00516    0.00110   -0.00125
 64 Li    0.00262   -0.00417    0.03760
 65 Li   -0.00183    0.00550    0.19900
 66 Li    0.00135    0.00978   -0.05759
 67 Li    0.00428    0.00525   -0.19642
 68 Li    0.00176   -0.00008    0.00004
 69 Li    0.00185   -0.00703    0.00056
 70 Li    0.00100   -0.00096   -0.00243
 71 Li    0.00016    0.00086   -0.00947
 72 Li    0.08538    0.02974    0.01028

Timing:                                      incl.     excl.
-------------------------------------------------------------------
Density initialized from wave functions:    37.733    37.732   0.2% |
 Symmetrize density:                         0.001     0.001   0.0% |
Forces:                                    168.992   168.992   0.8% |
Hamiltonian:                                55.732     0.436   0.0% |
 Atomic:                                    23.282     0.109   0.0% |
  XC Correction:                            23.173    23.173   0.1% |
 Calculate atomic Hamiltonians:             21.116    21.116   0.1% |
 Communicate:                                0.001     0.001   0.0% |
 Initialize Hamiltonian:                     0.004     0.004   0.0% |
 Poisson:                                    1.163     1.163   0.0% |
 XC 3D grid:                                 9.729     9.729   0.0% |
LCAO initialization:                        26.000     0.006   0.0% |
 LCAO eigensolver:                           0.527     0.002   0.0% |
  Calculate projections:                     0.005     0.005   0.0% |
  DenseAtomicCorrection:                     0.060     0.060   0.0% |
  Distribute overlap matrix:                 0.001     0.001   0.0% |
  Orbital Layouts:                           0.102     0.102   0.0% |
  Potential matrix:                          0.350     0.350   0.0% |
  Sum over cells:                            0.007     0.007   0.0% |
 LCAO to grid:                              24.479    24.479   0.1% |
 Set positions (LCAO WFS):                   0.988     0.197   0.0% |
  Basic WFS set positions:                   0.002     0.002   0.0% |
  Basis functions set positions:             0.000     0.000   0.0% |
  P tci:                                     0.609     0.609   0.0% |
  ST tci:                                    0.159     0.159   0.0% |
  mktci:                                     0.022     0.022   0.0% |
PWDescriptor:                                0.024     0.024   0.0% |
Redistribute:                                0.086     0.086   0.0% |
SCF-cycle:                                2756.865     0.482   0.0% |
 Davidson:                                1642.798   304.670   1.4% ||
  Apply H:                                 286.140   283.224   1.3% ||
   HMM T:                                    2.915     2.915   0.0% |
  Subspace diag:                           329.591     0.256   0.0% |
   calc_h_matrix:                          305.778    19.693   0.1% |
    Apply H:                               286.085   282.000   1.3% ||
     HMM T:                                  4.085     4.085   0.0% |
   diagonalize:                              0.777     0.777   0.0% |
   rotate_psi:                              22.781    22.781   0.1% |
  calc. matrices:                          671.641    92.070   0.4% |
   Apply H:                                579.570   572.946   2.7% ||
    HMM T:                                   6.624     6.624   0.0% |
  diagonalize:                               5.522     5.522   0.0% |
  rotate_psi:                               45.234    45.234   0.2% |
 Density:                                  405.247     0.006   0.0% |
  Atomic density matrices:                   1.308     1.308   0.0% |
  Mix:                                     264.226   264.226   1.2% |
  Multipole moments:                         0.290     0.290   0.0% |
  Pseudo density:                          139.417   139.409   0.7% |
   Symmetrize density:                       0.008     0.008   0.0% |
 Hamiltonian:                              696.670     1.817   0.0% |
  Atomic:                                  300.380     1.180   0.0% |
   XC Correction:                          299.200   299.200   1.4% ||
  Calculate atomic Hamiltonians:           269.655   269.655   1.3% ||
  Communicate:                               0.003     0.003   0.0% |
  Poisson:                                   1.383     1.383   0.0% |
  XC 3D grid:                              123.432   123.432   0.6% |
 Orthonormalize:                            11.668     0.016   0.0% |
  calc_s_matrix:                             0.788     0.788   0.0% |
  inverse-cholesky:                          0.034     0.034   0.0% |
  projections:                               7.488     7.488   0.0% |
  rotate_psi_s:                              3.342     3.342   0.0% |
Set symmetry:                                0.001     0.001   0.0% |
Other:                                   18231.296 18231.296  85.7% |---------------------------------|
-------------------------------------------------------------------
Total:                                             21276.729 100.0%

Memory usage: 4.13 GiB
Date: Tue Nov 25 00:17:01 2025
