
  ___ ___ ___ _ _ _  
 |   |   |_  | | | | 
 | | | | | . | | | | 
 |__ |  _|___|_____|  25.7.0
 |___|_|             

User:   tew@Mathuss-MacBook-Air-357.local
Date:   Mon Nov 24 18:22:24 2025
Arch:   arm64
Pid:    76608
CWD:    /Users/tew/Documents/Project/GitHub/chem-com
Python: 3.13.5
gpaw:   /Users/tew/Documents/Project/GitHub/chem-com/.venv/lib/python3.13/site-packages/gpaw
_gpaw:  /Users/tew/Documents/Project/GitHub/chem-com/.venv/lib/python3.13/site-packages/
        _gpaw.cpython-313-darwin.so
ase:    /Users/tew/Documents/Project/GitHub/chem-com/.venv/lib/python3.13/site-packages/ase (version 3.26.0)
numpy:  /Users/tew/Documents/Project/GitHub/chem-com/.venv/lib/python3.13/site-packages/numpy (version 2.3.5)
scipy:  /Users/tew/Documents/Project/GitHub/chem-com/.venv/lib/python3.13/site-packages/scipy (version 1.16.3)
libxc:  2.x.y
units:  Angstrom and eV
cores: 1
OpenMP: False
OMP_NUM_THREADS: 1

Input parameters:
  convergence: {density: 0.0001,
                eigenstates: 5e-06}
  kpts: [2 2 1]
  mode: {ecut: 200.0,
         name: pw}
  xc: PBE

System changes: positions, numbers, cell, pbc, initial_charges, initial_magmoms 

Initialize ...

species:
  Li:
    name: Lithium
    id: 830b4218f175192f93f959cfc0aad614
    Z: 3.0
    valence: 1
    core: 2
    charge: 0.0
    file: /Users/tew/Documents/Project/GitHub/chem-com/.venv/lib/python3.13/site-packages/gpaw_data/setups/Li.PBE.gz
    compensation charges: {type: gauss,
                           rc: 0.33,
                           lmax: 2}
    cutoffs: {filter: 1.91,
              core: 2.55}
    projectors:
      #              energy  rcut
      - 2s(1.00)    -2.874   1.058
      - 2p(0.00)    -1.090   1.058
      -  s          24.337   1.058
  
    # Using partial waves for Li as LCAO basis

Reference energy: -14803.510878  # eV

Spin-paired calculation

Convergence criteria:
 Maximum [total energy] change in last 3 cyles: 0.0005 eV / valence electron
 Maximum integral of absolute [dens]ity change: 0.0001 electrons / valence electron
 Maximum integral of absolute [eigenst]ate change: 5e-06 eV^2 / valence electron
 Maximum number of scf [iter]ations: 333
 (Square brackets indicate name in SCF output, whereas a 'c' in
 the SCF output indicates the quantity has converged.)

Symmetries present (total): 2

  ( 1  0  0)  ( 1 -1  0)
  ( 0  1  0)  ( 0 -1  0)
  ( 0  0  1)  ( 0  0  1)
Note: your k-points are not as symmetric as your crystal!

4 k-points: 2 x 2 x 1 Monkhorst-Pack grid
2 k-points in the irreducible part of the Brillouin zone
       k-points in crystal coordinates                weights
   0:     0.25000000   -0.25000000    0.00000000          2/4
   1:     0.25000000    0.25000000    0.00000000          2/4

Wave functions: Plane wave expansion
  Cutoff energy: 200.000 eV
  Number of coefficients (min, max): 33010, 33019
  Pulay-stress correction: 0.000000 eV/Ang^3 (de/decut=0.000000)
  Using Numpy's FFT
  ScaLapack parameters: grid=1x1, blocksize=None
  Wavefunction extrapolation:
    Improved wavefunction reuse through dual PAW basis 

Occupation numbers: Fermi-Dirac:
  width: 0.1000  # eV
 

Eigensolver
   Davidson(niter=2) 

Densities:
  Coarse grid: 49*49*90 grid
  Fine grid: 98*98*180 grid
  Total Charge: 0.000000 

Density mixing:
  Method: separate
  Backend: pulay
  Linear mixing parameter: 0.05
  old densities: 5
  Damping of long wavelength oscillations: 50 

Hamiltonian:
  XC and Coulomb potentials evaluated on a 98*98*180 grid
  Using the PBE Exchange-Correlation functional
  External potential:
    NoExternalPotential
 

XC parameters: PBE with 2 nearest neighbor stencil

Memory estimate:
  Process memory now: 2506.38 MiB
  Calculator: 211.72 MiB
    Density: 94.25 MiB
      Arrays: 42.86 MiB
      Localized functions: 34.90 MiB
      Mixer: 16.49 MiB
    Hamiltonian: 28.74 MiB
      Arrays: 28.03 MiB
      XC: 0.00 MiB
      Poisson: 0.00 MiB
      vbar: 0.71 MiB
    Wavefunctions: 88.74 MiB
      Arrays psit_nG: 48.37 MiB
      Eigensolver: 27.06 MiB
      Projections: 0.53 MiB
      Projectors: 3.53 MiB
      PW-descriptor: 9.25 MiB

Total number of cores used: 1

Number of atoms: 73
Number of atomic orbitals: 292
Number of bands in calculation: 48
Number of valence electrons: 73
Bands to converge: occupied

... initialized

Initializing position-dependent things.

Density initialized from atomic densities
Creating initial wave functions:
  48 bands from LCAO basis set

                                                                       
                                                                       
                                                                       
                                                                       
                                                                       
                                                                       
                                                                       
                      Li       Li          Li          Li              
                                      Li          Li          Li       
                        Li         Lii         Lii                     
                      Li       Li          Li          Li              
                Li          Lii         Lii          Li                
              Li        LiLi        LiLi        LiLi          Li       
                     Lii         LiLi        LiLi                      
       Li          Li          Li          Li          Li              
              LiLi        LiLii       LiLii          Li                
                        Li          Li          Li                     
       Li          LiLii       LiLii         LiLi                      
                                                                       
              LiLi        LiLi        LiLi                             
                                                                       
       Li          Li          Li                                      
                                                                       
                                                                       
                                                                       
                                                                       

Atomic positions and initial magnetic moments

Positions:
   0 Li     0.000000    0.000000   10.000000    ( 0.0000,  0.0000,  0.0000)
   1 Li     2.467803    1.424787   11.007476    ( 0.0000,  0.0000,  0.0000)
   2 Li     4.935605    2.849573   12.014952    ( 0.0000,  0.0000,  0.0000)
   3 Li     0.000000    0.000000   13.022429    ( 0.0000,  0.0000,  0.0000)
   4 Li     2.458880    1.423527   14.030716    ( 0.0000,  0.0000,  0.0000)
   5 Li     4.934622    2.861336   15.035804    ( 0.0000,  0.0000,  0.0000)
   6 Li     0.006441   -0.003719   15.852899    ( 0.0000,  0.0000,  0.0000)
   7 Li     2.524819    1.404921   16.981940    ( 0.0000,  0.0000,  0.0000)
   8 Li     2.467803    4.274360   10.000000    ( 0.0000,  0.0000,  0.0000)
   9 Li     4.935605    5.699146   11.007476    ( 0.0000,  0.0000,  0.0000)
  10 Li     7.403408    7.123933   12.014952    ( 0.0000,  0.0000,  0.0000)
  11 Li     2.467803    4.274360   13.022429    ( 0.0000,  0.0000,  0.0000)
  12 Li     4.933981    5.700084   13.574423    ( 0.0000,  0.0000,  0.0000)
  13 Li     7.392729    7.118903   15.035804    ( 0.0000,  0.0000,  0.0000)
  14 Li     2.466997    4.278289   15.928636    ( 0.0000,  0.0000,  0.0000)
  15 Li     4.932458    5.700963   16.042271    ( 0.0000,  0.0000,  0.0000)
  16 Li     4.935605    8.548719   10.000000    ( 0.0000,  0.0000,  0.0000)
  17 Li     7.403408    9.973506   11.007476    ( 0.0000,  0.0000,  0.0000)
  18 Li     9.871211   11.398292   12.014952    ( 0.0000,  0.0000,  0.0000)
  19 Li     4.935605    8.548719   13.022429    ( 0.0000,  0.0000,  0.0000)
  20 Li     7.400037    9.981863   14.030716    ( 0.0000,  0.0000,  0.0000)
  21 Li     9.871324   11.398227   15.080857    ( 0.0000,  0.0000,  0.0000)
  22 Li     4.931800    8.547452   15.928636    ( 0.0000,  0.0000,  0.0000)
  23 Li     7.449120    9.934061   16.981940    ( 0.0000,  0.0000,  0.0000)
  24 Li     4.935605    0.000000   10.000000    ( 0.0000,  0.0000,  0.0000)
  25 Li     7.403408    1.424787   11.007476    ( 0.0000,  0.0000,  0.0000)
  26 Li     9.871211    2.849573   12.014952    ( 0.0000,  0.0000,  0.0000)
  27 Li     4.935605    0.000000   13.022429    ( 0.0000,  0.0000,  0.0000)
  28 Li     7.411044    1.422080   14.030164    ( 0.0000,  0.0000,  0.0000)
  29 Li     9.876913    2.846281   15.095530    ( 0.0000,  0.0000,  0.0000)
  30 Li     4.935052    0.030160   15.799370    ( 0.0000,  0.0000,  0.0000)
  31 Li     7.345329    1.403680   16.980567    ( 0.0000,  0.0000,  0.0000)
  32 Li     7.403408    4.274360   10.000000    ( 0.0000,  0.0000,  0.0000)
  33 Li     9.871211    5.699146   11.007476    ( 0.0000,  0.0000,  0.0000)
  34 Li    12.339013    7.123933   12.014952    ( 0.0000,  0.0000,  0.0000)
  35 Li     7.403408    4.274360   13.022429    ( 0.0000,  0.0000,  0.0000)
  36 Li     9.877373    5.693886   14.030164    ( 0.0000,  0.0000,  0.0000)
  37 Li    12.337031    7.127572   15.081955    ( 0.0000,  0.0000,  0.0000)
  38 Li     7.400624    4.275967   15.929582    ( 0.0000,  0.0000,  0.0000)
  39 Li     9.860450    5.759997   16.980567    ( 0.0000,  0.0000,  0.0000)
  40 Li     9.871211    8.548719   10.000000    ( 0.0000,  0.0000,  0.0000)
  41 Li    12.339013    9.973506   11.007476    ( 0.0000,  0.0000,  0.0000)
  42 Li    14.806816   11.398292   12.014952    ( 0.0000,  0.0000,  0.0000)
  43 Li     9.871211    8.548719   13.022429    ( 0.0000,  0.0000,  0.0000)
  44 Li    12.339674    9.973124   14.001218    ( 0.0000,  0.0000,  0.0000)
  45 Li    14.802674   11.398189   15.081955    ( 0.0000,  0.0000,  0.0000)
  46 Li     9.844814    8.534118   15.799370    ( 0.0000,  0.0000,  0.0000)
  47 Li    12.338910    9.973566   16.924062    ( 0.0000,  0.0000,  0.0000)
  48 Li     9.871211    0.000000   10.000000    ( 0.0000,  0.0000,  0.0000)
  49 Li    12.339013    1.424787   11.007476    ( 0.0000,  0.0000,  0.0000)
  50 Li    14.806816    2.849573   12.014952    ( 0.0000,  0.0000,  0.0000)
  51 Li     9.871211    0.000000   13.022429    ( 0.0000,  0.0000,  0.0000)
  52 Li    12.337207    1.425829   14.020218    ( 0.0000,  0.0000,  0.0000)
  53 Li    14.795587    2.848113   15.096440    ( 0.0000,  0.0000,  0.0000)
  54 Li     9.859952   -0.004265   15.852795    ( 0.0000,  0.0000,  0.0000)
  55 Li    12.334788    1.427226   16.935526    ( 0.0000,  0.0000,  0.0000)
  56 Li    12.339013    4.274360   10.000000    ( 0.0000,  0.0000,  0.0000)
  57 Li    14.806816    5.699146   11.007476    ( 0.0000,  0.0000,  0.0000)
  58 Li    17.274619    7.123933   12.014952    ( 0.0000,  0.0000,  0.0000)
  59 Li    12.339013    4.274360   13.022429    ( 0.0000,  0.0000,  0.0000)
  60 Li    14.798585    5.695140   14.029492    ( 0.0000,  0.0000,  0.0000)
  61 Li    17.279422    7.121159   15.033239    ( 0.0000,  0.0000,  0.0000)
  62 Li    12.337077    4.286243   15.852795    ( 0.0000,  0.0000,  0.0000)
  63 Li    14.814254    5.761628   16.979327    ( 0.0000,  0.0000,  0.0000)
  64 Li    14.806816    8.548719   10.000000    ( 0.0000,  0.0000,  0.0000)
  65 Li    17.274619    9.973506   11.007476    ( 0.0000,  0.0000,  0.0000)
  66 Li    19.742421   11.398292   12.014952    ( 0.0000,  0.0000,  0.0000)
  67 Li    14.806816    8.548719   13.022429    ( 0.0000,  0.0000,  0.0000)
  68 Li    17.273973    9.982638   14.029492    ( 0.0000,  0.0000,  0.0000)
  69 Li    19.738072   11.408747   15.096440    ( 0.0000,  0.0000,  0.0000)
  70 Li    14.831606    8.534407   15.798035    ( 0.0000,  0.0000,  0.0000)
  71 Li    17.224227    9.935824   16.979327    ( 0.0000,  0.0000,  0.0000)
  72 Li     4.941077    5.695987   18.619008    ( 0.0000,  0.0000,  0.0000)

Unit cell:
           periodic     x           y           z      points  spacing
  1. axis:    yes   14.806816    0.000000    0.000000    49     0.2617
  2. axis:    yes    7.403408   12.823079    0.000000    49     0.2617
  3. axis:    no     0.000000    0.000000   27.052334    90     0.3006

  Lengths:  14.806816  14.806816  27.052334
  Angles:   90.000000  90.000000  60.000000

Effective grid spacing dv^(1/3) = 0.2875

     iter     time        total  log10-change:
                         energy   eigst   dens
iter:   1 18:44:42  -134.415778
iter:   2 18:44:48  -130.166417   -0.95  -0.52
iter:   3 18:44:55  -125.863043   -0.79  -0.63
iter:   4 18:45:01  -127.188636   -1.31  -0.89
iter:   5 18:45:07  -126.765287   -1.95  -0.84
iter:   6 18:45:13  -126.022139   -1.03  -0.87
iter:   7 18:45:19  -125.126474   -2.01  -1.01
iter:   8 18:45:25  -125.184441   -2.39  -1.40
iter:   9 18:45:31  -125.183529   -2.55  -1.44
iter:  10 18:45:37  -125.159922c  -3.08  -1.50
iter:  11 18:45:43  -125.172207c  -3.03  -1.69
iter:  12 18:45:49  -125.172062c  -3.55  -1.90
iter:  13 18:45:55  -125.161254c  -3.53  -2.03
iter:  14 18:46:01  -125.161632c  -4.16  -2.30
iter:  15 18:46:07  -125.164384c  -4.02  -2.38
iter:  16 18:46:13  -125.161506c  -4.33  -2.41
iter:  17 18:46:19  -125.160965c  -4.54  -2.72
iter:  18 18:46:26  -125.161162c  -4.85  -2.82
iter:  19 18:46:31  -125.161212c  -4.75  -2.98
iter:  20 18:46:38  -125.160974c  -5.09  -3.13
iter:  21 18:46:44  -125.160788c  -5.15  -3.25
iter:  22 18:46:51  -125.160763c  -5.31c -3.33
iter:  23 18:46:57  -125.160804c  -5.40c -3.40
iter:  24 18:47:03  -125.160689c  -5.45c -3.60
iter:  25 18:47:10  -125.160618c  -5.48c -3.71
iter:  26 18:47:15  -125.160598c  -5.61c -3.78
iter:  27 18:47:22  -125.160529c  -5.67c -3.90
iter:  28 18:47:28  -125.160507c  -5.61c -4.01c

Converged after 28 iterations.

Dipole moment: (-10.094083, -5.339356, 0.334023) |e|*Ang

Energy contributions relative to reference atoms: (reference = -14803.510878)

Kinetic:        +98.978480
Potential:      -88.609904
External:        +0.000000
XC:            -134.489750
Entropy (-ST):   -1.150135
Local:           -0.464266
SIC:             +0.000000
--------------------------
Free energy:   -125.735575
Extrapolated:  -125.160507

Showing all kpts
 Kpt  Band  Eigenvalues  Occupancy
  0    34     -1.81109    1.10153
  0    35     -1.77325    0.91290
  0    36     -1.74189    0.76064
  0    37     -1.69324    0.54788

  1    34     -1.93259    1.61030
  1    35     -1.92892    1.59866
  1    36     -1.82433    1.16653
  1    37     -1.72347    0.67591


Fermi level: -1.79071

No gap
No difference between direct/indirect transitions

Forces in eV/Ang:
  0 Li    0.00035   -0.00020    0.03703
  1 Li   -0.00246   -0.00113    0.18302
  2 Li    0.00167   -0.01924   -0.08675
  3 Li   -0.00640    0.00370   -0.17642
  4 Li   -0.00658   -0.00032    0.03045
  5 Li   -0.00061   -0.00436    0.00396
  6 Li    0.01332   -0.00769    0.00009
  7 Li   -0.01248    0.01171   -0.00539
  8 Li   -0.00496   -0.00208    0.08051
  9 Li    0.00067   -0.00039   -0.20203
 10 Li    0.01750    0.00817   -0.08675
 11 Li   -0.01269   -0.00493   -0.07260
 12 Li    0.00042   -0.00024   -0.00450
 13 Li    0.00347    0.00271    0.00396
 14 Li   -0.01167   -0.00662    0.03483
 15 Li   -0.00026    0.00015   -0.02778
 16 Li   -0.00067    0.00533    0.08051
 17 Li   -0.00025    0.00269    0.18302
 18 Li    0.00116   -0.00067   -0.05772
 19 Li   -0.00208    0.01345   -0.07260
 20 Li   -0.00302    0.00586    0.03045
 21 Li    0.00556   -0.00321    0.00052
 22 Li   -0.00010    0.01342    0.03483
 23 Li   -0.01638    0.00495   -0.00539
 24 Li   -0.00090    0.00552    0.03829
 25 Li    0.00409   -0.00121    0.18375
 26 Li    0.00654   -0.00377   -0.06065
 27 Li   -0.00007    0.00212   -0.21059
 28 Li    0.00716   -0.00058    0.03020
 29 Li   -0.00904    0.00522   -0.00736
 30 Li   -0.00013   -0.04725    0.00248
 31 Li    0.01271    0.01166   -0.00493
 32 Li    0.00397   -0.00229    0.08032
 33 Li    0.00310   -0.00294    0.18375
 34 Li    0.00251   -0.00071   -0.05613
 35 Li    0.01059   -0.00611   -0.07146
 36 Li    0.00408   -0.00592    0.03020
 37 Li    0.00093    0.00719   -0.00061
 38 Li    0.01039   -0.00600    0.03510
 39 Li   -0.00374   -0.01684   -0.00493
 40 Li   -0.00523   -0.00198    0.03829
 41 Li    0.00132   -0.00076    0.17990
 42 Li    0.00187   -0.00182   -0.05613
 43 Li   -0.00187   -0.00100   -0.21059
 44 Li    0.00010   -0.00006    0.03252
 45 Li   -0.00576   -0.00440   -0.00061
 46 Li    0.04085    0.02373    0.00248
 47 Li    0.00065   -0.00037   -0.00311
 48 Li   -0.00014    0.00025    0.03968
 49 Li   -0.00175    0.00101    0.17682
 50 Li   -0.00380   -0.00177   -0.06041
 51 Li    0.00546    0.00365   -0.17724
 52 Li   -0.00105    0.00061    0.02734
 53 Li    0.00994    0.00524   -0.00730
 54 Li   -0.01349   -0.00669   -0.00068
 55 Li   -0.00039    0.00023    0.01330
 56 Li   -0.00029   -0.00001    0.03968
 57 Li   -0.00310   -0.00088    0.18378
 58 Li   -0.01670    0.00964   -0.08863
 59 Li   -0.00043   -0.00655   -0.17724
 60 Li   -0.00442   -0.00563    0.02988
 61 Li   -0.00270    0.00156    0.00331
 62 Li   -0.00095    0.01503   -0.00068
 63 Li    0.00345   -0.01652   -0.00479
 64 Li    0.00472   -0.00272    0.03974
 65 Li   -0.00079    0.00313    0.18378
 66 Li   -0.00037    0.00417   -0.06041
 67 Li    0.00062   -0.00036   -0.21243
 68 Li    0.00266    0.00664    0.02988
 69 Li    0.00043   -0.01123   -0.00730
 70 Li   -0.04328    0.02499    0.00168
 71 Li    0.01603    0.00527   -0.00479
 72 Li    0.00268   -0.00155   -0.02262

Timing:                              incl.     excl.
-----------------------------------------------------------
Forces:                              4.935     4.935   0.0% |
Hamiltonian:                         1.882     0.009   0.0% |
 Atomic:                             0.813     0.003   0.0% |
  XC Correction:                     0.810     0.810   0.0% |
 Calculate atomic Hamiltonians:      0.654     0.654   0.0% |
 Communicate:                        0.000     0.000   0.0% |
 Initialize Hamiltonian:             0.004     0.004   0.0% |
 Poisson:                            0.015     0.015   0.0% |
 XC 3D grid:                         0.387     0.387   0.0% |
LCAO initialization:                20.368     0.006   0.0% |
 LCAO eigensolver:                   0.447     0.000   0.0% |
  Calculate projections:             0.004     0.004   0.0% |
  DenseAtomicCorrection:             0.050     0.050   0.0% |
  Distribute overlap matrix:         0.000     0.000   0.0% |
  Orbital Layouts:                   0.083     0.083   0.0% |
  Potential matrix:                  0.305     0.305   0.0% |
  Sum over cells:                    0.004     0.004   0.0% |
 LCAO to grid:                      19.159    19.159   0.1% |
 Set positions (LCAO WFS):           0.755     0.182   0.0% |
  Basic WFS set positions:           0.002     0.002   0.0% |
  Basis functions set positions:     0.000     0.000   0.0% |
  P tci:                             0.389     0.389   0.0% |
  ST tci:                            0.155     0.155   0.0% |
  mktci:                             0.028     0.028   0.0% |
PWDescriptor:                        0.017     0.017   0.0% |
SCF-cycle:                         169.674     0.030   0.0% |
 Davidson:                         100.443    18.493   0.1% |
  Apply H:                          18.061    17.889   0.1% |
   HMM T:                            0.172     0.172   0.0% |
  Subspace diag:                    19.812     0.006   0.0% |
   calc_h_matrix:                   18.441     1.096   0.0% |
    Apply H:                        17.345    17.152   0.1% |
     HMM T:                          0.192     0.192   0.0% |
   diagonalize:                      0.045     0.045   0.0% |
   rotate_psi:                       1.320     1.320   0.0% |
  calc. matrices:                   41.055     5.508   0.0% |
   Apply H:                         35.547    35.200   0.2% |
    HMM T:                           0.348     0.348   0.0% |
  diagonalize:                       0.343     0.343   0.0% |
  rotate_psi:                        2.677     2.677   0.0% |
 Density:                           24.315     0.000   0.0% |
  Atomic density matrices:           0.085     0.085   0.0% |
  Mix:                              15.443    15.443   0.1% |
  Multipole moments:                 0.017     0.017   0.0% |
  Pseudo density:                    8.771     8.680   0.0% |
   Symmetrize density:               0.090     0.090   0.0% |
 Hamiltonian:                       44.624     0.090   0.0% |
  Atomic:                           19.737     0.072   0.0% |
   XC Correction:                   19.665    19.665   0.1% |
  Calculate atomic Hamiltonians:    16.636    16.636   0.1% |
  Communicate:                       0.000     0.000   0.0% |
  Poisson:                           0.060     0.060   0.0% |
  XC 3D grid:                        8.101     8.101   0.0% |
 Orthonormalize:                     0.262     0.000   0.0% |
  calc_s_matrix:                     0.027     0.027   0.0% |
  inverse-cholesky:                  0.001     0.001   0.0% |
  projections:                       0.199     0.199   0.0% |
  rotate_psi_s:                      0.035     0.035   0.0% |
Set symmetry:                        0.001     0.001   0.0% |
Other:                           21079.852 21079.852  99.1% |---------------------------------------|
-----------------------------------------------------------
Total:                                     21276.728 100.0%

Memory usage: 4.13 GiB
Date: Tue Nov 25 00:17:01 2025
