
  ___ ___ ___ _ _ _  
 |   |   |_  | | | | 
 | | | | | . | | | | 
 |__ |  _|___|_____|  25.7.0
 |___|_|             

User:   tew@Mathuss-MacBook-Air-357.local
Date:   Mon Nov 24 18:22:24 2025
Arch:   arm64
Pid:    76608
CWD:    /Users/tew/Documents/Project/GitHub/chem-com
Python: 3.13.5
gpaw:   /Users/tew/Documents/Project/GitHub/chem-com/.venv/lib/python3.13/site-packages/gpaw
_gpaw:  /Users/tew/Documents/Project/GitHub/chem-com/.venv/lib/python3.13/site-packages/
        _gpaw.cpython-313-darwin.so
ase:    /Users/tew/Documents/Project/GitHub/chem-com/.venv/lib/python3.13/site-packages/ase (version 3.26.0)
numpy:  /Users/tew/Documents/Project/GitHub/chem-com/.venv/lib/python3.13/site-packages/numpy (version 2.3.5)
scipy:  /Users/tew/Documents/Project/GitHub/chem-com/.venv/lib/python3.13/site-packages/scipy (version 1.16.3)
libxc:  2.x.y
units:  Angstrom and eV
cores: 1
OpenMP: False
OMP_NUM_THREADS: 1

Input parameters:
  convergence: {density: 0.0001,
                eigenstates: 5e-06}
  kpts: [2 2 1]
  mode: {ecut: 200.0,
         name: pw}
  xc: PBE

System changes: positions, numbers, cell, pbc, initial_charges, initial_magmoms 

Initialize ...

species:
  Li:
    name: Lithium
    id: 830b4218f175192f93f959cfc0aad614
    Z: 3.0
    valence: 1
    core: 2
    charge: 0.0
    file: /Users/tew/Documents/Project/GitHub/chem-com/.venv/lib/python3.13/site-packages/gpaw_data/setups/Li.PBE.gz
    compensation charges: {type: gauss,
                           rc: 0.33,
                           lmax: 2}
    cutoffs: {filter: 1.91,
              core: 2.55}
    projectors:
      #              energy  rcut
      - 2s(1.00)    -2.874   1.058
      - 2p(0.00)    -1.090   1.058
      -  s          24.337   1.058
  
    # Using partial waves for Li as LCAO basis

Reference energy: -14803.510878  # eV

Spin-paired calculation

Convergence criteria:
 Maximum [total energy] change in last 3 cyles: 0.0005 eV / valence electron
 Maximum integral of absolute [dens]ity change: 0.0001 electrons / valence electron
 Maximum integral of absolute [eigenst]ate change: 5e-06 eV^2 / valence electron
 Maximum number of scf [iter]ations: 333
 (Square brackets indicate name in SCF output, whereas a 'c' in
 the SCF output indicates the quantity has converged.)

Symmetries present (total): 2

  ( 1  0  0)  ( 0  1  0)
  ( 0  1  0)  ( 1  0  0)
  ( 0  0  1)  ( 0  0  1)

4 k-points: 2 x 2 x 1 Monkhorst-Pack grid
2 k-points in the irreducible part of the Brillouin zone
       k-points in crystal coordinates                weights
   0:     0.25000000   -0.25000000    0.00000000          2/4
   1:     0.25000000    0.25000000    0.00000000          2/4

Wave functions: Plane wave expansion
  Cutoff energy: 200.000 eV
  Number of coefficients (min, max): 33010, 33019
  Pulay-stress correction: 0.000000 eV/Ang^3 (de/decut=0.000000)
  Using Numpy's FFT
  ScaLapack parameters: grid=1x1, blocksize=None
  Wavefunction extrapolation:
    Improved wavefunction reuse through dual PAW basis 

Occupation numbers: Fermi-Dirac:
  width: 0.1000  # eV
 

Eigensolver
   Davidson(niter=2) 

Densities:
  Coarse grid: 49*49*90 grid
  Fine grid: 98*98*180 grid
  Total Charge: 0.000000 

Density mixing:
  Method: separate
  Backend: pulay
  Linear mixing parameter: 0.05
  old densities: 5
  Damping of long wavelength oscillations: 50 

Hamiltonian:
  XC and Coulomb potentials evaluated on a 98*98*180 grid
  Using the PBE Exchange-Correlation functional
  External potential:
    NoExternalPotential
 

XC parameters: PBE with 2 nearest neighbor stencil

Memory estimate:
  Process memory now: 2506.38 MiB
  Calculator: 211.72 MiB
    Density: 94.25 MiB
      Arrays: 42.86 MiB
      Localized functions: 34.90 MiB
      Mixer: 16.49 MiB
    Hamiltonian: 28.74 MiB
      Arrays: 28.03 MiB
      XC: 0.00 MiB
      Poisson: 0.00 MiB
      vbar: 0.71 MiB
    Wavefunctions: 88.74 MiB
      Arrays psit_nG: 48.37 MiB
      Eigensolver: 27.06 MiB
      Projections: 0.53 MiB
      Projectors: 3.53 MiB
      PW-descriptor: 9.25 MiB

Total number of cores used: 1

Number of atoms: 73
Number of atomic orbitals: 292
Number of bands in calculation: 48
Number of valence electrons: 73
Bands to converge: occupied

... initialized

Initializing position-dependent things.

Density initialized from atomic densities
Creating initial wave functions:
  48 bands from LCAO basis set

                                                                       
                                                                       
                                                                       
                                                                       
                                                                       
                                                                       
                               Li          Li          Li              
                                                                       
                                      Li          Li          Li       
              Li       Lii        LiLi        LiLi                     
                             LiLi        LiLi        LiLi              
                Li        LiLi        LiLi        Li          Li       
              Li      LiLi         Lii         Lii                     
       Li          LiLi        LiLi        LiLi        Li              
                Li          Lii         Lii          Li                
              Li        LiLi        LiLi        Li                     
                     Lii         LiLi        LiLi                      
       Li          Li          Li                                      
              LiLi        LiLi        LiLi                             
                                                                       
       Li          Li          Li                                      
                                                                       
                                                                       
                                                                       
                                                                       

Atomic positions and initial magnetic moments

Positions:
   0 Li     0.000000    0.000000   10.000000    ( 0.0000,  0.0000,  0.0000)
   1 Li     2.467803    1.424787   11.007476    ( 0.0000,  0.0000,  0.0000)
   2 Li     4.935605    2.849573   12.014952    ( 0.0000,  0.0000,  0.0000)
   3 Li     0.000000    0.000000   13.022429    ( 0.0000,  0.0000,  0.0000)
   4 Li     2.464430    1.422839   13.573106    ( 0.0000,  0.0000,  0.0000)
   5 Li     4.919949    2.840534   15.038352    ( 0.0000,  0.0000,  0.0000)
   6 Li    -0.000738   -0.000426   15.927618    ( 0.0000,  0.0000,  0.0000)
   7 Li     2.461619    1.421216   16.041120    ( 0.0000,  0.0000,  0.0000)
   8 Li     2.467803    4.274360   10.000000    ( 0.0000,  0.0000,  0.0000)
   9 Li     4.935605    5.699146   11.007476    ( 0.0000,  0.0000,  0.0000)
  10 Li     7.403408    7.123933   12.014952    ( 0.0000,  0.0000,  0.0000)
  11 Li     2.467803    4.274360   13.022429    ( 0.0000,  0.0000,  0.0000)
  12 Li     4.930106    5.706197   14.030913    ( 0.0000,  0.0000,  0.0000)
  13 Li     7.401525    7.120077   15.081065    ( 0.0000,  0.0000,  0.0000)
  14 Li     2.460915    4.270837   15.928627    ( 0.0000,  0.0000,  0.0000)
  15 Li     4.978211    5.658534   16.982678    ( 0.0000,  0.0000,  0.0000)
  16 Li     4.935605    8.548719   10.000000    ( 0.0000,  0.0000,  0.0000)
  17 Li     7.403408    9.973506   11.007476    ( 0.0000,  0.0000,  0.0000)
  18 Li     9.871211   11.398292   12.014952    ( 0.0000,  0.0000,  0.0000)
  19 Li     4.935605    8.548719   13.022429    ( 0.0000,  0.0000,  0.0000)
  20 Li     7.394586    9.969720   14.029897    ( 0.0000,  0.0000,  0.0000)
  21 Li     9.868950   11.403772   15.033170    ( 0.0000,  0.0000,  0.0000)
  22 Li     4.940095    8.541860   15.852376    ( 0.0000,  0.0000,  0.0000)
  23 Li     7.460330    9.949379   16.980502    ( 0.0000,  0.0000,  0.0000)
  24 Li     4.935605    0.000000   10.000000    ( 0.0000,  0.0000,  0.0000)
  25 Li     7.403408    1.424787   11.007476    ( 0.0000,  0.0000,  0.0000)
  26 Li     9.871211    2.849573   12.014952    ( 0.0000,  0.0000,  0.0000)
  27 Li     4.935605    0.000000   13.022429    ( 0.0000,  0.0000,  0.0000)
  28 Li     7.406765    1.416498   14.030913    ( 0.0000,  0.0000,  0.0000)
  29 Li     9.866930    2.849870   15.081065    ( 0.0000,  0.0000,  0.0000)
  30 Li     4.929111   -0.004203   15.928627    ( 0.0000,  0.0000,  0.0000)
  31 Li     7.389540    1.481990   16.982678    ( 0.0000,  0.0000,  0.0000)
  32 Li     7.403408    4.274360   10.000000    ( 0.0000,  0.0000,  0.0000)
  33 Li     9.871211    5.699146   11.007476    ( 0.0000,  0.0000,  0.0000)
  34 Li    12.339013    7.123933   12.014952    ( 0.0000,  0.0000,  0.0000)
  35 Li     7.403408    4.274360   13.022429    ( 0.0000,  0.0000,  0.0000)
  36 Li     9.872531    5.699908   14.001256    ( 0.0000,  0.0000,  0.0000)
  37 Li    12.332496    7.120170   15.083137    ( 0.0000,  0.0000,  0.0000)
  38 Li     7.375465    4.258227   15.800208    ( 0.0000,  0.0000,  0.0000)
  39 Li     9.869915    5.698398   16.923285    ( 0.0000,  0.0000,  0.0000)
  40 Li     9.871211    8.548719   10.000000    ( 0.0000,  0.0000,  0.0000)
  41 Li    12.339013    9.973506   11.007476    ( 0.0000,  0.0000,  0.0000)
  42 Li    14.806816   11.398292   12.014952    ( 0.0000,  0.0000,  0.0000)
  43 Li     9.871211    8.548719   13.022429    ( 0.0000,  0.0000,  0.0000)
  44 Li    12.345304    9.966861   14.028292    ( 0.0000,  0.0000,  0.0000)
  45 Li    14.808465   11.387617   15.095446    ( 0.0000,  0.0000,  0.0000)
  46 Li     9.869825    8.576979   15.797403    ( 0.0000,  0.0000,  0.0000)
  47 Li    12.279172    9.948567   16.977219    ( 0.0000,  0.0000,  0.0000)
  48 Li     9.871211    0.000000   10.000000    ( 0.0000,  0.0000,  0.0000)
  49 Li    12.339013    1.424787   11.007476    ( 0.0000,  0.0000,  0.0000)
  50 Li    14.806816    2.849573   12.014952    ( 0.0000,  0.0000,  0.0000)
  51 Li     9.871211    0.000000   13.022429    ( 0.0000,  0.0000,  0.0000)
  52 Li    12.331324    1.419039   14.029897    ( 0.0000,  0.0000,  0.0000)
  53 Li    14.810431    2.844875   15.033170    ( 0.0000,  0.0000,  0.0000)
  54 Li     9.867515    0.007318   15.852376    ( 0.0000,  0.0000,  0.0000)
  55 Li    12.346580    1.486146   16.980502    ( 0.0000,  0.0000,  0.0000)
  56 Li    12.339013    4.274360   10.000000    ( 0.0000,  0.0000,  0.0000)
  57 Li    14.806816    5.699146   11.007476    ( 0.0000,  0.0000,  0.0000)
  58 Li    17.274619    7.123933   12.014952    ( 0.0000,  0.0000,  0.0000)
  59 Li    12.339013    4.274360   13.022429    ( 0.0000,  0.0000,  0.0000)
  60 Li    14.804207    5.707917   14.028292    ( 0.0000,  0.0000,  0.0000)
  61 Li    17.266198    7.130699   15.095446    ( 0.0000,  0.0000,  0.0000)
  62 Li    12.362794    4.259030   15.797403    ( 0.0000,  0.0000,  0.0000)
  63 Li    14.755298    5.659792   16.977219    ( 0.0000,  0.0000,  0.0000)
  64 Li    14.806816    8.548719   10.000000    ( 0.0000,  0.0000,  0.0000)
  65 Li    17.274619    9.973506   11.007476    ( 0.0000,  0.0000,  0.0000)
  66 Li    19.742421   11.398292   12.014952    ( 0.0000,  0.0000,  0.0000)
  67 Li    14.806816    8.548719   13.022429    ( 0.0000,  0.0000,  0.0000)
  68 Li    17.270919    9.971370   14.019938    ( 0.0000,  0.0000,  0.0000)
  69 Li    19.730019   11.391132   15.097381    ( 0.0000,  0.0000,  0.0000)
  70 Li    14.792866    8.540665   15.852163    ( 0.0000,  0.0000,  0.0000)
  71 Li    17.266780    9.968980   16.934610    ( 0.0000,  0.0000,  0.0000)
  72 Li     2.478624    1.431034   18.618216    ( 0.0000,  0.0000,  0.0000)

Unit cell:
           periodic     x           y           z      points  spacing
  1. axis:    yes   14.806816    0.000000    0.000000    49     0.2617
  2. axis:    yes    7.403408   12.823079    0.000000    49     0.2617
  3. axis:    no     0.000000    0.000000   27.052334    90     0.3006

  Lengths:  14.806816  14.806816  27.052334
  Angles:   90.000000  90.000000  60.000000

Effective grid spacing dv^(1/3) = 0.2875

     iter     time        total  log10-change:
                         energy   eigst   dens
iter:   1 18:40:53  -134.417721
iter:   2 18:41:00  -130.167720   -0.95  -0.52
iter:   3 18:41:06  -125.861931   -0.79  -0.63
iter:   4 18:41:12  -127.105833   -1.33  -0.89
iter:   5 18:41:19  -126.729620   -1.94  -0.84
iter:   6 18:41:25  -125.967610   -1.05  -0.87
iter:   7 18:41:31  -125.127338   -2.02  -1.03
iter:   8 18:41:37  -125.182846   -2.42  -1.41
iter:   9 18:41:43  -125.187418   -2.53  -1.44
iter:  10 18:41:49  -125.160003c  -3.06  -1.50
iter:  11 18:41:56  -125.169098c  -3.10  -1.70
iter:  12 18:42:02  -125.171487c  -3.51  -1.92
iter:  13 18:42:08  -125.161550c  -3.59  -2.06
iter:  14 18:42:14  -125.161861c  -4.17  -2.31
iter:  15 18:42:21  -125.164383c  -4.02  -2.38
iter:  16 18:42:27  -125.161617c  -4.33  -2.43
iter:  17 18:42:33  -125.161356c  -4.54  -2.74
iter:  18 18:42:39  -125.161369c  -4.89  -2.86
iter:  19 18:42:46  -125.161352c  -4.71  -2.97
iter:  20 18:42:53  -125.161195c  -5.06  -3.12
iter:  21 18:43:00  -125.160975c  -5.13  -3.28
iter:  22 18:43:06  -125.160966c  -5.33c -3.29
iter:  23 18:43:14  -125.161100c  -5.29  -3.34
iter:  24 18:43:22  -125.160744c  -5.18  -3.36
iter:  25 18:43:29  -125.160796c  -5.49c -3.38
iter:  26 18:43:36  -125.160808c  -5.55c -3.61
iter:  27 18:43:42  -125.160639c  -5.57c -3.71
iter:  28 18:43:49  -125.160653c  -5.70c -3.64
iter:  29 18:43:55  -125.160646c  -5.78c -3.83
iter:  30 18:44:02  -125.160630c  -5.85c -3.99
iter:  31 18:44:08  -125.160645c  -5.95c -4.14c

Converged after 31 iterations.

Dipole moment: (-10.536705, -6.083370, 0.333618) |e|*Ang

Energy contributions relative to reference atoms: (reference = -14803.510878)

Kinetic:        +99.000719
Potential:      -88.627977
External:        +0.000000
XC:            -134.499152
Entropy (-ST):   -1.150092
Local:           -0.459188
SIC:             +0.000000
--------------------------
Free energy:   -125.735691
Extrapolated:  -125.160645

Showing all kpts
 Kpt  Band  Eigenvalues  Occupancy
  0    34     -1.81116    1.10072
  0    35     -1.77362    0.91358
  0    36     -1.74278    0.76370
  0    37     -1.69319    0.54673

  1    34     -1.93294    1.61064
  1    35     -1.92934    1.59922
  1    36     -1.82428    1.16512
  1    37     -1.72352    0.67505


Fermi level: -1.79095

No gap
No difference between direct/indirect transitions

Forces in eV/Ang:
  0 Li   -0.00526   -0.00303    0.08064
  1 Li    0.00127    0.00074   -0.20402
  2 Li    0.01672    0.00965   -0.08473
  3 Li   -0.01285   -0.00742   -0.07374
  4 Li    0.00095    0.00055   -0.00210
  5 Li    0.00507    0.00293    0.00398
  6 Li   -0.01302   -0.00751    0.03499
  7 Li   -0.00102   -0.00059   -0.02751
  8 Li   -0.00140    0.00466    0.08026
  9 Li   -0.00200    0.00383    0.18254
 10 Li    0.00374    0.00369   -0.05774
 11 Li   -0.00424    0.01226   -0.07194
 12 Li   -0.00344    0.00587    0.03122
 13 Li    0.00620   -0.00140    0.00019
 14 Li   -0.00051    0.01263    0.03581
 15 Li   -0.01677    0.00467   -0.00522
 16 Li    0.00002   -0.00070    0.03697
 17 Li   -0.00065   -0.00222    0.18271
 18 Li    0.00333   -0.01946   -0.08864
 19 Li   -0.00687    0.00296   -0.17696
 20 Li   -0.00662   -0.00079    0.03037
 21 Li   -0.00092   -0.00319    0.00321
 22 Li    0.01281   -0.00931    0.00056
 23 Li   -0.01237    0.01145   -0.00510
 24 Li    0.00333   -0.00355    0.08026
 25 Li    0.00232   -0.00364    0.18254
 26 Li    0.00507    0.00140   -0.05774
 27 Li    0.00850   -0.00980   -0.07194
 28 Li    0.00336   -0.00592    0.03122
 29 Li    0.00188    0.00607    0.00019
 30 Li    0.01068   -0.00676    0.03581
 31 Li   -0.00435   -0.01686   -0.00522
 32 Li   -0.00476   -0.00275    0.03682
 33 Li    0.00264    0.00152    0.17972
 34 Li    0.00232    0.00134   -0.05464
 35 Li   -0.00288   -0.00166   -0.20939
 36 Li    0.00005    0.00003    0.03204
 37 Li   -0.00651   -0.00376   -0.00187
 38 Li    0.03833    0.02213    0.00415
 39 Li    0.00148    0.00085   -0.00234
 40 Li   -0.00178    0.00538    0.03969
 41 Li    0.00394   -0.00241    0.18394
 42 Li    0.00627   -0.00444   -0.06074
 43 Li   -0.00019    0.00056   -0.21312
 44 Li    0.00769   -0.00112    0.03033
 45 Li   -0.00919    0.00598   -0.00752
 46 Li   -0.00018   -0.04985    0.00253
 47 Li    0.01309    0.01109   -0.00415
 48 Li   -0.00060    0.00036    0.03697
 49 Li   -0.00225    0.00054    0.18271
 50 Li   -0.01519    0.01261   -0.08864
 51 Li   -0.00088   -0.00743   -0.17696
 52 Li   -0.00400   -0.00534    0.03037
 53 Li   -0.00322    0.00080    0.00321
 54 Li   -0.00166    0.01575    0.00056
 55 Li    0.00373   -0.01644   -0.00510
 56 Li    0.00377   -0.00423    0.03969
 57 Li   -0.00012    0.00462    0.18394
 58 Li   -0.00071    0.00765   -0.06074
 59 Li    0.00039   -0.00044   -0.21312
 60 Li    0.00287    0.00722    0.03033
 61 Li    0.00059   -0.01095   -0.00752
 62 Li   -0.04326    0.02477    0.00253
 63 Li    0.01615    0.00579   -0.00415
 64 Li    0.00043    0.00025    0.04237
 65 Li   -0.00350   -0.00202    0.17648
 66 Li   -0.00080   -0.00046   -0.06021
 67 Li    0.00502    0.00290   -0.17869
 68 Li   -0.00188   -0.00109    0.02719
 69 Li    0.01060    0.00612   -0.00747
 70 Li   -0.01314   -0.00759   -0.00021
 71 Li   -0.00102   -0.00059    0.01403
 72 Li    0.00534    0.00308   -0.02337

Timing:                              incl.     excl.
-----------------------------------------------------------
Forces:                              4.928     4.928   0.0% |
Hamiltonian:                         1.757     0.006   0.0% |
 Atomic:                             0.700     0.003   0.0% |
  XC Correction:                     0.697     0.697   0.0% |
 Calculate atomic Hamiltonians:      0.705     0.705   0.0% |
 Communicate:                        0.000     0.000   0.0% |
 Initialize Hamiltonian:             0.004     0.004   0.0% |
 Poisson:                            0.005     0.005   0.0% |
 XC 3D grid:                         0.336     0.336   0.0% |
LCAO initialization:                20.574     0.008   0.0% |
 LCAO eigensolver:                   0.415     0.000   0.0% |
  Calculate projections:             0.004     0.004   0.0% |
  DenseAtomicCorrection:             0.046     0.046   0.0% |
  Distribute overlap matrix:         0.000     0.000   0.0% |
  Orbital Layouts:                   0.074     0.074   0.0% |
  Potential matrix:                  0.287     0.287   0.0% |
  Sum over cells:                    0.004     0.004   0.0% |
 LCAO to grid:                      19.531    19.531   0.1% |
 Set positions (LCAO WFS):           0.621     0.153   0.0% |
  Basic WFS set positions:           0.002     0.002   0.0% |
  Basis functions set positions:     0.000     0.000   0.0% |
  P tci:                             0.314     0.314   0.0% |
  ST tci:                            0.134     0.134   0.0% |
  mktci:                             0.019     0.019   0.0% |
PWDescriptor:                        0.015     0.015   0.0% |
SCF-cycle:                         198.455     0.139   0.0% |
 Davidson:                         116.762    21.928   0.1% |
  Apply H:                          20.764    20.562   0.1% |
   HMM T:                            0.201     0.201   0.0% |
  Subspace diag:                    23.120     0.007   0.0% |
   calc_h_matrix:                   21.497     1.238   0.0% |
    Apply H:                        20.258    19.991   0.1% |
     HMM T:                          0.268     0.268   0.0% |
   diagonalize:                      0.054     0.054   0.0% |
   rotate_psi:                       1.562     1.562   0.0% |
  calc. matrices:                   47.507     6.100   0.0% |
   Apply H:                         41.407    40.999   0.2% |
    HMM T:                           0.408     0.408   0.0% |
  diagonalize:                       0.400     0.400   0.0% |
  rotate_psi:                        3.043     3.043   0.0% |
 Density:                           29.568     0.000   0.0% |
  Atomic density matrices:           0.107     0.107   0.0% |
  Mix:                              18.915    18.915   0.1% |
  Multipole moments:                 0.021     0.021   0.0% |
  Pseudo density:                   10.525    10.415   0.0% |
   Symmetrize density:               0.110     0.110   0.0% |
 Hamiltonian:                       51.770     0.114   0.0% |
  Atomic:                           22.640     0.084   0.0% |
   XC Correction:                   22.557    22.557   0.1% |
  Calculate atomic Hamiltonians:    19.273    19.273   0.1% |
  Communicate:                       0.000     0.000   0.0% |
  Poisson:                           0.095     0.095   0.0% |
  XC 3D grid:                        9.648     9.648   0.0% |
 Orthonormalize:                     0.215     0.000   0.0% |
  calc_s_matrix:                     0.022     0.022   0.0% |
  inverse-cholesky:                  0.001     0.001   0.0% |
  projections:                       0.157     0.157   0.0% |
  rotate_psi_s:                      0.035     0.035   0.0% |
Set symmetry:                        0.001     0.001   0.0% |
Other:                           21051.036 21051.036  98.9% |---------------------------------------|
-----------------------------------------------------------
Total:                                     21276.766 100.0%

Memory usage: 4.13 GiB
Date: Tue Nov 25 00:17:01 2025
