73
Lattice="14.806815998046307 0.0 0.0 7.403407999023154 12.823078803469937 0.0 0.0 0.0 27.052333538151277" Properties=species:S:1:pos:R:3:move_mask:L:1:tags:I:1:forces:R:3:magmoms:R:1 energy=-125.1598386895194 dipole="-10.097295082389284 -5.341356951605934 0.334170519302706" magmom=0.0 free_energy=-125.73607242033926 pbc="T T F"
Li       0.00000000       0.00000000      10.00000000  F        4       0.00013225      -0.00007636       0.03668017       0.00000000
Li       2.46780267       1.42478653      11.00747622  F        4      -0.00247586      -0.00123137       0.18285155       0.00000000
Li       4.93560533       2.84957307      12.01495244  F        3       0.00171610      -0.01931373      -0.08660321       0.00000000
Li       0.00000000       0.00000000      13.02242866  F        3      -0.00643328       0.00371426      -0.17667232       0.00000000
Li       2.45887988       1.42352690      14.03071574  T        2      -0.00643125      -0.00013951       0.03033667       0.00000000
Li       4.93462167       2.86133588      15.03580406  T        2      -0.00060156      -0.00418446       0.00370131       0.00000000
Li       0.00644130      -0.00371889      15.85289949  T        1       0.01332375      -0.00769247       0.00051360       0.00000000
Li       2.52481891       1.40492113      16.98194000  T        1      -0.01226482       0.01160976      -0.00519626       0.00000000
Li       2.46780267       4.27435960      10.00000000  F        4      -0.00499004      -0.00218360       0.08007493       0.00000000
Li       4.93560533       5.69914613      11.00747622  F        4       0.00057611      -0.00033261      -0.20177564       0.00000000
Li       7.40340800       7.12393267      12.01495244  F        3       0.01758423       0.00817068      -0.08660321       0.00000000
Li       2.46780267       4.27435960      13.02242866  F        3      -0.01267737      -0.00483787      -0.07248702       0.00000000
Li       4.93398054       5.70008421      13.57442331  T        2       0.00047841      -0.00027621      -0.00488847       0.00000000
Li       7.39272927       7.11890314      15.03580406  T        2       0.00332307       0.00261319       0.00370131       0.00000000
Li       2.46699731       4.27828870      15.92863634  T        1      -0.01145108      -0.00657244       0.03467271       0.00000000
Li       4.93245793       5.70096329      16.04227142  T        1      -0.00028228       0.00016298      -0.02807525       0.00000000
Li       4.93560533       8.54871920      10.00000000  F        4      -0.00060396       0.00541330       0.08007493       0.00000000
Li       7.40340800       9.97350574      11.00747622  F        4      -0.00017154       0.00275984       0.18285155       0.00000000
Li       9.87121067      11.39829227      12.01495244  F        3       0.00125387      -0.00072392      -0.05774565       0.00000000
Li       4.93560533       8.54871920      13.02242866  F        3      -0.00214897       0.01339786      -0.07248702       0.00000000
Li       7.40003748       9.98186292      14.03071574  T        2      -0.00309481       0.00563938       0.03033667       0.00000000
Li       9.87132416      11.39822674      15.08085724  T        2       0.00552980      -0.00319263       0.00055903       0.00000000
Li       4.93179995       8.54745211      15.92863634  T        1      -0.00003364       0.01320314       0.03467271       0.00000000
Li       7.44912007       9.93406092      16.98194000  T        1      -0.01618676       0.00481676      -0.00519626       0.00000000
Li       4.93560533       0.00000000      10.00000000  F        4      -0.00094570       0.00527754       0.03813586       0.00000000
Li       7.40340800       1.42478653      11.00747622  F        4       0.00405325      -0.00133632       0.18366383       0.00000000
Li       9.87121067       2.84957307      12.01495244  F        3       0.00661343      -0.00381826      -0.06072707       0.00000000
Li       4.93560533       0.00000000      13.02242866  F        3      -0.00004505       0.00227855      -0.21072856       0.00000000
Li       7.41104436       1.42207975      14.03016395  T        2       0.00709129      -0.00036443       0.03005092       0.00000000
Li       9.87691266       2.84628102      15.09552990  T        2      -0.00916064       0.00528890      -0.00726013       0.00000000
Li       4.93505195       0.03016047      15.79936988  T        1      -0.00010179      -0.04696365       0.00281179       0.00000000
Li       7.34532897       1.40367992      16.98056698  T        1       0.01253101       0.01146425      -0.00470588       0.00000000
Li       7.40340800       4.27435960      10.00000000  F        4       0.00395246      -0.00228195       0.07995525       0.00000000
Li       9.87121067       5.69914613      11.00747622  F        4       0.00318391      -0.00284206       0.18366383       0.00000000
Li      12.33901333       7.12393267      12.01495244  F        3       0.00254151      -0.00074480      -0.05622179       0.00000000
Li       7.40340800       4.27435960      13.02242866  F        3       0.01051738      -0.00607221      -0.07137042       0.00000000
Li       9.87737299       5.69388625      14.03016395  T        2       0.00386125      -0.00595902       0.03005092       0.00000000
Li      12.33703141       7.12757151      15.08195454  T        2       0.00087369       0.00718448      -0.00047629       0.00000000
Li       7.40062411       4.27596688      15.92958178  T        1       0.01027286      -0.00593104       0.03499044       0.00000000
Li       9.86045002       5.75999736      16.98056698  T        1      -0.00366283      -0.01658430      -0.00470588       0.00000000
Li       9.87121067       8.54871920      10.00000000  F        4      -0.00504334      -0.00181977       0.03813586       0.00000000
Li      12.33901333       9.97350574      11.00747622  F        4       0.00134042      -0.00077389       0.17985404       0.00000000
Li      14.80681600      11.39829227      12.01495244  F        3       0.00191577      -0.00182861      -0.05622179       0.00000000
Li       9.87121067       8.54871920      13.02242866  F        3      -0.00199580      -0.00110026      -0.21072856       0.00000000
Li      12.33967435       9.97312410      14.00121778  T        2       0.00016199      -0.00009353       0.03228667       0.00000000
Li      14.80267371      11.39818924      15.08195454  T        2      -0.00578510      -0.00434888      -0.00047629       0.00000000
Li       9.84481424       8.53411821      15.79936988  T        1       0.04062081       0.02356998       0.00281179       0.00000000
Li      12.33890963       9.97356561      16.92406164  T        1       0.00061456      -0.00035482      -0.00269443       0.00000000
Li       9.87121067       0.00000000      10.00000000  F        4       0.00014688       0.00039784       0.03951153       0.00000000
Li      12.33901333       1.42478653      11.00747622  F        4      -0.00173457       0.00100146       0.17634448       0.00000000
Li      14.80681600       2.84957307      12.01495244  F        3      -0.00386942      -0.00178114      -0.06044035       0.00000000
Li       9.87121067       0.00000000      13.02242866  F        3       0.00538202       0.00358862      -0.17747798       0.00000000
Li      12.33720717       1.42582932      14.02021785  T        2      -0.00103682       0.00059861       0.02690178       0.00000000
Li      14.79558734       2.84811273      15.09643983  T        2       0.01000014       0.00534447      -0.00727926       0.00000000
Li       9.85995160      -0.00426463      15.85279457  T        1      -0.01353375      -0.00666500      -0.00031111       0.00000000
Li      12.33478823       1.42722590      16.93552608  T        1      -0.00037465       0.00021630       0.01372673       0.00000000
Li      12.33901333       4.27435960      10.00000000  F        4      -0.00027110      -0.00032613       0.03951153       0.00000000
Li      14.80681600       5.69914613      11.00747622  F        4      -0.00316875      -0.00082875       0.18365092       0.00000000
Li      17.27461866       7.12393267      12.01495244  F        3      -0.01674730       0.00966906      -0.08848637       0.00000000
Li      12.33901333       4.27435960      13.02242866  F        3      -0.00041683      -0.00645527      -0.17747798       0.00000000
Li      14.79858469       5.69513963      14.02949169  T        2      -0.00422598      -0.00564280       0.02972959       0.00000000
Li      17.27942237       7.12115925      15.03323891  T        2      -0.00260786       0.00150565       0.00310844       0.00000000
Li      12.33707708       4.28624255      15.85279457  T        1      -0.00099481       0.01505307      -0.00031111       0.00000000
Li      14.81425383       5.76162753      16.97932700  T        1       0.00339171      -0.01630204      -0.00457275       0.00000000
Li      14.80681600       8.54871920      10.00000000  F        4       0.00446822      -0.00257973       0.03966600       0.00000000
Li      17.27461866       9.97350574      11.00747622  F        4      -0.00086666       0.00315860       0.18365092       0.00000000
Li      19.74242133      11.39829227      12.01495244  F        3      -0.00039219       0.00424158      -0.06044035       0.00000000
Li      14.80681600       8.54871920      13.02242866  F        3       0.00073174      -0.00042247      -0.21259904       0.00000000
Li      17.27397275       9.98263751      14.02949169  T        2       0.00277382       0.00648121       0.02972959       0.00000000
Li      19.73807169      11.40874675      15.09643983  T        2       0.00037162      -0.01133261      -0.00727926       0.00000000
Li      14.83160605       8.53440666      15.79803478  T        1      -0.04307101       0.02486706       0.00205291       0.00000000
Li      17.22422710       9.93582369      16.97932700  T        1       0.01581384       0.00521371      -0.00457275       0.00000000
Li       4.94107665       5.69598727      18.61900798  T        0       0.00269041      -0.00155331      -0.02237119       0.00000000
