
  ___ ___ ___ _ _ _  
 |   |   |_  | | | | 
 | | | | | . | | | | 
 |__ |  _|___|_____|  25.7.0
 |___|_|             

User:   tew@Mathuss-MacBook-Air-357.local
Date:   Tue Nov 25 03:20:57 2025
Arch:   arm64
Pid:    53498
CWD:    /Users/tew/Documents/Project/GitHub/chem-com
Python: 3.13.5
gpaw:   /Users/tew/Documents/Project/GitHub/chem-com/.venv/lib/python3.13/site-packages/gpaw
_gpaw:  /Users/tew/Documents/Project/GitHub/chem-com/.venv/lib/python3.13/site-packages/
        _gpaw.cpython-313-darwin.so
ase:    /Users/tew/Documents/Project/GitHub/chem-com/.venv/lib/python3.13/site-packages/ase (version 3.26.0)
numpy:  /Users/tew/Documents/Project/GitHub/chem-com/.venv/lib/python3.13/site-packages/numpy (version 2.3.5)
scipy:  /Users/tew/Documents/Project/GitHub/chem-com/.venv/lib/python3.13/site-packages/scipy (version 1.16.3)
libxc:  2.x.y
units:  Angstrom and eV
cores: 1
OpenMP: False
OMP_NUM_THREADS: 1

Input parameters:
  convergence: {density: 0.0001,
                eigenstates: 5e-06}
  kpts: [2 2 1]
  mode: {ecut: 200.0,
         name: pw}
  xc: PBE

System changes: positions, numbers, cell, pbc, initial_charges, initial_magmoms 

Initialize ...

species:
  Li:
    name: Lithium
    id: 830b4218f175192f93f959cfc0aad614
    Z: 3.0
    valence: 1
    core: 2
    charge: 0.0
    file: /Users/tew/Documents/Project/GitHub/chem-com/.venv/lib/python3.13/site-packages/gpaw_data/setups/Li.PBE.gz
    compensation charges: {type: gauss,
                           rc: 0.33,
                           lmax: 2}
    cutoffs: {filter: 1.91,
              core: 2.55}
    projectors:
      #              energy  rcut
      - 2s(1.00)    -2.874   1.058
      - 2p(0.00)    -1.090   1.058
      -  s          24.337   1.058
  
    # Using partial waves for Li as LCAO basis

Reference energy: -14803.510878  # eV

Spin-paired calculation

Convergence criteria:
 Maximum [total energy] change in last 3 cyles: 0.0005 eV / valence electron
 Maximum integral of absolute [dens]ity change: 0.0001 electrons / valence electron
 Maximum integral of absolute [eigenst]ate change: 5e-06 eV^2 / valence electron
 Maximum number of scf [iter]ations: 333
 (Square brackets indicate name in SCF output, whereas a 'c' in
 the SCF output indicates the quantity has converged.)

Symmetries present (total): 1

  ( 1  0  0)
  ( 0  1  0)
  ( 0  0  1)

4 k-points: 2 x 2 x 1 Monkhorst-Pack grid
2 k-points in the irreducible part of the Brillouin zone
       k-points in crystal coordinates                weights
   0:     0.25000000   -0.25000000    0.00000000          2/4
   1:     0.25000000    0.25000000    0.00000000          2/4

Wave functions: Plane wave expansion
  Cutoff energy: 200.000 eV
  Number of coefficients (min, max): 27323, 27323
  Pulay-stress correction: 0.000000 eV/Ang^3 (de/decut=0.000000)
  Using Numpy's FFT
  ScaLapack parameters: grid=1x1, blocksize=None
  Wavefunction extrapolation:
    Improved wavefunction reuse through dual PAW basis 

Occupation numbers: Fermi-Dirac:
  width: 0.1000  # eV
 

Eigensolver
   Davidson(niter=2) 

Densities:
  Coarse grid: 49*35*90 grid
  Fine grid: 98*70*180 grid
  Total Charge: 0.000000 

Density mixing:
  Method: separate
  Backend: pulay
  Linear mixing parameter: 0.05
  old densities: 5
  Damping of long wavelength oscillations: 50 

Hamiltonian:
  XC and Coulomb potentials evaluated on a 98*70*180 grid
  Using the PBE Exchange-Correlation functional
  External potential:
    NoExternalPotential
 

XC parameters: PBE with 2 nearest neighbor stencil

Memory estimate:
  Process memory now: 208.02 MiB
  Calculator: 164.50 MiB
    Density: 71.24 MiB
      Arrays: 30.62 MiB
      Localized functions: 28.85 MiB
      Mixer: 11.78 MiB
    Hamiltonian: 20.61 MiB
      Arrays: 20.02 MiB
      XC: 0.00 MiB
      Poisson: 0.00 MiB
      vbar: 0.59 MiB
    Wavefunctions: 72.65 MiB
      Arrays psit_nG: 40.02 MiB
      Eigensolver: 22.45 MiB
      Projections: 0.53 MiB
      Projectors: 2.92 MiB
      PW-descriptor: 6.72 MiB

Total number of cores used: 1

Number of atoms: 73
Number of atomic orbitals: 292
Number of bands in calculation: 48
Number of valence electrons: 73
Bands to converge: occupied

... initialized

Initializing position-dependent things.

Density initialized from atomic densities
Creating initial wave functions:
  48 bands from LCAO basis set

       .-----------------------------------.  
      /|                                   |  
     / |                                   |  
    /  |                                   |  
   /   |                                   |  
  /    |                                   |  
 *     |                                   |  
 |     |                                   |  
 |     |                                   |  
 |     |                                   |  
 |     |                                   |  
 |     |                                   |  
 |     |                                   |  
 |    Li          Li                       |  
 |     |   Li                 Li           |  
 |     |               Li          Li      |  
 |  LiLii       Li          Li      Li     |  
 |     | Li LiLi Li  Li Li       Li      Li|  
 |Li   |  Li              Li Li            |  
 |     Li      Li  Li Li       Li Li   Li  |  
 |    Li          Li       Li Li           |  
 |     |Li Li       Li Li       Li Li      |  
 |  Li |     Li Li       Li Li             |  
 |     | Li Li       Li Li       Li Li     |  
 |Li Li|      Li Li       Li Li            |  
 |     Li Li       Li Li       Li Li       |  
 | Li  |       Li          Li              |  
 |     |Li          Li          Li         |  
 Li    |     Li          Li                |  
 |     |                                   |  
 |     |                                   |  
 |     |                                   |  
 |     |                                   |  
 |     |                                   |  
 |     .-----------------------------------.  
 |    /                                   /   
 |   /                                   /    
 |  /                                   /     
 | /                                   /      
 |/                                   /       
 *-----------------------------------*        

Atomic positions and initial magnetic moments

Positions:
   0 Li     0.000000    0.000000   10.000000    ( 0.0000,  0.0000,  0.0000)
   1 Li     2.467803    1.745000   10.000000    ( 0.0000,  0.0000,  0.0000)
   2 Li     2.467803    0.000000   12.467803    ( 0.0000,  0.0000,  0.0000)
   3 Li     0.000000    1.745000   12.467803    ( 0.0000,  0.0000,  0.0000)
   4 Li     0.022521   -0.015094   14.838165    ( 0.0000,  0.0000,  0.0000)
   5 Li     2.463298    1.820460   14.751897    ( 0.0000,  0.0000,  0.0000)
   6 Li     2.446048    0.025334   16.838818    ( 0.0000,  0.0000,  0.0000)
   7 Li     0.108763    1.618330   17.313099    ( 0.0000,  0.0000,  0.0000)
   8 Li     0.000000    3.490000   10.000000    ( 0.0000,  0.0000,  0.0000)
   9 Li     2.467803    5.235000   10.000000    ( 0.0000,  0.0000,  0.0000)
  10 Li     2.467803    3.490000   12.467803    ( 0.0000,  0.0000,  0.0000)
  11 Li     0.000000    5.235000   12.467803    ( 0.0000,  0.0000,  0.0000)
  12 Li    -0.015300    3.453266   14.929174    ( 0.0000,  0.0000,  0.0000)
  13 Li     2.470861    5.224633   14.988825    ( 0.0000,  0.0000,  0.0000)
  14 Li     2.446049    3.344594   17.342128    ( 0.0000,  0.0000,  0.0000)
  15 Li     0.059461    5.210985   17.271787    ( 0.0000,  0.0000,  0.0000)
  16 Li     0.000000    6.980000   10.000000    ( 0.0000,  0.0000,  0.0000)
  17 Li     2.467803    8.725000   10.000000    ( 0.0000,  0.0000,  0.0000)
  18 Li     2.467803    6.980000   12.467803    ( 0.0000,  0.0000,  0.0000)
  19 Li     0.000000    8.725000   12.467803    ( 0.0000,  0.0000,  0.0000)
  20 Li    -0.015300    7.031828   14.972922    ( 0.0000,  0.0000,  0.0000)
  21 Li     2.470862    8.659906   14.770098    ( 0.0000,  0.0000,  0.0000)
  22 Li     2.455907    7.100073   17.313731    ( 0.0000,  0.0000,  0.0000)
  23 Li     0.108763    8.875685   17.413762    ( 0.0000,  0.0000,  0.0000)
  24 Li     4.935605    0.000000   10.000000    ( 0.0000,  0.0000,  0.0000)
  25 Li     7.403408    1.745000   10.000000    ( 0.0000,  0.0000,  0.0000)
  26 Li     7.403408    0.000000   12.467803    ( 0.0000,  0.0000,  0.0000)
  27 Li     4.935605    1.745000   12.467803    ( 0.0000,  0.0000,  0.0000)
  28 Li     4.913843    0.001975   14.865466    ( 0.0000,  0.0000,  0.0000)
  29 Li     7.407195    1.735130   14.895164    ( 0.0000,  0.0000,  0.0000)
  30 Li     7.353133    0.001519   17.254773    ( 0.0000,  0.0000,  0.0000)
  31 Li     4.816786    1.618330   17.403052    ( 0.0000,  0.0000,  0.0000)
  32 Li     4.935605    3.490000   10.000000    ( 0.0000,  0.0000,  0.0000)
  33 Li     7.403408    5.235000   10.000000    ( 0.0000,  0.0000,  0.0000)
  34 Li     7.403408    3.490000   12.467803    ( 0.0000,  0.0000,  0.0000)
  35 Li     4.935605    5.235000   12.467803    ( 0.0000,  0.0000,  0.0000)
  36 Li     4.951663    3.436197   14.956474    ( 0.0000,  0.0000,  0.0000)
  37 Li     7.396829    5.234298   14.899210    ( 0.0000,  0.0000,  0.0000)
  38 Li     7.337875    3.451445   17.241743    ( 0.0000,  0.0000,  0.0000)
  39 Li     4.863032    5.227594   17.258471    ( 0.0000,  0.0000,  0.0000)
  40 Li     4.935605    6.980000   10.000000    ( 0.0000,  0.0000,  0.0000)
  41 Li     7.403408    8.725000   10.000000    ( 0.0000,  0.0000,  0.0000)
  42 Li     7.403408    6.980000   12.467803    ( 0.0000,  0.0000,  0.0000)
  43 Li     4.935605    8.725000   12.467803    ( 0.0000,  0.0000,  0.0000)
  44 Li     4.949588    7.031829   14.957507    ( 0.0000,  0.0000,  0.0000)
  45 Li     7.407195    8.735573   14.894049    ( 0.0000,  0.0000,  0.0000)
  46 Li     7.337875    7.017036   17.242198    ( 0.0000,  0.0000,  0.0000)
  47 Li     4.813732    8.859076   17.400445    ( 0.0000,  0.0000,  0.0000)
  48 Li     9.871211    0.000000   10.000000    ( 0.0000,  0.0000,  0.0000)
  49 Li    12.339013    1.745000   10.000000    ( 0.0000,  0.0000,  0.0000)
  50 Li    12.339013    0.000000   12.467803    ( 0.0000,  0.0000,  0.0000)
  51 Li     9.871211    1.745000   12.467803    ( 0.0000,  0.0000,  0.0000)
  52 Li     9.870454    0.001975   14.899236    ( 0.0000,  0.0000,  0.0000)
  53 Li    12.339733    1.735129   14.888409    ( 0.0000,  0.0000,  0.0000)
  54 Li    12.411041    0.025334   17.288584    ( 0.0000,  0.0000,  0.0000)
  55 Li     9.881265    1.737402   17.234003    ( 0.0000,  0.0000,  0.0000)
  56 Li     9.871211    3.490000   10.000000    ( 0.0000,  0.0000,  0.0000)
  57 Li    12.339013    5.235000   10.000000    ( 0.0000,  0.0000,  0.0000)
  58 Li    12.339013    3.490000   12.467803    ( 0.0000,  0.0000,  0.0000)
  59 Li     9.871211    5.235000   12.467803    ( 0.0000,  0.0000,  0.0000)
  60 Li     9.870453    3.484518   14.893666    ( 0.0000,  0.0000,  0.0000)
  61 Li    12.342535    5.224633   14.911771    ( 0.0000,  0.0000,  0.0000)
  62 Li    12.426300    3.427630   17.275555    ( 0.0000,  0.0000,  0.0000)
  63 Li     9.884320    5.227594   17.233681    ( 0.0000,  0.0000,  0.0000)
  64 Li     9.871211    6.980000   10.000000    ( 0.0000,  0.0000,  0.0000)
  65 Li    12.339013    8.725000   10.000000    ( 0.0000,  0.0000,  0.0000)
  66 Li    12.339013    6.980000   12.467803    ( 0.0000,  0.0000,  0.0000)
  67 Li     9.871211    8.725000   12.467803    ( 0.0000,  0.0000,  0.0000)
  68 Li     9.872528    6.983507   14.894699    ( 0.0000,  0.0000,  0.0000)
  69 Li    12.332170    8.745238   14.906611    ( 0.0000,  0.0000,  0.0000)
  70 Li    12.416441    7.017037   17.247157    ( 0.0000,  0.0000,  0.0000)
  71 Li     9.884320    8.740005   17.231396    ( 0.0000,  0.0000,  0.0000)
  72 Li     2.056504    0.290834   19.322725    ( 0.0000,  0.0000,  0.0000)

Unit cell:
           periodic     x           y           z      points  spacing
  1. axis:    yes   14.806816    0.000000    0.000000    49     0.3022
  2. axis:    yes    0.000000   10.470000    0.000000    35     0.2991
  3. axis:    no     0.000000    0.000000   27.403408    90     0.3045

  Lengths:  14.806816  10.470000  27.403408
  Angles:   90.000000  90.000000  90.000000

Effective grid spacing dv^(1/3) = 0.3019

     iter     time        total  log10-change:
                         energy   eigst   dens
iter:   1 03:21:17  -135.981389
iter:   2 03:21:22  -131.460076   -0.87  -0.55
iter:   3 03:21:27  -129.688703   -0.96  -0.70
iter:   4 03:21:32  -130.010819   -1.50  -0.88
iter:   5 03:21:37  -129.242949   -1.93  -0.89
iter:   6 03:21:42  -128.661520   -1.94  -1.01
iter:   7 03:21:47  -128.832234   -1.77  -1.28
iter:   8 03:21:52  -128.659676   -1.97  -1.19
iter:   9 03:21:58  -128.623655   -2.75  -1.40
iter:  10 03:22:03  -128.627478c  -2.31  -1.54
iter:  11 03:22:09  -128.570518   -2.77  -1.55
iter:  12 03:22:16  -128.566414   -3.47  -2.01
iter:  13 03:22:24  -128.566258c  -3.70  -2.14
iter:  14 03:22:34  -128.572135c  -3.45  -2.25
iter:  15 03:22:51  -128.564989c  -3.57  -2.14
iter:  16 03:23:08  -128.564513c  -4.26  -2.33
iter:  17 03:23:23  -128.565757c  -4.28  -2.63
iter:  18 03:23:34  -128.565125c  -4.70  -2.64
iter:  19 03:23:44  -128.564500c  -4.66  -2.75
iter:  20 03:23:53  -128.564617c  -4.98  -2.88
iter:  21 03:24:02  -128.564578c  -5.21  -2.98
iter:  22 03:24:10  -128.564225c  -4.88  -3.06
iter:  23 03:24:18  -128.564384c  -5.19  -2.95
iter:  24 03:24:26  -128.564465c  -5.27  -3.25
iter:  25 03:24:34  -128.564362c  -5.50c -3.48
iter:  26 03:24:42  -128.564286c  -5.54c -3.59
iter:  27 03:24:50  -128.564290c  -5.72c -3.67
iter:  28 03:24:55  -128.564289c  -5.66c -3.76
iter:  29 03:25:00  -128.564221c  -5.62c -3.85
iter:  30 03:25:05  -128.564218c  -5.87c -3.92
iter:  31 03:25:11  -128.564232c  -5.86c -4.01c

Converged after 31 iterations.

Dipole moment: (-6.070811, -3.849496, 0.353340) |e|*Ang

Energy contributions relative to reference atoms: (reference = -14803.510878)

Kinetic:       +114.194323
Potential:      -99.951856
External:        +0.000000
XC:            -141.631393
Entropy (-ST):   -1.390567
Local:           -0.480022
SIC:             +0.000000
--------------------------
Free energy:   -129.259515
Extrapolated:  -128.564232

Showing all kpts
 Kpt  Band  Eigenvalues  Occupancy
  0    34     -1.93989    1.52259
  0    35     -1.89220    1.32876
  0    36     -1.81863    0.97357
  0    37     -1.75842    0.68376

  1    34     -1.93932    1.52050
  1    35     -1.89218    1.32867
  1    36     -1.81866    0.97374
  1    37     -1.75832    0.68328


Fermi level: -1.82392

Gap: 0.074 eV
Transition (v -> c):
  (s=0, k=1, n=35, [0.25, 0.25, 0.00]) -> (s=0, k=1, n=36, [0.25, 0.25, 0.00])
No difference between direct/indirect transitions

Forces in eV/Ang:
  0 Li    0.00136    0.00045    0.09658
  1 Li   -0.00040   -0.00104    0.10501
  2 Li    0.00174   -0.00372   -0.06757
  3 Li   -0.00893    0.01599   -0.08843
  4 Li   -0.03078   -0.00032    0.00996
  5 Li    0.00338    0.02751   -0.01170
  6 Li    0.05876   -0.04906   -0.22956
  7 Li   -0.03754    0.05178   -0.03152
  8 Li    0.00118   -0.00456    0.09452
  9 Li    0.00031   -0.00121    0.08096
 10 Li    0.00068    0.06430   -0.12957
 11 Li    0.00827    0.00683   -0.00106
 12 Li    0.00898   -0.00204   -0.01094
 13 Li   -0.00344    0.00188   -0.04001
 14 Li    0.00601   -0.02658   -0.00747
 15 Li    0.01403    0.00926   -0.00009
 16 Li    0.00015    0.00412    0.09060
 17 Li   -0.00067    0.00216    0.10473
 18 Li   -0.00157   -0.05663   -0.10851
 19 Li   -0.00807   -0.02632   -0.09331
 20 Li    0.01414   -0.00004   -0.01906
 21 Li    0.00291   -0.02477   -0.01560
 22 Li   -0.01267    0.01537   -0.01207
 23 Li   -0.00448   -0.02184   -0.03108
 24 Li   -0.00077    0.00045    0.09200
 25 Li    0.00463    0.00010    0.08574
 26 Li   -0.00250    0.00063   -0.07007
 27 Li    0.00879    0.01496   -0.08567
 28 Li    0.02157   -0.00017    0.02004
 29 Li    0.00438   -0.01252   -0.01245
 30 Li    0.03649    0.00025   -0.02817
 31 Li   -0.01983    0.02900   -0.00503
 32 Li    0.00052   -0.00361    0.09109
 33 Li    0.00655    0.00037    0.09356
 34 Li    0.00156   -0.00419   -0.05859
 35 Li   -0.00637   -0.00148    0.00875
 36 Li   -0.01303   -0.00401   -0.01448
 37 Li    0.00307   -0.00028    0.00244
 38 Li    0.00574    0.00856   -0.01021
 39 Li   -0.01078    0.00061    0.00776
 40 Li    0.00185    0.00308    0.09188
 41 Li    0.00472   -0.00020    0.08533
 42 Li    0.00168    0.00387   -0.05727
 43 Li    0.00881   -0.01433   -0.08426
 44 Li   -0.01415    0.00067   -0.00388
 45 Li    0.00592    0.01250   -0.01097
 46 Li    0.00447   -0.00885   -0.01111
 47 Li   -0.01478   -0.01626   -0.00747
 48 Li   -0.00169   -0.00030    0.08945
 49 Li   -0.00367   -0.00043    0.08558
 50 Li    0.00018   -0.00280   -0.07606
 51 Li    0.00035   -0.00183   -0.06647
 52 Li    0.00034    0.00265   -0.02042
 53 Li   -0.00082   -0.01051    0.00494
 54 Li   -0.02794   -0.01674   -0.01838
 55 Li   -0.00870    0.00164   -0.01309
 56 Li   -0.00146    0.00111    0.08810
 57 Li   -0.00700   -0.00028    0.09353
 58 Li   -0.00294   -0.00134   -0.06340
 59 Li    0.00001   -0.00085   -0.05977
 60 Li   -0.00150   -0.00016   -0.01382
 61 Li    0.00069    0.00115    0.00771
 62 Li   -0.01906    0.02224   -0.02733
 63 Li   -0.00108    0.00219   -0.01057
 64 Li   -0.00173   -0.00114    0.08973
 65 Li   -0.00391    0.00087    0.08618
 66 Li   -0.00117    0.00475   -0.04306
 67 Li   -0.00052    0.00268   -0.06447
 68 Li   -0.00134   -0.00203   -0.01240
 69 Li   -0.00215    0.01162   -0.01255
 70 Li   -0.00217   -0.00834   -0.00626
 71 Li   -0.00158   -0.00360   -0.00851
 72 Li    0.03690    0.00881    0.16723

System changes: positions 

Initializing position-dependent things.

Density initialized from wave functions
       .-----------------------------------.  
      /|                                   |  
     / |                                   |  
    /  |                                   |  
   /   |                                   |  
  /    |                                   |  
 *     |                                   |  
 |     |                                   |  
 |     |                                   |  
 |     |                                   |  
 |     |                                   |  
 |     |                                   |  
 |     |                                   |  
 |    Li          Li                       |  
 |     |   Li                 Li           |  
 |     |               Li          Li      |  
 |  LiLii       Li          Li      Li     |  
 |     | Li LiLi Li  Li Li       Li      Li|  
 |Li   |  Li              Li Li            |  
 |     Li      Li  Li Li       Li Li   Li  |  
 |    Li          Li       Li Li           |  
 |     |Li Li       Li Li       Li Li      |  
 |  Li |     Li Li       Li Li             |  
 |     | Li Li       Li Li       Li Li     |  
 |Li Li|      Li Li       Li Li            |  
 |     Li Li       Li Li       Li Li       |  
 | Li  |       Li          Li              |  
 |     |Li          Li          Li         |  
 Li    |     Li          Li                |  
 |     |                                   |  
 |     |                                   |  
 |     |                                   |  
 |     |                                   |  
 |     |                                   |  
 |     .-----------------------------------.  
 |    /                                   /   
 |   /                                   /    
 |  /                                   /     
 | /                                   /      
 |/                                   /       
 *-----------------------------------*        

Atomic positions and initial magnetic moments

Positions:
   0 Li     0.000000    0.000000   10.000000    ( 0.0000,  0.0000,  0.0000)
   1 Li     2.467803    1.745000   10.000000    ( 0.0000,  0.0000,  0.0000)
   2 Li     2.467803    0.000000   12.467803    ( 0.0000,  0.0000,  0.0000)
   3 Li     0.000000    1.745000   12.467803    ( 0.0000,  0.0000,  0.0000)
   4 Li     0.022208   -0.015116   14.838237    ( 0.0000,  0.0000,  0.0000)
   5 Li     2.463326    1.820716   14.751808    ( 0.0000,  0.0000,  0.0000)
   6 Li     2.446608    0.024876   16.836674    ( 0.0000,  0.0000,  0.0000)
   7 Li     0.108359    1.618880   17.312632    ( 0.0000,  0.0000,  0.0000)
   8 Li     0.000000    3.490000   10.000000    ( 0.0000,  0.0000,  0.0000)
   9 Li     2.467803    5.235000   10.000000    ( 0.0000,  0.0000,  0.0000)
  10 Li     2.467803    3.490000   12.467803    ( 0.0000,  0.0000,  0.0000)
  11 Li     0.000000    5.235000   12.467803    ( 0.0000,  0.0000,  0.0000)
  12 Li    -0.015206    3.453278   14.929014    ( 0.0000,  0.0000,  0.0000)
  13 Li     2.470831    5.224639   14.988420    ( 0.0000,  0.0000,  0.0000)
  14 Li     2.446081    3.344326   17.342076    ( 0.0000,  0.0000,  0.0000)
  15 Li     0.059586    5.211047   17.271800    ( 0.0000,  0.0000,  0.0000)
  16 Li     0.000000    6.980000   10.000000    ( 0.0000,  0.0000,  0.0000)
  17 Li     2.467803    8.725000   10.000000    ( 0.0000,  0.0000,  0.0000)
  18 Li     2.467803    6.980000   12.467803    ( 0.0000,  0.0000,  0.0000)
  19 Li     0.000000    8.725000   12.467803    ( 0.0000,  0.0000,  0.0000)
  20 Li    -0.015155    7.031815   14.972737    ( 0.0000,  0.0000,  0.0000)
  21 Li     2.470895    8.659691   14.769993    ( 0.0000,  0.0000,  0.0000)
  22 Li     2.455765    7.100196   17.313597    ( 0.0000,  0.0000,  0.0000)
  23 Li     0.108690    8.875465   17.413428    ( 0.0000,  0.0000,  0.0000)
  24 Li     4.935605    0.000000   10.000000    ( 0.0000,  0.0000,  0.0000)
  25 Li     7.403408    1.745000   10.000000    ( 0.0000,  0.0000,  0.0000)
  26 Li     7.403408    0.000000   12.467803    ( 0.0000,  0.0000,  0.0000)
  27 Li     4.935605    1.745000   12.467803    ( 0.0000,  0.0000,  0.0000)
  28 Li     4.914065    0.001976   14.865674    ( 0.0000,  0.0000,  0.0000)
  29 Li     7.407237    1.735007   14.895040    ( 0.0000,  0.0000,  0.0000)
  30 Li     7.353510    0.001524   17.254485    ( 0.0000,  0.0000,  0.0000)
  31 Li     4.816603    1.618653   17.402965    ( 0.0000,  0.0000,  0.0000)
  32 Li     4.935605    3.490000   10.000000    ( 0.0000,  0.0000,  0.0000)
  33 Li     7.403408    5.235000   10.000000    ( 0.0000,  0.0000,  0.0000)
  34 Li     7.403408    3.490000   12.467803    ( 0.0000,  0.0000,  0.0000)
  35 Li     4.935605    5.235000   12.467803    ( 0.0000,  0.0000,  0.0000)
  36 Li     4.951530    3.436167   14.956313    ( 0.0000,  0.0000,  0.0000)
  37 Li     7.396861    5.234294   14.899233    ( 0.0000,  0.0000,  0.0000)
  38 Li     7.337949    3.451538   17.241637    ( 0.0000,  0.0000,  0.0000)
  39 Li     4.862923    5.227590   17.258545    ( 0.0000,  0.0000,  0.0000)
  40 Li     4.935605    6.980000   10.000000    ( 0.0000,  0.0000,  0.0000)
  41 Li     7.403408    8.725000   10.000000    ( 0.0000,  0.0000,  0.0000)
  42 Li     7.403408    6.980000   12.467803    ( 0.0000,  0.0000,  0.0000)
  43 Li     4.935605    8.725000   12.467803    ( 0.0000,  0.0000,  0.0000)
  44 Li     4.949441    7.031822   14.957453    ( 0.0000,  0.0000,  0.0000)
  45 Li     7.407253    8.735696   14.893939    ( 0.0000,  0.0000,  0.0000)
  46 Li     7.337937    7.016938   17.242084    ( 0.0000,  0.0000,  0.0000)
  47 Li     4.813595    8.858891   17.400330    ( 0.0000,  0.0000,  0.0000)
  48 Li     9.871211    0.000000   10.000000    ( 0.0000,  0.0000,  0.0000)
  49 Li    12.339013    1.745000   10.000000    ( 0.0000,  0.0000,  0.0000)
  50 Li    12.339013    0.000000   12.467803    ( 0.0000,  0.0000,  0.0000)
  51 Li     9.871211    1.745000   12.467803    ( 0.0000,  0.0000,  0.0000)
  52 Li     9.870456    0.002004   14.899031    ( 0.0000,  0.0000,  0.0000)
  53 Li    12.339732    1.735026   14.888451    ( 0.0000,  0.0000,  0.0000)
  54 Li    12.410777    0.025199   17.288437    ( 0.0000,  0.0000,  0.0000)
  55 Li     9.881191    1.737420   17.233878    ( 0.0000,  0.0000,  0.0000)
  56 Li     9.871211    3.490000   10.000000    ( 0.0000,  0.0000,  0.0000)
  57 Li    12.339013    5.235000   10.000000    ( 0.0000,  0.0000,  0.0000)
  58 Li    12.339013    3.490000   12.467803    ( 0.0000,  0.0000,  0.0000)
  59 Li     9.871211    5.235000   12.467803    ( 0.0000,  0.0000,  0.0000)
  60 Li     9.870437    3.484515   14.893528    ( 0.0000,  0.0000,  0.0000)
  61 Li    12.342536    5.224632   14.911862    ( 0.0000,  0.0000,  0.0000)
  62 Li    12.426120    3.427829   17.275321    ( 0.0000,  0.0000,  0.0000)
  63 Li     9.884326    5.227606   17.233578    ( 0.0000,  0.0000,  0.0000)
  64 Li     9.871211    6.980000   10.000000    ( 0.0000,  0.0000,  0.0000)
  65 Li    12.339013    8.725000   10.000000    ( 0.0000,  0.0000,  0.0000)
  66 Li    12.339013    6.980000   12.467803    ( 0.0000,  0.0000,  0.0000)
  67 Li     9.871211    8.725000   12.467803    ( 0.0000,  0.0000,  0.0000)
  68 Li     9.872516    6.983486   14.894576    ( 0.0000,  0.0000,  0.0000)
  69 Li    12.332145    8.745365   14.906501    ( 0.0000,  0.0000,  0.0000)
  70 Li    12.416418    7.016944   17.247098    ( 0.0000,  0.0000,  0.0000)
  71 Li     9.884321    8.739977   17.231314    ( 0.0000,  0.0000,  0.0000)
  72 Li     2.056346    0.291294   19.324397    ( 0.0000,  0.0000,  0.0000)

Unit cell:
           periodic     x           y           z      points  spacing
  1. axis:    yes   14.806816    0.000000    0.000000    49     0.3022
  2. axis:    yes    0.000000   10.470000    0.000000    35     0.2991
  3. axis:    no     0.000000    0.000000   27.403408    90     0.3045

  Lengths:  14.806816  10.470000  27.403408
  Angles:   90.000000  90.000000  90.000000

Effective grid spacing dv^(1/3) = 0.3019

     iter     time        total  log10-change:
                         energy   eigst   dens
iter:   1 03:39:10  -128.565159   -4.81
iter:   2 03:39:14  -128.565000   -5.10  -2.72
iter:   3 03:39:19  -128.565120c  -5.74c -2.92
iter:   4 03:39:23  -128.565313c  -5.67c -3.32
iter:   5 03:39:27  -128.565194c  -6.06c -3.64
iter:   6 03:39:31  -128.565196c  -6.20c -3.74
iter:   7 03:39:35  -128.565229c  -6.23c -4.11c

Converged after 7 iterations.

Dipole moment: (-6.065451, -3.842551, 0.353771) |e|*Ang

Energy contributions relative to reference atoms: (reference = -14803.510878)

Kinetic:       +114.194634
Potential:      -99.951427
External:        +0.000000
XC:            -141.630437
Entropy (-ST):   -1.390902
Local:           -0.482547
SIC:             +0.000000
--------------------------
Free energy:   -129.260679
Extrapolated:  -128.565229

Showing all kpts
 Kpt  Band  Eigenvalues  Occupancy
  0    34     -1.93989    1.52242
  0    35     -1.89217    1.32842
  0    36     -1.81862    0.97332
  0    37     -1.75847    0.68377

  1    34     -1.93931    1.52031
  1    35     -1.89215    1.32834
  1    36     -1.81865    0.97348
  1    37     -1.75836    0.68332


Fermi level: -1.82396

Gap: 0.073 eV
Transition (v -> c):
  (s=0, k=1, n=35, [0.25, 0.25, 0.00]) -> (s=0, k=1, n=36, [0.25, 0.25, 0.00])
No difference between direct/indirect transitions

Forces in eV/Ang:
  0 Li    0.00137    0.00045    0.09669
  1 Li   -0.00041   -0.00101    0.10509
  2 Li    0.00173   -0.00364   -0.06693
  3 Li   -0.00901    0.01589   -0.08838
  4 Li   -0.03028   -0.00025    0.00952
  5 Li    0.00327    0.02757   -0.01210
  6 Li    0.05690   -0.04779   -0.22156
  7 Li   -0.03660    0.05061   -0.03075
  8 Li    0.00121   -0.00450    0.09462
  9 Li    0.00024   -0.00118    0.08092
 10 Li    0.00069    0.06448   -0.12983
 11 Li    0.00834    0.00683   -0.00107
 12 Li    0.00880   -0.00207   -0.01077
 13 Li   -0.00338    0.00170   -0.03953
 14 Li    0.00585   -0.02606   -0.00742
 15 Li    0.01400    0.00900    0.00021
 16 Li    0.00021    0.00409    0.09062
 17 Li   -0.00067    0.00208    0.10478
 18 Li   -0.00160   -0.05688   -0.10874
 19 Li   -0.00819   -0.02622   -0.09332
 20 Li    0.01397    0.00031   -0.01872
 21 Li    0.00283   -0.02520   -0.01616
 22 Li   -0.01243    0.01500   -0.01214
 23 Li   -0.00441   -0.02127   -0.03073
 24 Li   -0.00078    0.00044    0.09212
 25 Li    0.00463    0.00010    0.08576
 26 Li   -0.00243    0.00064   -0.07020
 27 Li    0.00886    0.01488   -0.08563
 28 Li    0.02122   -0.00013    0.01954
 29 Li    0.00431   -0.01217   -0.01243
 30 Li    0.03551    0.00028   -0.02779
 31 Li   -0.01926    0.02848   -0.00478
 32 Li    0.00048   -0.00361    0.09112
 33 Li    0.00651    0.00038    0.09352
 34 Li    0.00160   -0.00417   -0.05844
 35 Li   -0.00637   -0.00147    0.00880
 36 Li   -0.01289   -0.00412   -0.01410
 37 Li    0.00311   -0.00026    0.00213
 38 Li    0.00534    0.00843   -0.01010
 39 Li   -0.01091    0.00044    0.00808
 40 Li    0.00179    0.00309    0.09188
 41 Li    0.00470   -0.00022    0.08534
 42 Li    0.00177    0.00383   -0.05708
 43 Li    0.00895   -0.01425   -0.08417
 44 Li   -0.01398    0.00099   -0.00371
 45 Li    0.00588    0.01212   -0.01099
 46 Li    0.00421   -0.00871   -0.01099
 47 Li   -0.01424   -0.01608   -0.00726
 48 Li   -0.00174   -0.00027    0.08938
 49 Li   -0.00361   -0.00040    0.08565
 50 Li    0.00017   -0.00277   -0.07618
 51 Li    0.00035   -0.00183   -0.06655
 52 Li    0.00023    0.00258   -0.02003
 53 Li   -0.00055   -0.01035    0.00493
 54 Li   -0.02756   -0.01656   -0.01810
 55 Li   -0.00847    0.00160   -0.01310
 56 Li   -0.00146    0.00105    0.08812
 57 Li   -0.00695   -0.00027    0.09348
 58 Li   -0.00301   -0.00139   -0.06320
 59 Li   -0.00006   -0.00081   -0.05966
 60 Li   -0.00154    0.00006   -0.01374
 61 Li    0.00056    0.00114    0.00728
 62 Li   -0.01860    0.02195   -0.02704
 63 Li   -0.00121    0.00222   -0.01073
 64 Li   -0.00172   -0.00110    0.08977
 65 Li   -0.00382    0.00082    0.08622
 66 Li   -0.00126    0.00477   -0.04294
 67 Li   -0.00053    0.00264   -0.06449
 68 Li   -0.00139   -0.00220   -0.01236
 69 Li   -0.00194    0.01136   -0.01234
 70 Li   -0.00185   -0.00800   -0.00609
 71 Li   -0.00153   -0.00361   -0.00858
 72 Li    0.03716    0.00858    0.16008

System changes: positions 

Initializing position-dependent things.

Density initialized from wave functions
       .-----------------------------------.  
      /|                                   |  
     / |                                   |  
    /  |                                   |  
   /   |                                   |  
  /    |                                   |  
 *     |                                   |  
 |     |                                   |  
 |     |                                   |  
 |     |                                   |  
 |     |                                   |  
 |     |                                   |  
 |     |                                   |  
 |    Li          Li                       |  
 |     |   Li                 Li           |  
 |     |               Li          Li      |  
 |  LiLii       Li          Li      Li     |  
 |     | Li LiLi Li  Li Li       Li      Li|  
 |Li   |  Li              Li Li            |  
 |     Li      Li  Li Li       Li Li   Li  |  
 |    Li          Li       Li Li           |  
 |     |Li Li       Li Li       Li Li      |  
 |  Li |     Li Li       Li Li             |  
 |     | Li Li       Li Li       Li Li     |  
 |Li Li|      Li Li       Li Li            |  
 |     Li Li       Li Li       Li Li       |  
 | Li  |       Li          Li              |  
 |     |Li          Li          Li         |  
 Li    |     Li          Li                |  
 |     |                                   |  
 |     |                                   |  
 |     |                                   |  
 |     |                                   |  
 |     |                                   |  
 |     .-----------------------------------.  
 |    /                                   /   
 |   /                                   /    
 |  /                                   /     
 | /                                   /      
 |/                                   /       
 *-----------------------------------*        

Atomic positions and initial magnetic moments

Positions:
   0 Li     0.000000    0.000000   10.000000    ( 0.0000,  0.0000,  0.0000)
   1 Li     2.467803    1.745000   10.000000    ( 0.0000,  0.0000,  0.0000)
   2 Li     2.467803    0.000000   12.467803    ( 0.0000,  0.0000,  0.0000)
   3 Li     0.000000    1.745000   12.467803    ( 0.0000,  0.0000,  0.0000)
   4 Li     0.021585   -0.015160   14.838377    ( 0.0000,  0.0000,  0.0000)
   5 Li     2.463381    1.821230   14.751624    ( 0.0000,  0.0000,  0.0000)
   6 Li     2.447711    0.023970   16.832461    ( 0.0000,  0.0000,  0.0000)
   7 Li     0.107562    1.619969   17.311708    ( 0.0000,  0.0000,  0.0000)
   8 Li     0.000000    3.490000   10.000000    ( 0.0000,  0.0000,  0.0000)
   9 Li     2.467803    5.235000   10.000000    ( 0.0000,  0.0000,  0.0000)
  10 Li     2.467803    3.490000   12.467803    ( 0.0000,  0.0000,  0.0000)
  11 Li     0.000000    5.235000   12.467803    ( 0.0000,  0.0000,  0.0000)
  12 Li    -0.015021    3.453301   14.928696    ( 0.0000,  0.0000,  0.0000)
  13 Li     2.470770    5.224648   14.987614    ( 0.0000,  0.0000,  0.0000)
  14 Li     2.446144    3.343796   17.341973    ( 0.0000,  0.0000,  0.0000)
  15 Li     0.059837    5.211169   17.271828    ( 0.0000,  0.0000,  0.0000)
  16 Li     0.000000    6.980000   10.000000    ( 0.0000,  0.0000,  0.0000)
  17 Li     2.467803    8.725000   10.000000    ( 0.0000,  0.0000,  0.0000)
  18 Li     2.467803    6.980000   12.467803    ( 0.0000,  0.0000,  0.0000)
  19 Li     0.000000    8.725000   12.467803    ( 0.0000,  0.0000,  0.0000)
  20 Li    -0.014866    7.031791   14.972369    ( 0.0000,  0.0000,  0.0000)
  21 Li     2.470960    8.659255   14.769775    ( 0.0000,  0.0000,  0.0000)
  22 Li     2.455484    7.100439   17.313328    ( 0.0000,  0.0000,  0.0000)
  23 Li     0.108546    8.875031   17.412764    ( 0.0000,  0.0000,  0.0000)
  24 Li     4.935605    0.000000   10.000000    ( 0.0000,  0.0000,  0.0000)
  25 Li     7.403408    1.745000   10.000000    ( 0.0000,  0.0000,  0.0000)
  26 Li     7.403408    0.000000   12.467803    ( 0.0000,  0.0000,  0.0000)
  27 Li     4.935605    1.745000   12.467803    ( 0.0000,  0.0000,  0.0000)
  28 Li     4.914507    0.001978   14.866084    ( 0.0000,  0.0000,  0.0000)
  29 Li     7.407322    1.734765   14.894794    ( 0.0000,  0.0000,  0.0000)
  30 Li     7.354256    0.001533   17.253911    ( 0.0000,  0.0000,  0.0000)
  31 Li     4.816242    1.619292   17.402795    ( 0.0000,  0.0000,  0.0000)
  32 Li     4.935605    3.490000   10.000000    ( 0.0000,  0.0000,  0.0000)
  33 Li     7.403408    5.235000   10.000000    ( 0.0000,  0.0000,  0.0000)
  34 Li     7.403408    3.490000   12.467803    ( 0.0000,  0.0000,  0.0000)
  35 Li     4.935605    5.235000   12.467803    ( 0.0000,  0.0000,  0.0000)
  36 Li     4.951264    3.436107   14.955996    ( 0.0000,  0.0000,  0.0000)
  37 Li     7.396926    5.234287   14.899276    ( 0.0000,  0.0000,  0.0000)
  38 Li     7.338093    3.451723   17.241427    ( 0.0000,  0.0000,  0.0000)
  39 Li     4.862703    5.227582   17.258696    ( 0.0000,  0.0000,  0.0000)
  40 Li     4.935605    6.980000   10.000000    ( 0.0000,  0.0000,  0.0000)
  41 Li     7.403408    8.725000   10.000000    ( 0.0000,  0.0000,  0.0000)
  42 Li     7.403408    6.980000   12.467803    ( 0.0000,  0.0000,  0.0000)
  43 Li     4.935605    8.725000   12.467803    ( 0.0000,  0.0000,  0.0000)
  44 Li     4.949149    7.031813   14.957348    ( 0.0000,  0.0000,  0.0000)
  45 Li     7.407369    8.735939   14.893719    ( 0.0000,  0.0000,  0.0000)
  46 Li     7.338057    7.016743   17.241857    ( 0.0000,  0.0000,  0.0000)
  47 Li     4.813327    8.858521   17.400104    ( 0.0000,  0.0000,  0.0000)
  48 Li     9.871211    0.000000   10.000000    ( 0.0000,  0.0000,  0.0000)
  49 Li    12.339013    1.745000   10.000000    ( 0.0000,  0.0000,  0.0000)
  50 Li    12.339013    0.000000   12.467803    ( 0.0000,  0.0000,  0.0000)
  51 Li     9.871211    1.745000   12.467803    ( 0.0000,  0.0000,  0.0000)
  52 Li     9.870460    0.002061   14.898623    ( 0.0000,  0.0000,  0.0000)
  53 Li    12.339732    1.734822   14.888536    ( 0.0000,  0.0000,  0.0000)
  54 Li    12.410251    0.024929   17.288144    ( 0.0000,  0.0000,  0.0000)
  55 Li     9.881045    1.737456   17.233629    ( 0.0000,  0.0000,  0.0000)
  56 Li     9.871211    3.490000   10.000000    ( 0.0000,  0.0000,  0.0000)
  57 Li    12.339013    5.235000   10.000000    ( 0.0000,  0.0000,  0.0000)
  58 Li    12.339013    3.490000   12.467803    ( 0.0000,  0.0000,  0.0000)
  59 Li     9.871211    5.235000   12.467803    ( 0.0000,  0.0000,  0.0000)
  60 Li     9.870405    3.484511   14.893253    ( 0.0000,  0.0000,  0.0000)
  61 Li    12.342538    5.224628   14.912041    ( 0.0000,  0.0000,  0.0000)
  62 Li    12.425765    3.428227   17.274856    ( 0.0000,  0.0000,  0.0000)
  63 Li     9.884337    5.227632   17.233370    ( 0.0000,  0.0000,  0.0000)
  64 Li     9.871211    6.980000   10.000000    ( 0.0000,  0.0000,  0.0000)
  65 Li    12.339013    8.725000   10.000000    ( 0.0000,  0.0000,  0.0000)
  66 Li    12.339013    6.980000   12.467803    ( 0.0000,  0.0000,  0.0000)
  67 Li     9.871211    8.725000   12.467803    ( 0.0000,  0.0000,  0.0000)
  68 Li     9.872492    6.983442   14.894331    ( 0.0000,  0.0000,  0.0000)
  69 Li    12.332099    8.745616   14.906283    ( 0.0000,  0.0000,  0.0000)
  70 Li    12.416375    7.016762   17.246982    ( 0.0000,  0.0000,  0.0000)
  71 Li     9.884323    8.739919   17.231149    ( 0.0000,  0.0000,  0.0000)
  72 Li     2.056049    0.292203   19.327671    ( 0.0000,  0.0000,  0.0000)

Unit cell:
           periodic     x           y           z      points  spacing
  1. axis:    yes   14.806816    0.000000    0.000000    49     0.3022
  2. axis:    yes    0.000000   10.470000    0.000000    35     0.2991
  3. axis:    no     0.000000    0.000000   27.403408    90     0.3045

  Lengths:  14.806816  10.470000  27.403408
  Angles:   90.000000  90.000000  90.000000

Effective grid spacing dv^(1/3) = 0.3019

     iter     time        total  log10-change:
                         energy   eigst   dens
iter:   1 03:42:28  -128.568942   -4.18
iter:   2 03:42:31  -128.567167   -4.36  -2.32
iter:   3 03:42:36  -128.566997c  -5.50c -2.56
iter:   4 03:42:40  -128.567386c  -5.28  -2.98
iter:   5 03:42:44  -128.567221c  -6.03c -3.33
iter:   6 03:42:48  -128.567135c  -6.24c -3.45
iter:   7 03:42:52  -128.567182c  -6.57c -3.76
iter:   8 03:42:56  -128.567212c  -6.65c -4.01c

Converged after 8 iterations.

Dipole moment: (-6.054396, -3.828756, 0.355601) |e|*Ang

Energy contributions relative to reference atoms: (reference = -14803.510878)

Kinetic:       +114.180447
Potential:      -99.943196
External:        +0.000000
XC:            -141.626559
Entropy (-ST):   -1.391012
Local:           -0.482398
SIC:             +0.000000
--------------------------
Free energy:   -129.262718
Extrapolated:  -128.567212

Showing all kpts
 Kpt  Band  Eigenvalues  Occupancy
  0    34     -1.93966    1.52216
  0    35     -1.89195    1.32813
  0    36     -1.81840    0.97297
  0    37     -1.75833    0.68385

  1    34     -1.93908    1.52002
  1    35     -1.89194    1.32807
  1    36     -1.81843    0.97313
  1    37     -1.75824    0.68342


Fermi level: -1.82380

Gap: 0.074 eV
Transition (v -> c):
  (s=0, k=1, n=35, [0.25, 0.25, 0.00]) -> (s=0, k=1, n=36, [0.25, 0.25, 0.00])
No difference between direct/indirect transitions

Forces in eV/Ang:
  0 Li    0.00136    0.00046    0.09647
  1 Li   -0.00042   -0.00102    0.10489
  2 Li    0.00172   -0.00360   -0.06613
  3 Li   -0.00906    0.01587   -0.08845
  4 Li   -0.02952   -0.00019    0.00861
  5 Li    0.00306    0.02794   -0.01335
  6 Li    0.05301   -0.04524   -0.20575
  7 Li   -0.03459    0.04825   -0.02971
  8 Li    0.00122   -0.00454    0.09462
  9 Li    0.00021   -0.00118    0.08077
 10 Li    0.00070    0.06470   -0.13049
 11 Li    0.00836    0.00686   -0.00142
 12 Li    0.00844   -0.00182   -0.01065
 13 Li   -0.00332    0.00145   -0.03841
 14 Li    0.00544   -0.02497   -0.00775
 15 Li    0.01381    0.00861    0.00021
 16 Li    0.00021    0.00412    0.09061
 17 Li   -0.00066    0.00208    0.10460
 18 Li   -0.00160   -0.05713   -0.10938
 19 Li   -0.00826   -0.02621   -0.09348
 20 Li    0.01356    0.00057   -0.01826
 21 Li    0.00268   -0.02630   -0.01785
 22 Li   -0.01205    0.01412   -0.01251
 23 Li   -0.00407   -0.02008   -0.03033
 24 Li   -0.00078    0.00044    0.09191
 25 Li    0.00459    0.00007    0.08564
 26 Li   -0.00228    0.00066   -0.07059
 27 Li    0.00892    0.01482   -0.08570
 28 Li    0.02105   -0.00007    0.01842
 29 Li    0.00420   -0.01153   -0.01236
 30 Li    0.03405    0.00031   -0.02722
 31 Li   -0.01812    0.02741   -0.00461
 32 Li    0.00047   -0.00365    0.09113
 33 Li    0.00652    0.00038    0.09356
 34 Li    0.00154   -0.00414   -0.05853
 35 Li   -0.00639   -0.00143    0.00858
 36 Li   -0.01248   -0.00409   -0.01355
 37 Li    0.00292   -0.00025    0.00177
 38 Li    0.00490    0.00825   -0.01004
 39 Li   -0.01098    0.00031    0.00811
 40 Li    0.00179    0.00314    0.09189
 41 Li    0.00466   -0.00020    0.08525
 42 Li    0.00174    0.00376   -0.05718
 43 Li    0.00903   -0.01423   -0.08422
 44 Li   -0.01358    0.00128   -0.00345
 45 Li    0.00579    0.01148   -0.01094
 46 Li    0.00390   -0.00847   -0.01087
 47 Li   -0.01307   -0.01576   -0.00700
 48 Li   -0.00174   -0.00024    0.08929
 49 Li   -0.00356   -0.00042    0.08552
 50 Li    0.00006   -0.00273   -0.07649
 51 Li    0.00033   -0.00191   -0.06692
 52 Li    0.00018    0.00247   -0.01948
 53 Li   -0.00041   -0.00997    0.00482
 54 Li   -0.02721   -0.01624   -0.01773
 55 Li   -0.00813    0.00164   -0.01314
 56 Li   -0.00145    0.00107    0.08810
 57 Li   -0.00698   -0.00027    0.09353
 58 Li   -0.00298   -0.00137   -0.06319
 59 Li   -0.00009   -0.00078   -0.06003
 60 Li   -0.00152    0.00018   -0.01343
 61 Li    0.00056    0.00120    0.00669
 62 Li   -0.01824    0.02169   -0.02660
 63 Li   -0.00135    0.00227   -0.01082
 64 Li   -0.00170   -0.00113    0.08980
 65 Li   -0.00376    0.00084    0.08612
 66 Li   -0.00122    0.00470   -0.04306
 67 Li   -0.00052    0.00269   -0.06481
 68 Li   -0.00134   -0.00222   -0.01209
 69 Li   -0.00184    0.01074   -0.01205
 70 Li   -0.00159   -0.00768   -0.00603
 71 Li   -0.00152   -0.00373   -0.00875
 72 Li    0.03769    0.00799    0.14740

System changes: positions 

Initializing position-dependent things.

Density initialized from wave functions
       .-----------------------------------.  
      /|                                   |  
     / |                                   |  
    /  |                                   |  
   /   |                                   |  
  /    |                                   |  
 *     |                                   |  
 |     |                                   |  
 |     |                                   |  
 |     |                                   |  
 |     |                                   |  
 |     |                                   |  
 |     |                                   |  
 |    Li          Li                       |  
 |     |   Li                 Li           |  
 |     |               Li          Li      |  
 |  LiLii       Li          Li      Li     |  
 |     | Li LiLi Li  Li Li       Li      Li|  
 |Li   |  Li              Li Li            |  
 |     Li      Li  Li Li       Li Li   Li  |  
 |    Li          Li       Li Li           |  
 |     |Li Li       Li Li       Li Li      |  
 |  Li |     Li Li       Li Li             |  
 |     | Li Li       Li Li       Li Li     |  
 |Li Li|      Li Li       Li Li            |  
 |     Li Li       Li Li       Li Li       |  
 | Li  |       Li          Li              |  
 |     |Li          Li          Li         |  
 Li    |     Li          Li                |  
 |     |                                   |  
 |     |                                   |  
 |     |                                   |  
 |     |                                   |  
 |     |                                   |  
 |     .-----------------------------------.  
 |    /                                   /   
 |   /                                   /    
 |  /                                   /     
 | /                                   /      
 |/                                   /       
 *-----------------------------------*        

Atomic positions and initial magnetic moments

Positions:
   0 Li     0.000000    0.000000   10.000000    ( 0.0000,  0.0000,  0.0000)
   1 Li     2.467803    1.745000   10.000000    ( 0.0000,  0.0000,  0.0000)
   2 Li     2.467803    0.000000   12.467803    ( 0.0000,  0.0000,  0.0000)
   3 Li     0.000000    1.745000   12.467803    ( 0.0000,  0.0000,  0.0000)
   4 Li     0.020659   -0.015224   14.838577    ( 0.0000,  0.0000,  0.0000)
   5 Li     2.463462    1.822010   14.751326    ( 0.0000,  0.0000,  0.0000)
   6 Li     2.449321    0.022638   16.826331    ( 0.0000,  0.0000,  0.0000)
   7 Li     0.106389    1.621575   17.310341    ( 0.0000,  0.0000,  0.0000)
   8 Li     0.000000    3.490000   10.000000    ( 0.0000,  0.0000,  0.0000)
   9 Li     2.467803    5.235000   10.000000    ( 0.0000,  0.0000,  0.0000)
  10 Li     2.467803    3.490000   12.467803    ( 0.0000,  0.0000,  0.0000)
  11 Li     0.000000    5.235000   12.467803    ( 0.0000,  0.0000,  0.0000)
  12 Li    -0.014747    3.453336   14.928223    ( 0.0000,  0.0000,  0.0000)
  13 Li     2.470679    5.224660   14.986415    ( 0.0000,  0.0000,  0.0000)
  14 Li     2.446237    3.343013   17.341810    ( 0.0000,  0.0000,  0.0000)
  15 Li     0.060214    5.211349   17.271870    ( 0.0000,  0.0000,  0.0000)
  16 Li     0.000000    6.980000   10.000000    ( 0.0000,  0.0000,  0.0000)
  17 Li     2.467803    8.725000   10.000000    ( 0.0000,  0.0000,  0.0000)
  18 Li     2.467803    6.980000   12.467803    ( 0.0000,  0.0000,  0.0000)
  19 Li     0.000000    8.725000   12.467803    ( 0.0000,  0.0000,  0.0000)
  20 Li    -0.014436    7.031763   14.971820    ( 0.0000,  0.0000,  0.0000)
  21 Li     2.471056    8.658578   14.769418    ( 0.0000,  0.0000,  0.0000)
  22 Li     2.455066    7.100795   17.312918    ( 0.0000,  0.0000,  0.0000)
  23 Li     0.108336    8.874394   17.411771    ( 0.0000,  0.0000,  0.0000)
  24 Li     4.935605    0.000000   10.000000    ( 0.0000,  0.0000,  0.0000)
  25 Li     7.403408    1.745000   10.000000    ( 0.0000,  0.0000,  0.0000)
  26 Li     7.403408    0.000000   12.467803    ( 0.0000,  0.0000,  0.0000)
  27 Li     4.935605    1.745000   12.467803    ( 0.0000,  0.0000,  0.0000)
  28 Li     4.915168    0.001982   14.866687    ( 0.0000,  0.0000,  0.0000)
  29 Li     7.407449    1.734410   14.894422    ( 0.0000,  0.0000,  0.0000)
  30 Li     7.355357    0.001547   17.253056    ( 0.0000,  0.0000,  0.0000)
  31 Li     4.815712    1.620238   17.402545    ( 0.0000,  0.0000,  0.0000)
  32 Li     4.935605    3.490000   10.000000    ( 0.0000,  0.0000,  0.0000)
  33 Li     7.403408    5.235000   10.000000    ( 0.0000,  0.0000,  0.0000)
  34 Li     7.403408    3.490000   12.467803    ( 0.0000,  0.0000,  0.0000)
  35 Li     4.935605    5.235000   12.467803    ( 0.0000,  0.0000,  0.0000)
  36 Li     4.950871    3.436015   14.955527    ( 0.0000,  0.0000,  0.0000)
  37 Li     7.397023    5.234277   14.899334    ( 0.0000,  0.0000,  0.0000)
  38 Li     7.338301    3.451998   17.241112    ( 0.0000,  0.0000,  0.0000)
  39 Li     4.862369    5.227568   17.258927    ( 0.0000,  0.0000,  0.0000)
  40 Li     4.935605    6.980000   10.000000    ( 0.0000,  0.0000,  0.0000)
  41 Li     7.403408    8.725000   10.000000    ( 0.0000,  0.0000,  0.0000)
  42 Li     7.403408    6.980000   12.467803    ( 0.0000,  0.0000,  0.0000)
  43 Li     4.935605    8.725000   12.467803    ( 0.0000,  0.0000,  0.0000)
  44 Li     4.948714    7.031805   14.957196    ( 0.0000,  0.0000,  0.0000)
  45 Li     7.407543    8.736296   14.893387    ( 0.0000,  0.0000,  0.0000)
  46 Li     7.338231    7.016455   17.241518    ( 0.0000,  0.0000,  0.0000)
  47 Li     4.812939    8.857971   17.399770    ( 0.0000,  0.0000,  0.0000)
  48 Li     9.871211    0.000000   10.000000    ( 0.0000,  0.0000,  0.0000)
  49 Li    12.339013    1.745000   10.000000    ( 0.0000,  0.0000,  0.0000)
  50 Li    12.339013    0.000000   12.467803    ( 0.0000,  0.0000,  0.0000)
  51 Li     9.871211    1.745000   12.467803    ( 0.0000,  0.0000,  0.0000)
  52 Li     9.870464    0.002146   14.898018    ( 0.0000,  0.0000,  0.0000)
  53 Li    12.339734    1.734521   14.888663    ( 0.0000,  0.0000,  0.0000)
  54 Li    12.409464    0.024525   17.287706    ( 0.0000,  0.0000,  0.0000)
  55 Li     9.880828    1.737511   17.233252    ( 0.0000,  0.0000,  0.0000)
  56 Li     9.871211    3.490000   10.000000    ( 0.0000,  0.0000,  0.0000)
  57 Li    12.339013    5.235000   10.000000    ( 0.0000,  0.0000,  0.0000)
  58 Li    12.339013    3.490000   12.467803    ( 0.0000,  0.0000,  0.0000)
  59 Li     9.871211    5.235000   12.467803    ( 0.0000,  0.0000,  0.0000)
  60 Li     9.870356    3.484507   14.892841    ( 0.0000,  0.0000,  0.0000)
  61 Li    12.342540    5.224625   14.912300    ( 0.0000,  0.0000,  0.0000)
  62 Li    12.425235    3.428823   17.274157    ( 0.0000,  0.0000,  0.0000)
  63 Li     9.884348    5.227672   17.233054    ( 0.0000,  0.0000,  0.0000)
  64 Li     9.871211    6.980000   10.000000    ( 0.0000,  0.0000,  0.0000)
  65 Li    12.339013    8.725000   10.000000    ( 0.0000,  0.0000,  0.0000)
  66 Li    12.339013    6.980000   12.467803    ( 0.0000,  0.0000,  0.0000)
  67 Li     9.871211    8.725000   12.467803    ( 0.0000,  0.0000,  0.0000)
  68 Li     9.872456    6.983374   14.893965    ( 0.0000,  0.0000,  0.0000)
  69 Li    12.332031    8.745985   14.905958    ( 0.0000,  0.0000,  0.0000)
  70 Li    12.416315    7.016494   17.246808    ( 0.0000,  0.0000,  0.0000)
  71 Li     9.884325    8.739830   17.230898    ( 0.0000,  0.0000,  0.0000)
  72 Li     2.055649    0.293537   19.332417    ( 0.0000,  0.0000,  0.0000)

Unit cell:
           periodic     x           y           z      points  spacing
  1. axis:    yes   14.806816    0.000000    0.000000    49     0.3022
  2. axis:    yes    0.000000   10.470000    0.000000    35     0.2991
  3. axis:    no     0.000000    0.000000   27.403408    90     0.3045

  Lengths:  14.806816  10.470000  27.403408
  Angles:   90.000000  90.000000  90.000000

Effective grid spacing dv^(1/3) = 0.3019

     iter     time        total  log10-change:
                         energy   eigst   dens
iter:   1 03:45:57  -128.572746   -3.96
iter:   2 03:46:01  -128.569994   -4.25  -2.24
iter:   3 03:46:04  -128.569674c  -5.28  -2.45
iter:   4 03:46:08  -128.570151c  -5.03  -2.85
iter:   5 03:46:12  -128.569911c  -5.90c -3.20
iter:   6 03:46:15  -128.569826c  -6.18c -3.33
iter:   7 03:46:19  -128.569905c  -6.51c -3.62
iter:   8 03:46:23  -128.569918c  -6.90c -3.86
iter:   9 03:46:27  -128.569849c  -6.72c -3.91
iter:  10 03:46:31  -128.569871c  -7.11c -4.01c

Converged after 10 iterations.

Dipole moment: (-6.038310, -3.808481, 0.358023) |e|*Ang

Energy contributions relative to reference atoms: (reference = -14803.510878)

Kinetic:       +114.160821
Potential:      -99.930778
External:        +0.000000
XC:            -141.621958
Entropy (-ST):   -1.391120
Local:           -0.482395
SIC:             +0.000000
--------------------------
Free energy:   -129.265431
Extrapolated:  -128.569871

Showing all kpts
 Kpt  Band  Eigenvalues  Occupancy
  0    34     -1.93907    1.52189
  0    35     -1.89139    1.32797
  0    36     -1.81782    0.97269
  0    37     -1.75776    0.68363

  1    34     -1.93848    1.51973
  1    35     -1.89138    1.32790
  1    36     -1.81785    0.97285
  1    37     -1.75767    0.68321


Fermi level: -1.82328

Gap: 0.074 eV
Transition (v -> c):
  (s=0, k=1, n=35, [0.25, 0.25, 0.00]) -> (s=0, k=1, n=36, [0.25, 0.25, 0.00])
No difference between direct/indirect transitions

Forces in eV/Ang:
  0 Li    0.00132    0.00045    0.09677
  1 Li   -0.00039   -0.00101    0.10528
  2 Li    0.00175   -0.00364   -0.06549
  3 Li   -0.00906    0.01585   -0.08847
  4 Li   -0.02871   -0.00012    0.00719
  5 Li    0.00266    0.02872   -0.01555
  6 Li    0.04715   -0.04157   -0.18297
  7 Li   -0.03182    0.04478   -0.02848
  8 Li    0.00124   -0.00460    0.09499
  9 Li    0.00019   -0.00117    0.08099
 10 Li    0.00067    0.06497   -0.13119
 11 Li    0.00841    0.00693   -0.00131
 12 Li    0.00784   -0.00097   -0.01086
 13 Li   -0.00324    0.00120   -0.03714
 14 Li    0.00475   -0.02348   -0.00855
 15 Li    0.01345    0.00819   -0.00049
 16 Li    0.00026    0.00419    0.09097
 17 Li   -0.00063    0.00208    0.10505
 18 Li   -0.00163   -0.05736   -0.10997
 19 Li   -0.00820   -0.02623   -0.09355
 20 Li    0.01275    0.00037   -0.01807
 21 Li    0.00239   -0.02818   -0.02093
 22 Li   -0.01168    0.01290   -0.01324
 23 Li   -0.00359   -0.01825   -0.02985
 24 Li   -0.00071    0.00045    0.09220
 25 Li    0.00464   -0.00008    0.08568
 26 Li   -0.00234    0.00068   -0.07084
 27 Li    0.00893    0.01460   -0.08569
 28 Li    0.02147   -0.00003    0.01640
 29 Li    0.00418   -0.01059   -0.01234
 30 Li    0.03236    0.00031   -0.02662
 31 Li   -0.01633    0.02592   -0.00458
 32 Li    0.00044   -0.00376    0.09144
 33 Li    0.00657    0.00036    0.09361
 34 Li    0.00135   -0.00423   -0.05828
 35 Li   -0.00657   -0.00133    0.00883
 36 Li   -0.01166   -0.00356   -0.01308
 37 Li    0.00239   -0.00021    0.00141
 38 Li    0.00464    0.00800   -0.01030
 39 Li   -0.01083    0.00023    0.00738
 40 Li    0.00173    0.00325    0.09222
 41 Li    0.00468   -0.00004    0.08530
 42 Li    0.00149    0.00381   -0.05688
 43 Li    0.00900   -0.01410   -0.08405
 44 Li   -0.01274    0.00114   -0.00340
 45 Li    0.00569    0.01050   -0.01091
 46 Li    0.00367   -0.00813   -0.01110
 47 Li   -0.01114   -0.01539   -0.00677
 48 Li   -0.00177   -0.00018    0.08933
 49 Li   -0.00364   -0.00052    0.08564
 50 Li    0.00000   -0.00261   -0.07670
 51 Li    0.00041   -0.00198   -0.06712
 52 Li    0.00012    0.00237   -0.01884
 53 Li   -0.00062   -0.00923    0.00426
 54 Li   -0.02674   -0.01589   -0.01731
 55 Li   -0.00789    0.00185   -0.01340
 56 Li   -0.00145    0.00095    0.08811
 57 Li   -0.00702   -0.00029    0.09372
 58 Li   -0.00282   -0.00139   -0.06268
 59 Li    0.00003   -0.00081   -0.06007
 60 Li   -0.00141    0.00020   -0.01301
 61 Li    0.00074    0.00142    0.00574
 62 Li   -0.01823    0.02161   -0.02629
 63 Li   -0.00144    0.00233   -0.01112
 64 Li   -0.00170   -0.00105    0.08980
 65 Li   -0.00380    0.00095    0.08625
 66 Li   -0.00097    0.00460   -0.04265
 67 Li   -0.00045    0.00279   -0.06496
 68 Li   -0.00114   -0.00215   -0.01164
 69 Li   -0.00195    0.00958   -0.01193
 70 Li   -0.00159   -0.00742   -0.00637
 71 Li   -0.00166   -0.00402   -0.00919
 72 Li    0.03837    0.00697    0.12952

System changes: positions 

Initializing position-dependent things.

Density initialized from wave functions
       .-----------------------------------.  
      /|                                   |  
     / |                                   |  
    /  |                                   |  
   /   |                                   |  
  /    |                                   |  
 *     |                                   |  
 |     |                                   |  
 |     |                                   |  
 |     |                                   |  
 |     |                                   |  
 |     |                                   |  
 |     |                                   |  
 |    Li          Li                       |  
 |     |   Li                 Li           |  
 |     |               Li          Li      |  
 |  LiLii       Li          Li      Li     |  
 |     | Li LiLi Li  Li Li       Li      Li|  
 |Li   |  Li              Li Li            |  
 |     Li      Li  Li Li       Li Li   Li  |  
 |    Li          Li       Li Li           |  
 |     |Li Li       Li Li       Li Li      |  
 |  Li |     Li Li       Li Li             |  
 |     | Li Li       Li Li       Li Li     |  
 |Li Li|      Li Li       Li Li            |  
 |     Li Li       Li Li       Li Li       |  
 | Li  |       Li          Li              |  
 |     |Li          Li          Li         |  
 Li    |     Li          Li                |  
 |     |                                   |  
 |     |                                   |  
 |     |                                   |  
 |     |                                   |  
 |     |                                   |  
 |     .-----------------------------------.  
 |    /                                   /   
 |   /                                   /    
 |  /                                   /     
 | /                                   /      
 |/                                   /       
 *-----------------------------------*        

Atomic positions and initial magnetic moments

Positions:
   0 Li     0.000000    0.000000   10.000000    ( 0.0000,  0.0000,  0.0000)
   1 Li     2.467803    1.745000   10.000000    ( 0.0000,  0.0000,  0.0000)
   2 Li     2.467803    0.000000   12.467803    ( 0.0000,  0.0000,  0.0000)
   3 Li     0.000000    1.745000   12.467803    ( 0.0000,  0.0000,  0.0000)
   4 Li     0.019431   -0.015305   14.838822    ( 0.0000,  0.0000,  0.0000)
   5 Li     2.463564    1.823078   14.750881    ( 0.0000,  0.0000,  0.0000)
   6 Li     2.451381    0.020910   16.818506    ( 0.0000,  0.0000,  0.0000)
   7 Li     0.104865    1.623667   17.308545    ( 0.0000,  0.0000,  0.0000)
   8 Li     0.000000    3.490000   10.000000    ( 0.0000,  0.0000,  0.0000)
   9 Li     2.467803    5.235000   10.000000    ( 0.0000,  0.0000,  0.0000)
  10 Li     2.467803    3.490000   12.467803    ( 0.0000,  0.0000,  0.0000)
  11 Li     0.000000    5.235000   12.467803    ( 0.0000,  0.0000,  0.0000)
  12 Li    -0.014390    3.453393   14.927591    ( 0.0000,  0.0000,  0.0000)
  13 Li     2.470558    5.224671   14.984827    ( 0.0000,  0.0000,  0.0000)
  14 Li     2.446352    3.341989   17.341575    ( 0.0000,  0.0000,  0.0000)
  15 Li     0.060717    5.211587   17.271916    ( 0.0000,  0.0000,  0.0000)
  16 Li     0.000000    6.980000   10.000000    ( 0.0000,  0.0000,  0.0000)
  17 Li     2.467803    8.725000   10.000000    ( 0.0000,  0.0000,  0.0000)
  18 Li     2.467803    6.980000   12.467803    ( 0.0000,  0.0000,  0.0000)
  19 Li     0.000000    8.725000   12.467803    ( 0.0000,  0.0000,  0.0000)
  20 Li    -0.013872    7.031726   14.971087    ( 0.0000,  0.0000,  0.0000)
  21 Li     2.471179    8.657627   14.768873    ( 0.0000,  0.0000,  0.0000)
  22 Li     2.454515    7.101253   17.312354    ( 0.0000,  0.0000,  0.0000)
  23 Li     0.108065    8.873572   17.410447    ( 0.0000,  0.0000,  0.0000)
  24 Li     4.935605    0.000000   10.000000    ( 0.0000,  0.0000,  0.0000)
  25 Li     7.403408    1.745000   10.000000    ( 0.0000,  0.0000,  0.0000)
  26 Li     7.403408    0.000000   12.467803    ( 0.0000,  0.0000,  0.0000)
  27 Li     4.935605    1.745000   12.467803    ( 0.0000,  0.0000,  0.0000)
  28 Li     4.916060    0.001988   14.867460    ( 0.0000,  0.0000,  0.0000)
  29 Li     7.407618    1.733950   14.893923    ( 0.0000,  0.0000,  0.0000)
  30 Li     7.356800    0.001566   17.251918    ( 0.0000,  0.0000,  0.0000)
  31 Li     4.815032    1.621478   17.402217    ( 0.0000,  0.0000,  0.0000)
  32 Li     4.935605    3.490000   10.000000    ( 0.0000,  0.0000,  0.0000)
  33 Li     7.403408    5.235000   10.000000    ( 0.0000,  0.0000,  0.0000)
  34 Li     7.403408    3.490000   12.467803    ( 0.0000,  0.0000,  0.0000)
  35 Li     4.935605    5.235000   12.467803    ( 0.0000,  0.0000,  0.0000)
  36 Li     4.950355    3.435896   14.954910    ( 0.0000,  0.0000,  0.0000)
  37 Li     7.397143    5.234263   14.899403    ( 0.0000,  0.0000,  0.0000)
  38 Li     7.338571    3.452363   17.240686    ( 0.0000,  0.0000,  0.0000)
  39 Li     4.861920    5.227547   17.259231    ( 0.0000,  0.0000,  0.0000)
  40 Li     4.935605    6.980000   10.000000    ( 0.0000,  0.0000,  0.0000)
  41 Li     7.403408    8.725000   10.000000    ( 0.0000,  0.0000,  0.0000)
  42 Li     7.403408    6.980000   12.467803    ( 0.0000,  0.0000,  0.0000)
  43 Li     4.935605    8.725000   12.467803    ( 0.0000,  0.0000,  0.0000)
  44 Li     4.948143    7.031798   14.956996    ( 0.0000,  0.0000,  0.0000)
  45 Li     7.407776    8.736757   14.892941    ( 0.0000,  0.0000,  0.0000)
  46 Li     7.338456    7.016074   17.241059    ( 0.0000,  0.0000,  0.0000)
  47 Li     4.812454    8.857240   17.399330    ( 0.0000,  0.0000,  0.0000)
  48 Li     9.871211    0.000000   10.000000    ( 0.0000,  0.0000,  0.0000)
  49 Li    12.339013    1.745000   10.000000    ( 0.0000,  0.0000,  0.0000)
  50 Li    12.339013    0.000000   12.467803    ( 0.0000,  0.0000,  0.0000)
  51 Li     9.871211    1.745000   12.467803    ( 0.0000,  0.0000,  0.0000)
  52 Li     9.870469    0.002257   14.897217    ( 0.0000,  0.0000,  0.0000)
  53 Li    12.339736    1.734127   14.888828    ( 0.0000,  0.0000,  0.0000)
  54 Li    12.408412    0.023982   17.287121    ( 0.0000,  0.0000,  0.0000)
  55 Li     9.880540    1.737587   17.232738    ( 0.0000,  0.0000,  0.0000)
  56 Li     9.871211    3.490000   10.000000    ( 0.0000,  0.0000,  0.0000)
  57 Li    12.339013    5.235000   10.000000    ( 0.0000,  0.0000,  0.0000)
  58 Li    12.339013    3.490000   12.467803    ( 0.0000,  0.0000,  0.0000)
  59 Li     9.871211    5.235000   12.467803    ( 0.0000,  0.0000,  0.0000)
  60 Li     9.870292    3.484505   14.892295    ( 0.0000,  0.0000,  0.0000)
  61 Li    12.342545    5.224626   14.912627    ( 0.0000,  0.0000,  0.0000)
  62 Li    12.424524    3.429627   17.273218    ( 0.0000,  0.0000,  0.0000)
  63 Li     9.884358    5.227729   17.232622    ( 0.0000,  0.0000,  0.0000)
  64 Li     9.871211    6.980000   10.000000    ( 0.0000,  0.0000,  0.0000)
  65 Li    12.339013    8.725000   10.000000    ( 0.0000,  0.0000,  0.0000)
  66 Li    12.339013    6.980000   12.467803    ( 0.0000,  0.0000,  0.0000)
  67 Li     9.871211    8.725000   12.467803    ( 0.0000,  0.0000,  0.0000)
  68 Li     9.872410    6.983282   14.893480    ( 0.0000,  0.0000,  0.0000)
  69 Li    12.331941    8.746459   14.905523    ( 0.0000,  0.0000,  0.0000)
  70 Li    12.416239    7.016141   17.246570    ( 0.0000,  0.0000,  0.0000)
  71 Li     9.884323    8.739705   17.230551    ( 0.0000,  0.0000,  0.0000)
  72 Li     2.055200    0.295262   19.338452    ( 0.0000,  0.0000,  0.0000)

Unit cell:
           periodic     x           y           z      points  spacing
  1. axis:    yes   14.806816    0.000000    0.000000    49     0.3022
  2. axis:    yes    0.000000   10.470000    0.000000    35     0.2991
  3. axis:    no     0.000000    0.000000   27.403408    90     0.3045

  Lengths:  14.806816  10.470000  27.403408
  Angles:   90.000000  90.000000  90.000000

Effective grid spacing dv^(1/3) = 0.3019

     iter     time        total  log10-change:
                         energy   eigst   dens
iter:   1 03:49:56  -128.577858   -3.79
iter:   2 03:50:00  -128.573529   -4.04  -2.14
iter:   3 03:50:04  -128.572805c  -5.18  -2.37
iter:   4 03:50:08  -128.573347c  -4.89  -2.77
iter:   5 03:50:12  -128.573021c  -5.67c -3.08
iter:   6 03:50:16  -128.572924c  -6.06c -3.17
iter:   7 03:50:20  -128.573010c  -6.45c -3.55
iter:   8 03:50:24  -128.573042c  -6.83c -3.72
iter:   9 03:50:28  -128.572950c  -6.82c -3.79
iter:  10 03:50:32  -128.572978c  -7.34c -3.93
iter:  11 03:50:36  -128.573003c  -7.11c -4.09c

Converged after 11 iterations.

Dipole moment: (-6.016163, -3.781619, 0.361014) |e|*Ang

Energy contributions relative to reference atoms: (reference = -14803.510878)

Kinetic:       +114.137373
Potential:      -99.916132
External:        +0.000000
XC:            -141.616305
Entropy (-ST):   -1.391055
Local:           -0.482412
SIC:             +0.000000
--------------------------
Free energy:   -129.268530
Extrapolated:  -128.573003

Showing all kpts
 Kpt  Band  Eigenvalues  Occupancy
  0    34     -1.93857    1.52143
  0    35     -1.89090    1.32740
  0    36     -1.81734    0.97214
  0    37     -1.75747    0.68395

  1    34     -1.93797    1.51922
  1    35     -1.89089    1.32735
  1    36     -1.81737    0.97228
  1    37     -1.75738    0.68357


Fermi level: -1.82292

Gap: 0.074 eV
Transition (v -> c):
  (s=0, k=1, n=35, [0.25, 0.25, 0.00]) -> (s=0, k=1, n=36, [0.25, 0.25, 0.00])
No difference between direct/indirect transitions

Forces in eV/Ang:
  0 Li    0.00125    0.00047    0.09658
  1 Li   -0.00039   -0.00097    0.10517
  2 Li    0.00177   -0.00359   -0.06448
  3 Li   -0.00907    0.01571   -0.08854
  4 Li   -0.02733    0.00005    0.00591
  5 Li    0.00217    0.02922   -0.01756
  6 Li    0.03991   -0.03683   -0.15464
  7 Li   -0.02804    0.04022   -0.02650
  8 Li    0.00122   -0.00464    0.09485
  9 Li    0.00022   -0.00121    0.08063
 10 Li    0.00068    0.06518   -0.13240
 11 Li    0.00835    0.00696   -0.00173
 12 Li    0.00722   -0.00021   -0.01064
 13 Li   -0.00311    0.00079   -0.03487
 14 Li    0.00389   -0.02187   -0.00896
 15 Li    0.01324    0.00754   -0.00072
 16 Li    0.00020    0.00422    0.09078
 17 Li   -0.00062    0.00207    0.10497
 18 Li   -0.00161   -0.05762   -0.11112
 19 Li   -0.00821   -0.02608   -0.09377
 20 Li    0.01189    0.00038   -0.01732
 21 Li    0.00206   -0.03005   -0.02411
 22 Li   -0.01114    0.01154   -0.01357
 23 Li   -0.00270   -0.01566   -0.02883
 24 Li   -0.00062    0.00047    0.09198
 25 Li    0.00474   -0.00006    0.08535
 26 Li   -0.00224    0.00069   -0.07145
 27 Li    0.00895    0.01434   -0.08571
 28 Li    0.02152    0.00010    0.01436
 29 Li    0.00397   -0.00943   -0.01214
 30 Li    0.02968    0.00037   -0.02543
 31 Li   -0.01450    0.02379   -0.00420
 32 Li    0.00049   -0.00376    0.09130
 33 Li    0.00673    0.00036    0.09333
 34 Li    0.00131   -0.00419   -0.05841
 35 Li   -0.00654   -0.00127    0.00866
 36 Li   -0.01079   -0.00314   -0.01208
 37 Li    0.00177   -0.00020    0.00088
 38 Li    0.00394    0.00758   -0.01013
 39 Li   -0.01099    0.00005    0.00707
 40 Li    0.00181    0.00324    0.09205
 41 Li    0.00480   -0.00007    0.08499
 42 Li    0.00146    0.00374   -0.05699
 43 Li    0.00904   -0.01391   -0.08395
 44 Li   -0.01185    0.00118   -0.00292
 45 Li    0.00547    0.00933   -0.01074
 46 Li    0.00308   -0.00764   -0.01088
 47 Li   -0.00916   -0.01459   -0.00611
 48 Li   -0.00178   -0.00018    0.08901
 49 Li   -0.00373   -0.00054    0.08535
 50 Li   -0.00017   -0.00248   -0.07714
 51 Li    0.00048   -0.00198   -0.06773
 52 Li    0.00013    0.00222   -0.01793
 53 Li   -0.00070   -0.00846    0.00384
 54 Li   -0.02577   -0.01532   -0.01644
 55 Li   -0.00736    0.00207   -0.01334
 56 Li   -0.00149    0.00100    0.08781
 57 Li   -0.00721   -0.00028    0.09346
 58 Li   -0.00286   -0.00141   -0.06250
 59 Li    0.00003   -0.00081   -0.06066
 60 Li   -0.00129    0.00018   -0.01249
 61 Li    0.00093    0.00163    0.00470
 62 Li   -0.01782    0.02124   -0.02535
 63 Li   -0.00157    0.00238   -0.01101
 64 Li   -0.00174   -0.00109    0.08951
 65 Li   -0.00389    0.00096    0.08598
 66 Li   -0.00098    0.00449   -0.04266
 67 Li   -0.00039    0.00278   -0.06552
 68 Li   -0.00094   -0.00199   -0.01117
 69 Li   -0.00197    0.00835   -0.01151
 70 Li   -0.00129   -0.00694   -0.00626
 71 Li   -0.00168   -0.00432   -0.00938
 72 Li    0.03925    0.00581    0.10690

System changes: positions 

Initializing position-dependent things.

Density initialized from wave functions
       .-----------------------------------.  
      /|                                   |  
     / |                                   |  
    /  |                                   |  
   /   |                                   |  
  /    |                                   |  
 *     |                                   |  
 |     |                                   |  
 |     |                                   |  
 |     |                                   |  
 |     |                                   |  
 |     |                                   |  
 |     |                                   |  
 |    Li          Li                       |  
 |     |   Li                 Li           |  
 |     |               Li          Li      |  
 |  LiLii       Li          Li      Li     |  
 |     | Li LiLi Li  Li Li       Li      Li|  
 |Li   |  Li              Li Li            |  
 |     Li      Li  Li Li       Li Li       |  
 |    Li          Li       Li Li       Li  |  
 |     |Li Li       Li Li       Li Li      |  
 |  Li |     Li Li       Li Li             |  
 |     | Li Li       Li Li       Li Li     |  
 |Li Li|      Li Li       Li Li            |  
 |     Li Li       Li Li       Li Li       |  
 | Li  |       Li          Li              |  
 |     |Li          Li          Li         |  
 Li    |     Li          Li                |  
 |     |                                   |  
 |     |                                   |  
 |     |                                   |  
 |     |                                   |  
 |     |                                   |  
 |     .-----------------------------------.  
 |    /                                   /   
 |   /                                   /    
 |  /                                   /     
 | /                                   /      
 |/                                   /       
 *-----------------------------------*        

Atomic positions and initial magnetic moments

Positions:
   0 Li     0.000000    0.000000   10.000000    ( 0.0000,  0.0000,  0.0000)
   1 Li     2.467803    1.745000   10.000000    ( 0.0000,  0.0000,  0.0000)
   2 Li     2.467803    0.000000   12.467803    ( 0.0000,  0.0000,  0.0000)
   3 Li     0.000000    1.745000   12.467803    ( 0.0000,  0.0000,  0.0000)
   4 Li     0.017904   -0.015401   14.839100    ( 0.0000,  0.0000,  0.0000)
   5 Li     2.463683    1.824461   14.750246    ( 0.0000,  0.0000,  0.0000)
   6 Li     2.453819    0.018824   16.809279    ( 0.0000,  0.0000,  0.0000)
   7 Li     0.103026    1.626207   17.306335    ( 0.0000,  0.0000,  0.0000)
   8 Li     0.000000    3.490000   10.000000    ( 0.0000,  0.0000,  0.0000)
   9 Li     2.467803    5.235000   10.000000    ( 0.0000,  0.0000,  0.0000)
  10 Li     2.467803    3.490000   12.467803    ( 0.0000,  0.0000,  0.0000)
  11 Li     0.000000    5.235000   12.467803    ( 0.0000,  0.0000,  0.0000)
  12 Li    -0.013956    3.453480   14.926801    ( 0.0000,  0.0000,  0.0000)
  13 Li     2.470406    5.224678   14.982862    ( 0.0000,  0.0000,  0.0000)
  14 Li     2.446483    3.340733   17.341253    ( 0.0000,  0.0000,  0.0000)
  15 Li     0.061355    5.211881   17.271961    ( 0.0000,  0.0000,  0.0000)
  16 Li     0.000000    6.980000   10.000000    ( 0.0000,  0.0000,  0.0000)
  17 Li     2.467803    8.725000   10.000000    ( 0.0000,  0.0000,  0.0000)
  18 Li     2.467803    6.980000   12.467803    ( 0.0000,  0.0000,  0.0000)
  19 Li     0.000000    8.725000   12.467803    ( 0.0000,  0.0000,  0.0000)
  20 Li    -0.013179    7.031683   14.970169    ( 0.0000,  0.0000,  0.0000)
  21 Li     2.471326    8.656352   14.768075    ( 0.0000,  0.0000,  0.0000)
  22 Li     2.453830    7.101804   17.311625    ( 0.0000,  0.0000,  0.0000)
  23 Li     0.107748    8.872594   17.408790    ( 0.0000,  0.0000,  0.0000)
  24 Li     4.935605    0.000000   10.000000    ( 0.0000,  0.0000,  0.0000)
  25 Li     7.403408    1.745000   10.000000    ( 0.0000,  0.0000,  0.0000)
  26 Li     7.403408    0.000000   12.467803    ( 0.0000,  0.0000,  0.0000)
  27 Li     4.935605    1.745000   12.467803    ( 0.0000,  0.0000,  0.0000)
  28 Li     4.917196    0.001998   14.868384    ( 0.0000,  0.0000,  0.0000)
  29 Li     7.407829    1.733395   14.893289    ( 0.0000,  0.0000,  0.0000)
  30 Li     7.358566    0.001591   17.250499    ( 0.0000,  0.0000,  0.0000)
  31 Li     4.814215    1.622995   17.401816    ( 0.0000,  0.0000,  0.0000)
  32 Li     4.935605    3.490000   10.000000    ( 0.0000,  0.0000,  0.0000)
  33 Li     7.403408    5.235000   10.000000    ( 0.0000,  0.0000,  0.0000)
  34 Li     7.403408    3.490000   12.467803    ( 0.0000,  0.0000,  0.0000)
  35 Li     4.935605    5.235000   12.467803    ( 0.0000,  0.0000,  0.0000)
  36 Li     4.949724    3.435754   14.954151    ( 0.0000,  0.0000,  0.0000)
  37 Li     7.397281    5.234247   14.899477    ( 0.0000,  0.0000,  0.0000)
  38 Li     7.338893    3.452816   17.240143    ( 0.0000,  0.0000,  0.0000)
  39 Li     4.861348    5.227519   17.259607    ( 0.0000,  0.0000,  0.0000)
  40 Li     4.935605    6.980000   10.000000    ( 0.0000,  0.0000,  0.0000)
  41 Li     7.403408    8.725000   10.000000    ( 0.0000,  0.0000,  0.0000)
  42 Li     7.403408    6.980000   12.467803    ( 0.0000,  0.0000,  0.0000)
  43 Li     4.935605    8.725000   12.467803    ( 0.0000,  0.0000,  0.0000)
  44 Li     4.947444    7.031794   14.956756    ( 0.0000,  0.0000,  0.0000)
  45 Li     7.408067    8.737311   14.892375    ( 0.0000,  0.0000,  0.0000)
  46 Li     7.338726    7.015604   17.240477    ( 0.0000,  0.0000,  0.0000)
  47 Li     4.811893    8.856332   17.398793    ( 0.0000,  0.0000,  0.0000)
  48 Li     9.871211    0.000000   10.000000    ( 0.0000,  0.0000,  0.0000)
  49 Li    12.339013    1.745000   10.000000    ( 0.0000,  0.0000,  0.0000)
  50 Li    12.339013    0.000000   12.467803    ( 0.0000,  0.0000,  0.0000)
  51 Li     9.871211    1.745000   12.467803    ( 0.0000,  0.0000,  0.0000)
  52 Li     9.870473    0.002395   14.896221    ( 0.0000,  0.0000,  0.0000)
  53 Li    12.339736    1.733648   14.889028    ( 0.0000,  0.0000,  0.0000)
  54 Li    12.407092    0.023297   17.286389    ( 0.0000,  0.0000,  0.0000)
  55 Li     9.880183    1.737690   17.232079    ( 0.0000,  0.0000,  0.0000)
  56 Li     9.871211    3.490000   10.000000    ( 0.0000,  0.0000,  0.0000)
  57 Li    12.339013    5.235000   10.000000    ( 0.0000,  0.0000,  0.0000)
  58 Li    12.339013    3.490000   12.467803    ( 0.0000,  0.0000,  0.0000)
  59 Li     9.871211    5.235000   12.467803    ( 0.0000,  0.0000,  0.0000)
  60 Li     9.870213    3.484503   14.891613    ( 0.0000,  0.0000,  0.0000)
  61 Li    12.342559    5.224636   14.913011    ( 0.0000,  0.0000,  0.0000)
  62 Li    12.423624    3.430648   17.272032    ( 0.0000,  0.0000,  0.0000)
  63 Li     9.884363    5.227805   17.232068    ( 0.0000,  0.0000,  0.0000)
  64 Li     9.871211    6.980000   10.000000    ( 0.0000,  0.0000,  0.0000)
  65 Li    12.339013    8.725000   10.000000    ( 0.0000,  0.0000,  0.0000)
  66 Li    12.339013    6.980000   12.467803    ( 0.0000,  0.0000,  0.0000)
  67 Li     9.871211    8.725000   12.467803    ( 0.0000,  0.0000,  0.0000)
  68 Li     9.872356    6.983169   14.892875    ( 0.0000,  0.0000,  0.0000)
  69 Li    12.331827    8.747025   14.904974    ( 0.0000,  0.0000,  0.0000)
  70 Li    12.416148    7.015707   17.246264    ( 0.0000,  0.0000,  0.0000)
  71 Li     9.884316    8.739534   17.230099    ( 0.0000,  0.0000,  0.0000)
  72 Li     2.054770    0.297344   19.345527    ( 0.0000,  0.0000,  0.0000)

Unit cell:
           periodic     x           y           z      points  spacing
  1. axis:    yes   14.806816    0.000000    0.000000    49     0.3022
  2. axis:    yes    0.000000   10.470000    0.000000    35     0.2991
  3. axis:    no     0.000000    0.000000   27.403408    90     0.3045

  Lengths:  14.806816  10.470000  27.403408
  Angles:   90.000000  90.000000  90.000000

Effective grid spacing dv^(1/3) = 0.3019

     iter     time        total  log10-change:
                         energy   eigst   dens
iter:   1 03:54:26  -128.585237   -3.55
iter:   2 03:54:30  -128.577548   -3.81  -2.02
iter:   3 03:54:34  -128.576031c  -4.91  -2.25
iter:   4 03:54:38  -128.576656c  -4.64  -2.65
iter:   5 03:54:42  -128.576241c  -5.50c -2.99
iter:   6 03:54:46  -128.576085c  -5.85c -3.10
iter:   7 03:54:50  -128.576210c  -6.22c -3.41
iter:   8 03:54:54  -128.576251c  -6.64c -3.64
iter:   9 03:54:58  -128.576130c  -6.70c -3.68
iter:  10 03:55:02  -128.576167c  -7.29c -3.80
iter:  11 03:55:06  -128.576203c  -7.03c -3.99
iter:  12 03:55:10  -128.576146c  -7.27c -3.97
iter:  13 03:55:14  -128.576188c  -7.47c -4.16c

Converged after 13 iterations.

Dipole moment: (-5.989096, -3.748905, 0.364801) |e|*Ang

Energy contributions relative to reference atoms: (reference = -14803.510878)

Kinetic:       +114.113177
Potential:      -99.900369
External:        +0.000000
XC:            -141.610945
Entropy (-ST):   -1.391022
Local:           -0.482539
SIC:             +0.000000
--------------------------
Free energy:   -129.271699
Extrapolated:  -128.576188

Showing all kpts
 Kpt  Band  Eigenvalues  Occupancy
  0    34     -1.93779    1.52096
  0    35     -1.89013    1.32693
  0    36     -1.81656    0.97151
  0    37     -1.75685    0.68414

  1    34     -1.93717    1.51871
  1    35     -1.89013    1.32691
  1    36     -1.81658    0.97164
  1    37     -1.75677    0.68377


Fermi level: -1.82226

Gap: 0.074 eV
Transition (v -> c):
  (s=0, k=1, n=35, [0.25, 0.25, 0.00]) -> (s=0, k=1, n=36, [0.25, 0.25, 0.00])
No difference between direct/indirect transitions

Forces in eV/Ang:
  0 Li    0.00127    0.00045    0.09659
  1 Li   -0.00043   -0.00080    0.10524
  2 Li    0.00177   -0.00357   -0.06332
  3 Li   -0.00901    0.01557   -0.08852
  4 Li   -0.02570    0.00023    0.00405
  5 Li    0.00162    0.02957   -0.02017
  6 Li    0.03164   -0.03127   -0.12266
  7 Li   -0.02392    0.03502   -0.02457
  8 Li    0.00134   -0.00461    0.09488
  9 Li    0.00021   -0.00126    0.08044
 10 Li    0.00068    0.06548   -0.13388
 11 Li    0.00837    0.00701   -0.00219
 12 Li    0.00640    0.00078   -0.01070
 13 Li   -0.00297    0.00038   -0.03238
 14 Li    0.00290   -0.01974   -0.00980
 15 Li    0.01283    0.00680   -0.00138
 16 Li    0.00028    0.00421    0.09076
 17 Li   -0.00066    0.00195    0.10507
 18 Li   -0.00161   -0.05797   -0.11252
 19 Li   -0.00812   -0.02592   -0.09390
 20 Li    0.01076    0.00027   -0.01673
 21 Li    0.00168   -0.03203   -0.02810
 22 Li   -0.01043    0.00979   -0.01433
 23 Li   -0.00190   -0.01283   -0.02799
 24 Li   -0.00065    0.00048    0.09196
 25 Li    0.00469   -0.00000    0.08529
 26 Li   -0.00218    0.00068   -0.07193
 27 Li    0.00889    0.01405   -0.08560
 28 Li    0.02158    0.00022    0.01171
 29 Li    0.00380   -0.00799   -0.01210
 30 Li    0.02661    0.00041   -0.02429
 31 Li   -0.01214    0.02133   -0.00415
 32 Li    0.00038   -0.00370    0.09138
 33 Li    0.00678    0.00037    0.09336
 34 Li    0.00126   -0.00407   -0.05838
 35 Li   -0.00657   -0.00119    0.00851
 36 Li   -0.00965   -0.00259   -0.01115
 37 Li    0.00110   -0.00017    0.00005
 38 Li    0.00324    0.00717   -0.01020
 39 Li   -0.01107   -0.00012    0.00635
 40 Li    0.00172    0.00319    0.09208
 41 Li    0.00479   -0.00015    0.08497
 42 Li    0.00144    0.00362   -0.05693
 43 Li    0.00901   -0.01369   -0.08365
 44 Li   -0.01069    0.00115   -0.00260
 45 Li    0.00529    0.00788   -0.01075
 46 Li    0.00252   -0.00713   -0.01089
 47 Li   -0.00670   -0.01376   -0.00570
 48 Li   -0.00177   -0.00021    0.08903
 49 Li   -0.00365   -0.00053    0.08530
 50 Li   -0.00032   -0.00233   -0.07741
 51 Li    0.00058   -0.00191   -0.06816
 52 Li    0.00026    0.00201   -0.01706
 53 Li   -0.00098   -0.00753    0.00310
 54 Li   -0.02481   -0.01464   -0.01578
 55 Li   -0.00666    0.00241   -0.01352
 56 Li   -0.00152    0.00114    0.08785
 57 Li   -0.00723   -0.00026    0.09346
 58 Li   -0.00288   -0.00142   -0.06207
 59 Li   -0.00001   -0.00078   -0.06105
 60 Li   -0.00113    0.00017   -0.01206
 61 Li    0.00112    0.00191    0.00329
 62 Li   -0.01754    0.02090   -0.02448
 63 Li   -0.00168    0.00246   -0.01109
 64 Li   -0.00176   -0.00119    0.08956
[...]
   6 Li     2.456546    0.016429   16.798998    ( 0.0000,  0.0000,  0.0000)
   7 Li     0.100906    1.629152   17.303715    ( 0.0000,  0.0000,  0.0000)
   8 Li     0.000000    3.490000   10.000000    ( 0.0000,  0.0000,  0.0000)
   9 Li     2.467803    5.235000   10.000000    ( 0.0000,  0.0000,  0.0000)
  10 Li     2.467803    3.490000   12.467803    ( 0.0000,  0.0000,  0.0000)
  11 Li     0.000000    5.235000   12.467803    ( 0.0000,  0.0000,  0.0000)
  12 Li    -0.013449    3.453612   14.925839    ( 0.0000,  0.0000,  0.0000)
  13 Li     2.470220    5.224674   14.980521    ( 0.0000,  0.0000,  0.0000)
  14 Li     2.446617    3.339255   17.340820    ( 0.0000,  0.0000,  0.0000)
  15 Li     0.062134    5.212227   17.271991    ( 0.0000,  0.0000,  0.0000)
  16 Li     0.000000    6.980000   10.000000    ( 0.0000,  0.0000,  0.0000)
  17 Li     2.467803    8.725000   10.000000    ( 0.0000,  0.0000,  0.0000)
  18 Li     2.467803    6.980000   12.467803    ( 0.0000,  0.0000,  0.0000)
  19 Li     0.000000    8.725000   12.467803    ( 0.0000,  0.0000,  0.0000)
  20 Li    -0.012363    7.031632   14.969055    ( 0.0000,  0.0000,  0.0000)
  21 Li     2.471492    8.654687   14.766927    ( 0.0000,  0.0000,  0.0000)
  22 Li     2.453011    7.102431   17.310701    ( 0.0000,  0.0000,  0.0000)
  23 Li     0.107394    8.871490   17.406781    ( 0.0000,  0.0000,  0.0000)
  24 Li     4.935605    0.000000   10.000000    ( 0.0000,  0.0000,  0.0000)
  25 Li     7.403408    1.745000   10.000000    ( 0.0000,  0.0000,  0.0000)
  26 Li     7.403408    0.000000   12.467803    ( 0.0000,  0.0000,  0.0000)
  27 Li     4.935605    1.745000   12.467803    ( 0.0000,  0.0000,  0.0000)
  28 Li     4.918602    0.002015   14.869430    ( 0.0000,  0.0000,  0.0000)
  29 Li     7.408085    1.732760   14.892509    ( 0.0000,  0.0000,  0.0000)
  30 Li     7.360636    0.001623   17.248787    ( 0.0000,  0.0000,  0.0000)
  31 Li     4.813286    1.624774   17.401340    ( 0.0000,  0.0000,  0.0000)
  32 Li     4.935605    3.490000   10.000000    ( 0.0000,  0.0000,  0.0000)
  33 Li     7.403408    5.235000   10.000000    ( 0.0000,  0.0000,  0.0000)
  34 Li     7.403408    3.490000   12.467803    ( 0.0000,  0.0000,  0.0000)
  35 Li     4.935605    5.235000   12.467803    ( 0.0000,  0.0000,  0.0000)
  36 Li     4.948984    3.435594   14.953253    ( 0.0000,  0.0000,  0.0000)
  37 Li     7.397426    5.234229   14.899541    ( 0.0000,  0.0000,  0.0000)
  38 Li     7.339260    3.453358   17.239472    ( 0.0000,  0.0000,  0.0000)
  39 Li     4.860638    5.227480   17.260051    ( 0.0000,  0.0000,  0.0000)
  40 Li     4.935605    6.980000   10.000000    ( 0.0000,  0.0000,  0.0000)
  41 Li     7.403408    8.725000   10.000000    ( 0.0000,  0.0000,  0.0000)
  42 Li     7.403408    6.980000   12.467803    ( 0.0000,  0.0000,  0.0000)
  43 Li     4.935605    8.725000   12.467803    ( 0.0000,  0.0000,  0.0000)
  44 Li     4.946620    7.031794   14.956478    ( 0.0000,  0.0000,  0.0000)
  45 Li     7.408420    8.737946   14.891678    ( 0.0000,  0.0000,  0.0000)
  46 Li     7.339034    7.015044   17.239758    ( 0.0000,  0.0000,  0.0000)
  47 Li     4.811288    8.855244   17.398159    ( 0.0000,  0.0000,  0.0000)
  48 Li     9.871211    0.000000   10.000000    ( 0.0000,  0.0000,  0.0000)
  49 Li    12.339013    1.745000   10.000000    ( 0.0000,  0.0000,  0.0000)
  50 Li    12.339013    0.000000   12.467803    ( 0.0000,  0.0000,  0.0000)
  51 Li     9.871211    1.745000   12.467803    ( 0.0000,  0.0000,  0.0000)
  52 Li     9.870481    0.002557   14.895026    ( 0.0000,  0.0000,  0.0000)
  53 Li    12.339727    1.733088   14.889256    ( 0.0000,  0.0000,  0.0000)
  54 Li    12.405492    0.022460   17.285500    ( 0.0000,  0.0000,  0.0000)
  55 Li     9.879758    1.737827   17.231256    ( 0.0000,  0.0000,  0.0000)
  56 Li     9.871211    3.490000   10.000000    ( 0.0000,  0.0000,  0.0000)
  57 Li    12.339013    5.235000   10.000000    ( 0.0000,  0.0000,  0.0000)
  58 Li    12.339013    3.490000   12.467803    ( 0.0000,  0.0000,  0.0000)
  59 Li     9.871211    5.235000   12.467803    ( 0.0000,  0.0000,  0.0000)
  60 Li     9.870121    3.484501   14.890788    ( 0.0000,  0.0000,  0.0000)
  61 Li    12.342584    5.224663   14.913432    ( 0.0000,  0.0000,  0.0000)
  62 Li    12.422518    3.431907   17.270583    ( 0.0000,  0.0000,  0.0000)
  63 Li     9.884358    5.227906   17.231379    ( 0.0000,  0.0000,  0.0000)
  64 Li     9.871211    6.980000   10.000000    ( 0.0000,  0.0000,  0.0000)
  65 Li    12.339013    8.725000   10.000000    ( 0.0000,  0.0000,  0.0000)
  66 Li    12.339013    6.980000   12.467803    ( 0.0000,  0.0000,  0.0000)
  67 Li     9.871211    8.725000   12.467803    ( 0.0000,  0.0000,  0.0000)
  68 Li     9.872297    6.983035   14.892144    ( 0.0000,  0.0000,  0.0000)
  69 Li    12.331683    8.747667   14.904303    ( 0.0000,  0.0000,  0.0000)
  70 Li    12.416046    7.015191   17.245882    ( 0.0000,  0.0000,  0.0000)
  71 Li     9.884301    8.739306   17.229523    ( 0.0000,  0.0000,  0.0000)
  72 Li     2.054443    0.299753   19.353342    ( 0.0000,  0.0000,  0.0000)

Unit cell:
           periodic     x           y           z      points  spacing
  1. axis:    yes   14.806816    0.000000    0.000000    49     0.3022
  2. axis:    yes    0.000000   10.470000    0.000000    35     0.2991
  3. axis:    no     0.000000    0.000000   27.403408    90     0.3045

  Lengths:  14.806816  10.470000  27.403408
  Angles:   90.000000  90.000000  90.000000

Effective grid spacing dv^(1/3) = 0.3019

     iter     time        total  log10-change:
                         energy   eigst   dens
iter:   1 03:59:09  -128.591314   -3.43
iter:   2 03:59:13  -128.581201   -3.70  -1.97
iter:   3 03:59:17  -128.579080c  -4.80  -2.19
iter:   4 03:59:22  -128.579714c  -4.53  -2.60
iter:   5 03:59:26  -128.579240c  -5.39c -2.93
iter:   6 03:59:30  -128.579059c  -5.74c -3.05
iter:   7 03:59:34  -128.579196c  -6.12c -3.36
iter:   8 03:59:38  -128.579240c  -6.55c -3.57
iter:   9 03:59:42  -128.579106c  -6.62c -3.62
iter:  10 03:59:46  -128.579149c  -7.22c -3.74
iter:  11 03:59:50  -128.579189c  -6.95c -3.94
iter:  12 03:59:54  -128.579127c  -7.25c -3.92
iter:  13 03:59:58  -128.579175c  -7.42c -4.11c

Converged after 13 iterations.

Dipole moment: (-5.957535, -3.710670, 0.368715) |e|*Ang

Energy contributions relative to reference atoms: (reference = -14803.510878)

Kinetic:       +114.092307
Potential:      -99.886958
External:        +0.000000
XC:            -141.606514
Entropy (-ST):   -1.390951
Local:           -0.482534
SIC:             +0.000000
--------------------------
Free energy:   -129.274651
Extrapolated:  -128.579175

Showing all kpts
 Kpt  Band  Eigenvalues  Occupancy
  0    34     -1.93695    1.52035
  0    35     -1.88933    1.32632
  0    36     -1.81573    0.97075
  0    37     -1.75627    0.68456

  1    34     -1.93631    1.51803
  1    35     -1.88933    1.32634
  1    36     -1.81576    0.97086
  1    37     -1.75619    0.68421


Fermi level: -1.82158

Gap: 0.074 eV
Transition (v -> c):
  (s=0, k=0, n=35, [0.25, -0.25, 0.00]) -> (s=0, k=1, n=36, [0.25, 0.25, 0.00])
Direct/indirect transitions are different
Direct gap: 0.074 eV
Transition at: (s=0, k=1, n=35, [0.25, 0.25, 0.00])

Forces in eV/Ang:
  0 Li    0.00126    0.00044    0.09650
  1 Li   -0.00045   -0.00073    0.10525
  2 Li    0.00178   -0.00353   -0.06193
  3 Li   -0.00898    0.01545   -0.08855
  4 Li   -0.02358    0.00041    0.00202
  5 Li    0.00098    0.02961   -0.02257
  6 Li    0.02265   -0.02508   -0.08828
  7 Li   -0.01943    0.02911   -0.02204
  8 Li    0.00141   -0.00462    0.09492
  9 Li    0.00021   -0.00128    0.08023
 10 Li    0.00067    0.06602   -0.13574
 11 Li    0.00845    0.00708   -0.00279
 12 Li    0.00535    0.00189   -0.01058
 13 Li   -0.00278   -0.00013   -0.02937
 14 Li    0.00181   -0.01725   -0.01060
 15 Li    0.01220    0.00589   -0.00199
 16 Li    0.00032    0.00423    0.09075
 17 Li   -0.00067    0.00190    0.10513
 18 Li   -0.00162   -0.05860   -0.11437
 19 Li   -0.00808   -0.02579   -0.09415
 20 Li    0.00941    0.00024   -0.01580
 21 Li    0.00124   -0.03391   -0.03194
 22 Li   -0.00950    0.00784   -0.01512
 23 Li   -0.00120   -0.00970   -0.02682
 24 Li   -0.00062    0.00048    0.09184
 25 Li    0.00466   -0.00002    0.08518
 26 Li   -0.00203    0.00068   -0.07267
 27 Li    0.00887    0.01376   -0.08560
 28 Li    0.02132    0.00032    0.00882
 29 Li    0.00363   -0.00630   -0.01188
 30 Li    0.02290    0.00046   -0.02283
 31 Li   -0.00933    0.01842   -0.00388
 32 Li    0.00031   -0.00370    0.09145
 33 Li    0.00682    0.00037    0.09330
 34 Li    0.00119   -0.00396   -0.05844
 35 Li   -0.00668   -0.00108    0.00831
 36 Li   -0.00831   -0.00197   -0.00989
 37 Li    0.00037   -0.00013   -0.00083
 38 Li    0.00232    0.00669   -0.01014
 39 Li   -0.01108   -0.00037    0.00572
 40 Li    0.00167    0.00321    0.09211
 41 Li    0.00476   -0.00015    0.08489
 42 Li    0.00139    0.00350   -0.05694
 43 Li    0.00902   -0.01349   -0.08344
 44 Li   -0.00933    0.00119   -0.00208
 45 Li    0.00509    0.00616   -0.01057
 46 Li    0.00182   -0.00654   -0.01076
 47 Li   -0.00388   -0.01273   -0.00504
 48 Li   -0.00177   -0.00021    0.08893
 49 Li   -0.00360   -0.00056    0.08518
 50 Li   -0.00050   -0.00216   -0.07789
 51 Li    0.00063   -0.00186   -0.06887
 52 Li    0.00028    0.00175   -0.01576
 53 Li   -0.00111   -0.00642    0.00246
 54 Li   -0.02356   -0.01379   -0.01485
 55 Li   -0.00584    0.00277   -0.01364
 56 Li   -0.00154    0.00116    0.08784
 57 Li   -0.00727   -0.00027    0.09343
 58 Li   -0.00287   -0.00142   -0.06169
 59 Li   -0.00004   -0.00076   -0.06159
 60 Li   -0.00100    0.00027   -0.01135
 61 Li    0.00133    0.00220    0.00169
 62 Li   -0.01690    0.02034   -0.02331
 63 Li   -0.00193    0.00258   -0.01113
 64 Li   -0.00177   -0.00119    0.08955
 65 Li   -0.00377    0.00093    0.08590
 66 Li   -0.00091    0.00419   -0.04242
 67 Li   -0.00027    0.00260   -0.06651
 68 Li   -0.00047   -0.00163   -0.01016
 69 Li   -0.00227    0.00510   -0.01066
 70 Li   -0.00080   -0.00583   -0.00644
 71 Li   -0.00163   -0.00529   -0.01040
 72 Li    0.04129    0.00310    0.05380

System changes: positions 

Initializing position-dependent things.

Density initialized from wave functions
       .-----------------------------------.  
      /|                                   |  
     / |                                   |  
    /  |                                   |  
   /   |                                   |  
  /    |                                   |  
 *     |                                   |  
 |     |                                   |  
 |     |                                   |  
 |     |                                   |  
 |     |                                   |  
 |     |                                   |  
 |     |                                   |  
 |    Li          Li                       |  
 |     |   Li                 Li           |  
 |     |               Li          Li      |  
 |  LiLii       Li          Li      Li     |  
 |     | Li LiLi Li  Li Li       Li      Li|  
 |Li   |  Li              Li Li            |  
 |     Li      Li  Li Li       Li Li       |  
 |    Li          Li       Li Li       Li  |  
 |     |Li Li       Li Li       Li Li      |  
 |  Li |     Li Li       Li Li             |  
 |     | Li Li       Li Li       Li Li     |  
 |Li Li|      Li Li       Li Li            |  
 |     Li Li       Li Li       Li Li       |  
 | Li  |       Li          Li              |  
 |     |Li          Li          Li         |  
 Li    |     Li          Li                |  
 |     |                                   |  
 |     |                                   |  
 |     |                                   |  
 |     |                                   |  
 |     |                                   |  
 |     .-----------------------------------.  
 |    /                                   /   
 |   /                                   /    
 |  /                                   /     
 | /                                   /      
 |/                                   /       
 *-----------------------------------*        

Atomic positions and initial magnetic moments

Positions:
   0 Li     0.000000    0.000000   10.000000    ( 0.0000,  0.0000,  0.0000)
   1 Li     2.467803    1.745000   10.000000    ( 0.0000,  0.0000,  0.0000)
   2 Li     2.467803    0.000000   12.467803    ( 0.0000,  0.0000,  0.0000)
   3 Li     0.000000    1.745000   12.467803    ( 0.0000,  0.0000,  0.0000)
   4 Li     0.013936   -0.015622   14.839648    ( 0.0000,  0.0000,  0.0000)
   5 Li     2.463944    1.828343   14.748127    ( 0.0000,  0.0000,  0.0000)
   6 Li     2.459451    0.013782   16.788100    ( 0.0000,  0.0000,  0.0000)
   7 Li     0.098542    1.632458   17.300684    ( 0.0000,  0.0000,  0.0000)
   8 Li     0.000000    3.490000   10.000000    ( 0.0000,  0.0000,  0.0000)
   9 Li     2.467803    5.235000   10.000000    ( 0.0000,  0.0000,  0.0000)
  10 Li     2.467803    3.490000   12.467803    ( 0.0000,  0.0000,  0.0000)
  11 Li     0.000000    5.235000   12.467803    ( 0.0000,  0.0000,  0.0000)
  12 Li    -0.012880    3.453813   14.924689    ( 0.0000,  0.0000,  0.0000)
  13 Li     2.470000    5.224652   14.977803    ( 0.0000,  0.0000,  0.0000)
  14 Li     2.446739    3.337569   17.340239    ( 0.0000,  0.0000,  0.0000)
  15 Li     0.063069    5.212621   17.271992    ( 0.0000,  0.0000,  0.0000)
  16 Li     0.000000    6.980000   10.000000    ( 0.0000,  0.0000,  0.0000)
  17 Li     2.467803    8.725000   10.000000    ( 0.0000,  0.0000,  0.0000)
  18 Li     2.467803    6.980000   12.467803    ( 0.0000,  0.0000,  0.0000)
  19 Li     0.000000    8.725000   12.467803    ( 0.0000,  0.0000,  0.0000)
  20 Li    -0.011430    7.031574   14.967730    ( 0.0000,  0.0000,  0.0000)
  21 Li     2.471674    8.652532   14.765300    ( 0.0000,  0.0000,  0.0000)
  22 Li     2.452056    7.103114   17.309539    ( 0.0000,  0.0000,  0.0000)
  23 Li     0.107015    8.870297   17.404389    ( 0.0000,  0.0000,  0.0000)
  24 Li     4.935605    0.000000   10.000000    ( 0.0000,  0.0000,  0.0000)
  25 Li     7.403408    1.745000   10.000000    ( 0.0000,  0.0000,  0.0000)
  26 Li     7.403408    0.000000   12.467803    ( 0.0000,  0.0000,  0.0000)
  27 Li     4.935605    1.745000   12.467803    ( 0.0000,  0.0000,  0.0000)
  28 Li     4.920312    0.002040   14.870565    ( 0.0000,  0.0000,  0.0000)
  29 Li     7.408387    1.732062   14.891562    ( 0.0000,  0.0000,  0.0000)
  30 Li     7.362989    0.001664   17.246767    ( 0.0000,  0.0000,  0.0000)
  31 Li     4.812275    1.626799   17.400788    ( 0.0000,  0.0000,  0.0000)
  32 Li     4.935605    3.490000   10.000000    ( 0.0000,  0.0000,  0.0000)
  33 Li     7.403408    5.235000   10.000000    ( 0.0000,  0.0000,  0.0000)
  34 Li     7.403408    3.490000   12.467803    ( 0.0000,  0.0000,  0.0000)
  35 Li     4.935605    5.235000   12.467803    ( 0.0000,  0.0000,  0.0000)
  36 Li     4.948144    3.435422   14.952219    ( 0.0000,  0.0000,  0.0000)
  37 Li     7.397567    5.234209   14.899578    ( 0.0000,  0.0000,  0.0000)
  38 Li     7.339661    3.453993   17.238654    ( 0.0000,  0.0000,  0.0000)
  39 Li     4.859769    5.227426   17.260562    ( 0.0000,  0.0000,  0.0000)
  40 Li     4.935605    6.980000   10.000000    ( 0.0000,  0.0000,  0.0000)
  41 Li     7.403408    8.725000   10.000000    ( 0.0000,  0.0000,  0.0000)
  42 Li     7.403408    6.980000   12.467803    ( 0.0000,  0.0000,  0.0000)
  43 Li     4.935605    8.725000   12.467803    ( 0.0000,  0.0000,  0.0000)
  44 Li     4.945680    7.031801   14.956167    ( 0.0000,  0.0000,  0.0000)
  45 Li     7.408842    8.738641   14.890832    ( 0.0000,  0.0000,  0.0000)
  46 Li     7.339370    7.014394   17.238886    ( 0.0000,  0.0000,  0.0000)
  47 Li     4.810684    8.853969   17.397428    ( 0.0000,  0.0000,  0.0000)
  48 Li     9.871211    0.000000   10.000000    ( 0.0000,  0.0000,  0.0000)
  49 Li    12.339013    1.745000   10.000000    ( 0.0000,  0.0000,  0.0000)
  50 Li    12.339013    0.000000   12.467803    ( 0.0000,  0.0000,  0.0000)
  51 Li     9.871211    1.745000   12.467803    ( 0.0000,  0.0000,  0.0000)
  52 Li     9.870493    0.002744   14.893623    ( 0.0000,  0.0000,  0.0000)
  53 Li    12.339705    1.732456   14.889507    ( 0.0000,  0.0000,  0.0000)
  54 Li    12.403589    0.021461   17.284445    ( 0.0000,  0.0000,  0.0000)
  55 Li     9.879269    1.738010   17.230240    ( 0.0000,  0.0000,  0.0000)
  56 Li     9.871211    3.490000   10.000000    ( 0.0000,  0.0000,  0.0000)
  57 Li    12.339013    5.235000   10.000000    ( 0.0000,  0.0000,  0.0000)
  58 Li    12.339013    3.490000   12.467803    ( 0.0000,  0.0000,  0.0000)
  59 Li     9.871211    5.235000   12.467803    ( 0.0000,  0.0000,  0.0000)
  60 Li     9.870016    3.484502   14.889812    ( 0.0000,  0.0000,  0.0000)
  61 Li    12.342628    5.224715   14.913864    ( 0.0000,  0.0000,  0.0000)
  62 Li    12.421186    3.433433   17.268847    ( 0.0000,  0.0000,  0.0000)
  63 Li     9.884335    5.228038   17.230532    ( 0.0000,  0.0000,  0.0000)
  64 Li     9.871211    6.980000   10.000000    ( 0.0000,  0.0000,  0.0000)
  65 Li    12.339013    8.725000   10.000000    ( 0.0000,  0.0000,  0.0000)
  66 Li    12.339013    6.980000   12.467803    ( 0.0000,  0.0000,  0.0000)
  67 Li     9.871211    8.725000   12.467803    ( 0.0000,  0.0000,  0.0000)
  68 Li     9.872236    6.982880   14.891279    ( 0.0000,  0.0000,  0.0000)
  69 Li    12.331504    8.748363   14.903499    ( 0.0000,  0.0000,  0.0000)
  70 Li    12.415936    7.014595   17.245411    ( 0.0000,  0.0000,  0.0000)
  71 Li     9.884275    8.739001   17.228794    ( 0.0000,  0.0000,  0.0000)
  72 Li     2.054315    0.302470   19.361521    ( 0.0000,  0.0000,  0.0000)

Unit cell:
           periodic     x           y           z      points  spacing
  1. axis:    yes   14.806816    0.000000    0.000000    49     0.3022
  2. axis:    yes    0.000000   10.470000    0.000000    35     0.2991
  3. axis:    no     0.000000    0.000000   27.403408    90     0.3045

  Lengths:  14.806816  10.470000  27.403408
  Angles:   90.000000  90.000000  90.000000

Effective grid spacing dv^(1/3) = 0.3019

     iter     time        total  log10-change:
                         energy   eigst   dens
iter:   1 04:03:59  -128.598476   -3.30
iter:   2 04:04:02  -128.584747   -3.57  -1.90
iter:   3 04:04:07  -128.581707c  -4.67  -2.13
iter:   4 04:04:11  -128.582358c  -4.41  -2.54
iter:   5 04:04:15  -128.581834c  -5.29  -2.89
iter:   6 04:04:19  -128.581600c  -5.63c -3.01
iter:   7 04:04:23  -128.581747c  -6.04c -3.30
iter:   8 04:04:27  -128.581811c  -6.41c -3.54
iter:   9 04:04:31  -128.581656c  -6.52c -3.58
iter:  10 04:04:35  -128.581709c  -7.11c -3.68
iter:  11 04:04:39  -128.581753c  -6.89c -3.89
iter:  12 04:04:43  -128.581679c  -7.16c -3.87
iter:  13 04:04:47  -128.581741c  -7.27c -4.04c

Converged after 13 iterations.

Dipole moment: (-5.921304, -3.667604, 0.372796) |e|*Ang

Energy contributions relative to reference atoms: (reference = -14803.510878)

Kinetic:       +114.077056
Potential:      -99.876925
External:        +0.000000
XC:            -141.603904
Entropy (-ST):   -1.390860
Local:           -0.482538
SIC:             +0.000000
--------------------------
Free energy:   -129.277171
Extrapolated:  -128.581741

Showing all kpts
 Kpt  Band  Eigenvalues  Occupancy
  0    34     -1.93605    1.51963
  0    35     -1.88847    1.32561
  0    36     -1.81487    0.96990
  0    37     -1.75571    0.68519

  1    34     -1.93540    1.51724
  1    35     -1.88849    1.32568
  1    36     -1.81488    0.96999
  1    37     -1.75563    0.68484


Fermi level: -1.82089

Gap: 0.074 eV
Transition (v -> c):
  (s=0, k=0, n=35, [0.25, -0.25, 0.00]) -> (s=0, k=1, n=36, [0.25, 0.25, 0.00])
Direct/indirect transitions are different
Direct gap: 0.074 eV
Transition at: (s=0, k=1, n=35, [0.25, 0.25, 0.00])
