73
Lattice="14.806815998046307 0.0 0.0 7.403407999023154 12.823078803469937 0.0 0.0 0.0 27.052333538151277" Properties=species:S:1:pos:R:3:move_mask:L:1:tags:I:1:forces:R:3:magmoms:R:1 energy=-125.16019920862058 dipole="-10.537806096115922 -6.084005186259899 0.33436911474654296" magmom=0.0 free_energy=-125.73599495375984 pbc="T T F"
Li       0.00000000       0.00000000      10.00000000  F        4      -0.00539431      -0.00311440       0.08049167       0.00000000
Li       2.46780267       1.42478653      11.00747622  F        4       0.00113640       0.00065610      -0.20343078       0.00000000
Li       4.93560533       2.84957307      12.01495244  F        3       0.01673123       0.00965978      -0.08463186       0.00000000
Li       0.00000000       0.00000000      13.02242866  F        3      -0.01286193      -0.00742584      -0.07382781       0.00000000
Li       2.46442964       1.42283912      13.57310627  T        2       0.00105529       0.00060927      -0.00237721       0.00000000
Li       4.91994906       2.84053391      15.03835205  T        2       0.00492029       0.00284073       0.00366459       0.00000000
Li      -0.00073757      -0.00042584      15.92761754  T        1      -0.01278395      -0.00738082       0.03458786       0.00000000
Li       2.46161869       1.42121621      16.04112014  T        1      -0.00102641      -0.00059260      -0.02797218       0.00000000
Li       2.46780267       4.27435960      10.00000000  F        4      -0.00127135       0.00479421       0.08015350       0.00000000
Li       4.93560533       5.69914613      11.00747622  F        4      -0.00193763       0.00389707       0.18269069       0.00000000
Li       7.40340800       7.12393267      12.01495244  F        3       0.00374885       0.00372643      -0.05763724       0.00000000
Li       2.46780267       4.27435960      13.02242866  F        3      -0.00430313       0.01222769      -0.07192840       0.00000000
Li       4.93010570       5.70619748      14.03091303  T        2      -0.00355710       0.00562696       0.03089156       0.00000000
Li       7.40152526       7.12007690      15.08106492  T        2       0.00610965      -0.00147938       0.00007593       0.00000000
Li       2.46091540       4.27083725      15.92862697  T        1      -0.00031104       0.01237658       0.03540189       0.00000000
Li       4.97821068       5.65853416      16.98267819  T        1      -0.01653310       0.00452957      -0.00529514       0.00000000
Li       4.93560533       8.54871920      10.00000000  F        4      -0.00009629      -0.00070293       0.03685642       0.00000000
Li       7.40340800       9.97350574      11.00747622  F        4      -0.00072166      -0.00224198       0.18278182       0.00000000
Li       9.87121067      11.39829227      12.01495244  F        3       0.00336318      -0.01945596      -0.08854291       0.00000000
Li       4.93560533       8.54871920      13.02242866  F        3      -0.00673218       0.00298674      -0.17712766       0.00000000
Li       7.39458604       9.96972038      14.02989733  T        2      -0.00647595      -0.00069745       0.03009414       0.00000000
Li       9.86894962      11.40377180      15.03316952  T        2      -0.00091244      -0.00303448       0.00293628       0.00000000
Li       4.94009467       8.54185966      15.85237646  T        1       0.01282424      -0.00942051       0.00060322       0.00000000
Li       7.46033044       9.94937895      16.98050224  T        1      -0.01216443       0.01133854      -0.00512312       0.00000000
Li       4.93560533       0.00000000      10.00000000  F        4       0.00351623      -0.00349812       0.08015350       0.00000000
Li       7.40340800       1.42478653      11.00747622  F        4       0.00240615      -0.00362657       0.18269069       0.00000000
Li       9.87121067       2.84957307      12.01495244  F        3       0.00510161       0.00138338      -0.05763724       0.00000000
Li       4.93560533       0.00000000      13.02242866  F        3       0.00843793      -0.00984046      -0.07192840       0.00000000
Li       7.40676482       1.41649804      14.03091303  T        2       0.00309454      -0.00589402       0.03089156       0.00000000
Li       9.86693010       2.84987045      15.08106492  T        2       0.00177365       0.00603080       0.00007593       0.00000000
Li       4.92911126      -0.00420337      15.92862697  T        1       0.01056291      -0.00645766       0.03540189       0.00000000
Li       7.38953967       1.48198984      16.98267819  T        1      -0.00434383      -0.01658287      -0.00529514       0.00000000
Li       7.40340800       4.27435960      10.00000000  F        4      -0.00464482      -0.00268169       0.03684941       0.00000000
Li       9.87121067       5.69914613      11.00747622  F        4       0.00270324       0.00156072       0.17991506       0.00000000
Li      12.33901333       7.12393267      12.01495244  F        3       0.00249823       0.00144235      -0.05471494       0.00000000
Li       7.40340800       4.27435960      13.02242866  F        3      -0.00306593      -0.00177012      -0.20938143       0.00000000
Li       9.87253091       5.69990838      14.00125569  T        2       0.00014464       0.00008351       0.03172799       0.00000000
Li      12.33249573       7.12016973      15.08313694  T        2      -0.00647478      -0.00373822      -0.00193176       0.00000000
Li       7.37546470       4.25822653      15.80020836  T        1       0.03796290       0.02191789       0.00400406       0.00000000
Li       9.86991516       5.69839817      16.92328520  T        1       0.00129973       0.00075040      -0.00213089       0.00000000
Li       9.87121067       8.54871920      10.00000000  F        4      -0.00186555       0.00523448       0.03970094       0.00000000
Li      12.33901333       9.97350574      11.00747622  F        4       0.00390383      -0.00246605       0.18407980       0.00000000
Li      14.80681600      11.39829227      12.01495244  F        3       0.00618756      -0.00442624      -0.06080430       0.00000000
Li       9.87121067       8.54871920      13.02242866  F        3      -0.00017024       0.00071431      -0.21312196       0.00000000
Li      12.34530410       9.96686058      14.02829213  T        2       0.00765457      -0.00096221       0.03002383       0.00000000
Li      14.80846547      11.38761685      15.09544590  T        2      -0.00931277       0.00603281      -0.00757818       0.00000000
Li       9.86982535       8.57697904      15.79740324  T        1      -0.00025189      -0.04960401       0.00249983       0.00000000
Li      12.27917227       9.94856722      16.97721930  T        1       0.01280645       0.01102036      -0.00425399       0.00000000
Li       9.87121067       0.00000000      10.00000000  F        4      -0.00065690       0.00026807       0.03685642       0.00000000
Li      12.33901333       1.42478653      11.00747622  F        4      -0.00230244       0.00049602       0.18278182       0.00000000
Li      14.80681600       2.84957307      12.01495244  F        3      -0.01516776       0.01264058      -0.08854291       0.00000000
Li       9.87121067       0.00000000      13.02242866  F        3      -0.00077950      -0.00732361      -0.17712766       0.00000000
Li      12.33132414       1.41903918      14.02989733  T        2      -0.00384199      -0.00525961       0.03009414       0.00000000
Li      14.81043088       2.84487518      15.03316952  T        2      -0.00308416       0.00072705       0.00293628       0.00000000
Li       9.86751480       0.00731765      15.85237646  T        1      -0.00174628       0.01581637       0.00060322       0.00000000
Li      12.34658014       1.48614621      16.98050224  T        1       0.00373725      -0.01620398      -0.00512312       0.00000000
Li      12.33901333       4.27435960      10.00000000  F        4       0.00360042      -0.00423285       0.03970094       0.00000000
Li      14.80681600       5.69914613      11.00747622  F        4      -0.00018375       0.00461384       0.18407980       0.00000000
Li      17.27461866       7.12393267      12.01495244  F        3      -0.00073946       0.00757171      -0.06080430       0.00000000
Li      12.33901333       4.27435960      13.02242866  F        3       0.00053349      -0.00050459      -0.21312196       0.00000000
Li      14.80420651       5.70791668      14.02829213  T        2       0.00299399       0.00711016       0.03002383       0.00000000
Li      17.26619821       7.13069886      15.09544590  T        2       0.00056819      -0.01108150      -0.00757818       0.00000000
Li      12.36279441       4.25902996      15.79740324  T        1      -0.04308428       0.02458386       0.00249983       0.00000000
Li      14.75529808       5.65979151      16.97721930  T        1       0.01594714       0.00558053      -0.00425399       0.00000000
Li      14.80681600       8.54871920      10.00000000  F        4       0.00061487       0.00035500       0.04233749       0.00000000
Li      17.27461866       9.97350574      11.00747622  F        4      -0.00345274      -0.00199344       0.17627198       0.00000000
Li      19.74242133      11.39829227      12.01495244  F        3      -0.00076668      -0.00044264      -0.06015806       0.00000000
Li      14.80681600       8.54871920      13.02242866  F        3       0.00478916       0.00276502      -0.17885046       0.00000000
Li      17.27091867       9.97136954      14.01993775  T        2      -0.00185088      -0.00106860       0.02680839       0.00000000
Li      19.73001890      11.39113172      15.09738106  T        2       0.01071498       0.00618629      -0.00771399       0.00000000
Li      14.79286631       8.54066535      15.85216281  T        1      -0.01319567      -0.00761852      -0.00048521       0.00000000
Li      17.26678026       9.96898023      16.93460956  T        1      -0.00090363      -0.00052171       0.01414017       0.00000000
Li       2.47862360       1.43103400      18.61821590  T        0       0.00538326       0.00310803      -0.02322538       0.00000000
