
  ___ ___ ___ _ _ _  
 |   |   |_  | | | | 
 | | | | | . | | | | 
 |__ |  _|___|_____|  25.7.0
 |___|_|             

User:   tew@Mathuss-MacBook-Air-357.local
Date:   Tue Nov 25 00:14:31 2025
Arch:   arm64
Pid:    76608
CWD:    /Users/tew/Documents/Project/GitHub/chem-com
Python: 3.13.5
gpaw:   /Users/tew/Documents/Project/GitHub/chem-com/.venv/lib/python3.13/site-packages/gpaw
_gpaw:  /Users/tew/Documents/Project/GitHub/chem-com/.venv/lib/python3.13/site-packages/
        _gpaw.cpython-313-darwin.so
ase:    /Users/tew/Documents/Project/GitHub/chem-com/.venv/lib/python3.13/site-packages/ase (version 3.26.0)
numpy:  /Users/tew/Documents/Project/GitHub/chem-com/.venv/lib/python3.13/site-packages/numpy (version 2.3.5)
scipy:  /Users/tew/Documents/Project/GitHub/chem-com/.venv/lib/python3.13/site-packages/scipy (version 1.16.3)
libxc:  2.x.y
units:  Angstrom and eV
cores: 1
OpenMP: False
OMP_NUM_THREADS: 1

Input parameters:
  convergence: {density: 0.0001,
                eigenstates: 5e-06}
  kpts: [2 2 1]
  mode: {ecut: 200.0,
         name: pw}
  xc: PBE

System changes: positions, numbers, cell, pbc, initial_charges, initial_magmoms 

Initialize ...

species:
  Li:
    name: Lithium
    id: 830b4218f175192f93f959cfc0aad614
    Z: 3.0
    valence: 1
    core: 2
    charge: 0.0
    file: /Users/tew/Documents/Project/GitHub/chem-com/.venv/lib/python3.13/site-packages/gpaw_data/setups/Li.PBE.gz
    compensation charges: {type: gauss,
                           rc: 0.33,
                           lmax: 2}
    cutoffs: {filter: 1.91,
              core: 2.55}
    projectors:
      #              energy  rcut
      - 2s(1.00)    -2.874   1.058
      - 2p(0.00)    -1.090   1.058
      -  s          24.337   1.058
  
    # Using partial waves for Li as LCAO basis

Reference energy: -14803.510878  # eV

Spin-paired calculation

Convergence criteria:
 Maximum [total energy] change in last 3 cyles: 0.0005 eV / valence electron
 Maximum integral of absolute [dens]ity change: 0.0001 electrons / valence electron
 Maximum integral of absolute [eigenst]ate change: 5e-06 eV^2 / valence electron
 Maximum number of scf [iter]ations: 333
 (Square brackets indicate name in SCF output, whereas a 'c' in
 the SCF output indicates the quantity has converged.)

Symmetries present (total): 1

  ( 1  0  0)
  ( 0  1  0)
  ( 0  0  1)

4 k-points: 2 x 2 x 1 Monkhorst-Pack grid
2 k-points in the irreducible part of the Brillouin zone
       k-points in crystal coordinates                weights
   0:     0.25000000   -0.25000000    0.00000000          2/4
   1:     0.25000000    0.25000000    0.00000000          2/4

Wave functions: Plane wave expansion
  Cutoff energy: 200.000 eV
  Number of coefficients (min, max): 22683, 22683
  Pulay-stress correction: 0.000000 eV/Ang^3 (de/decut=0.000000)
  Using Numpy's FFT
  ScaLapack parameters: grid=1x1, blocksize=None
  Wavefunction extrapolation:
    Improved wavefunction reuse through dual PAW basis 

Occupation numbers: Fermi-Dirac:
  width: 0.1000  # eV
 

Eigensolver
   Davidson(niter=2) 

Densities:
  Coarse grid: 35*35*108 grid
  Fine grid: 70*70*216 grid
  Total Charge: 0.000000 

Density mixing:
  Method: separate
  Backend: pulay
  Linear mixing parameter: 0.05
  old densities: 5
  Damping of long wavelength oscillations: 50 

Hamiltonian:
  XC and Coulomb potentials evaluated on a 70*70*216 grid
  Using the PBE Exchange-Correlation functional
  External potential:
    NoExternalPotential
 

XC parameters: PBE with 2 nearest neighbor stencil

Memory estimate:
  Process memory now: 4231.58 MiB
  Calculator: 138.59 MiB
    Density: 60.32 MiB
      Arrays: 26.24 MiB
      Localized functions: 23.99 MiB
      Mixer: 10.09 MiB
    Hamiltonian: 17.65 MiB
      Arrays: 17.16 MiB
      XC: 0.00 MiB
      Poisson: 0.00 MiB
      vbar: 0.49 MiB
    Wavefunctions: 60.62 MiB
      Arrays psit_nG: 33.23 MiB
      Eigensolver: 18.70 MiB
      Projections: 0.53 MiB
      Projectors: 2.42 MiB
      PW-descriptor: 5.74 MiB

Total number of cores used: 1

Number of atoms: 73
Number of atomic orbitals: 292
Number of bands in calculation: 48
Number of valence electrons: 73
Bands to converge: occupied

... initialized

Initializing position-dependent things.

Density initialized from atomic densities
Creating initial wave functions:
  48 bands from LCAO basis set

       .-------------------------.  
      /|                         |  
     / |                         |  
    /  |                         |  
   /   |                         |  
  /    |                         |  
 *     |                         |  
 |     |                         |  
 |     |                         |  
 |     |                         |  
 |     |                         |  
 |     |                         |  
 |     |                         |  
 |     |  Li       Li       Li   |  
 |     Li                        |  
 |     |        LLi       Li     Li 
 |     |Li                       |  
 |     |      LLi     LiLi     Li|  
 |    Li  Li       Li      Li    |  
 |     |    Li  Li  Li       Li  Li 
 |     |Li       Li       Li     |  
 |     |      Li  Li  Li       Li|  
 |    Li  Li   Li  Li   Li  Li   |  
 |     |    Li      Li       Li  |  
 |     |Li       Li       Li     |  
 |   Li|      Li  Li  Li         |  
 |    Li  Li   Li  Li   Li  Li   |  
 | Li  |    Li      Li           |  
 |     |Li       Li       Li     |  
 Li    |  Li      Li             |  
 |   LLi      LLi     LiLi       |  
 |     |                         |  
 | Li  |    Li      Li           |  
 |     |                         |  
 Li    |  Li      Li             |  
 |     |                         |  
 |     |                         |  
 |     |                         |  
 |     |                         |  
 |     |                         |  
 |     .-------------------------.  
 |    /                         /   
 |   /                         /    
 |  /                         /     
 | /                         /      
 |/                         /       
 *-------------------------*        

Atomic positions and initial magnetic moments

Positions:
   0 Li     0.000000    0.000000   10.000000    ( 0.0000,  0.0000,  0.0000)
   1 Li     1.745000    1.745000   11.745000    ( 0.0000,  0.0000,  0.0000)
   2 Li     0.000000    0.000000   13.490000    ( 0.0000,  0.0000,  0.0000)
   3 Li     1.745000    1.745000   15.235000    ( 0.0000,  0.0000,  0.0000)
   4 Li    -0.000763   -0.013737   16.930321    ( 0.0000,  0.0000,  0.0000)
   5 Li     1.744997    1.759139   18.582378    ( 0.0000,  0.0000,  0.0000)
   6 Li    -0.027328   -0.062646   20.404347    ( 0.0000,  0.0000,  0.0000)
   7 Li     1.745000    1.941312   21.865555    ( 0.0000,  0.0000,  0.0000)
   8 Li     0.000000    3.490000   10.000000    ( 0.0000,  0.0000,  0.0000)
   9 Li     1.745000    5.235000   11.745000    ( 0.0000,  0.0000,  0.0000)
  10 Li     0.000000    3.490000   13.490000    ( 0.0000,  0.0000,  0.0000)
  11 Li     1.745000    5.235000   15.235000    ( 0.0000,  0.0000,  0.0000)
  12 Li    -0.027453    3.490006   16.914378    ( 0.0000,  0.0000,  0.0000)
  13 Li     1.744996    5.220849   18.582343    ( 0.0000,  0.0000,  0.0000)
  14 Li    -0.125241    3.490047   20.323051    ( 0.0000,  0.0000,  0.0000)
  15 Li     1.744999    5.038707   21.865671    ( 0.0000,  0.0000,  0.0000)
  16 Li     0.000000    6.980000   10.000000    ( 0.0000,  0.0000,  0.0000)
  17 Li     1.745000    8.725000   11.745000    ( 0.0000,  0.0000,  0.0000)
  18 Li     0.000000    6.980000   13.490000    ( 0.0000,  0.0000,  0.0000)
  19 Li     1.745000    8.725000   15.235000    ( 0.0000,  0.0000,  0.0000)
  20 Li    -0.000751    6.993727   16.930420    ( 0.0000,  0.0000,  0.0000)
  21 Li     1.744994    8.725002   18.642966    ( 0.0000,  0.0000,  0.0000)
  22 Li    -0.027286    7.042595   20.404412    ( 0.0000,  0.0000,  0.0000)
  23 Li     1.744990    8.724993   22.334268    ( 0.0000,  0.0000,  0.0000)
  24 Li     3.490000    0.000000   10.000000    ( 0.0000,  0.0000,  0.0000)
  25 Li     5.235000    1.745000   11.745000    ( 0.0000,  0.0000,  0.0000)
  26 Li     3.490000    0.000000   13.490000    ( 0.0000,  0.0000,  0.0000)
  27 Li     5.235000    1.745000   15.235000    ( 0.0000,  0.0000,  0.0000)
  28 Li     3.490759   -0.013734   16.930326    ( 0.0000,  0.0000,  0.0000)
  29 Li     5.256963    1.708886   18.631416    ( 0.0000,  0.0000,  0.0000)
  30 Li     3.517320   -0.062648   20.404344    ( 0.0000,  0.0000,  0.0000)
  31 Li     5.043877    1.739821   22.310376    ( 0.0000,  0.0000,  0.0000)
  32 Li     3.490000    3.490000   10.000000    ( 0.0000,  0.0000,  0.0000)
  33 Li     5.235000    5.235000   11.745000    ( 0.0000,  0.0000,  0.0000)
  34 Li     3.490000    3.490000   13.490000    ( 0.0000,  0.0000,  0.0000)
  35 Li     5.235000    5.235000   15.235000    ( 0.0000,  0.0000,  0.0000)
  36 Li     3.517444    3.490006   16.914379    ( 0.0000,  0.0000,  0.0000)
  37 Li     5.256987    5.271134   18.631328    ( 0.0000,  0.0000,  0.0000)
  38 Li     3.615232    3.490047   20.323047    ( 0.0000,  0.0000,  0.0000)
  39 Li     5.043859    5.240162   22.310274    ( 0.0000,  0.0000,  0.0000)
  40 Li     3.490000    6.980000   10.000000    ( 0.0000,  0.0000,  0.0000)
  41 Li     5.235000    8.725000   11.745000    ( 0.0000,  0.0000,  0.0000)
  42 Li     3.490000    6.980000   13.490000    ( 0.0000,  0.0000,  0.0000)
  43 Li     5.235000    8.725000   15.235000    ( 0.0000,  0.0000,  0.0000)
  44 Li     3.490750    6.993725   16.930429    ( 0.0000,  0.0000,  0.0000)
  45 Li     5.307257    8.724983   18.619791    ( 0.0000,  0.0000,  0.0000)
  46 Li     3.517280    7.042596   20.404410    ( 0.0000,  0.0000,  0.0000)
  47 Li     5.245331    8.725001   22.286384    ( 0.0000,  0.0000,  0.0000)
  48 Li     6.980000    0.000000   10.000000    ( 0.0000,  0.0000,  0.0000)
  49 Li     8.725000    1.745000   11.745000    ( 0.0000,  0.0000,  0.0000)
  50 Li     6.980000    0.000000   13.490000    ( 0.0000,  0.0000,  0.0000)
  51 Li     8.725000    1.745000   15.235000    ( 0.0000,  0.0000,  0.0000)
  52 Li     6.980004    0.012968   16.878561    ( 0.0000,  0.0000,  0.0000)
  53 Li     8.703034    1.708879   18.631418    ( 0.0000,  0.0000,  0.0000)
  54 Li     6.980002    0.035307   20.484528    ( 0.0000,  0.0000,  0.0000)
  55 Li     8.916124    1.739821   22.310379    ( 0.0000,  0.0000,  0.0000)
  56 Li     6.980000    3.490000   10.000000    ( 0.0000,  0.0000,  0.0000)
  57 Li     8.725000    5.235000   11.745000    ( 0.0000,  0.0000,  0.0000)
  58 Li     6.980000    3.490000   13.490000    ( 0.0000,  0.0000,  0.0000)
  59 Li     8.725000    5.235000   15.235000    ( 0.0000,  0.0000,  0.0000)
  60 Li     6.980003    3.490003   16.946373    ( 0.0000,  0.0000,  0.0000)
  61 Li     8.703013    5.271143   18.631329    ( 0.0000,  0.0000,  0.0000)
  62 Li     6.980001    3.490006   20.485698    ( 0.0000,  0.0000,  0.0000)
  63 Li     8.916137    5.240161   22.310278    ( 0.0000,  0.0000,  0.0000)
  64 Li     6.980000    6.980000   10.000000    ( 0.0000,  0.0000,  0.0000)
  65 Li     8.725000    8.725000   11.745000    ( 0.0000,  0.0000,  0.0000)
  66 Li     6.980000    6.980000   13.490000    ( 0.0000,  0.0000,  0.0000)
  67 Li     8.725000    8.725000   15.235000    ( 0.0000,  0.0000,  0.0000)
  68 Li     6.980005    6.967035   16.878719    ( 0.0000,  0.0000,  0.0000)
  69 Li     8.652755    8.724981   18.619787    ( 0.0000,  0.0000,  0.0000)
  70 Li     6.980001    6.944686   20.484500    ( 0.0000,  0.0000,  0.0000)
  71 Li     8.714653    8.725003   22.286387    ( 0.0000,  0.0000,  0.0000)
  72 Li     1.745000    3.490001   23.980733    ( 0.0000,  0.0000,  0.0000)

Unit cell:
           periodic     x           y           z      points  spacing
  1. axis:    yes   10.470000    0.000000    0.000000    35     0.2991
  2. axis:    yes    0.000000   10.470000    0.000000    35     0.2991
  3. axis:    no     0.000000    0.000000   32.215000   108     0.2983

  Lengths:  10.470000  10.470000  32.215000
  Angles:   90.000000  90.000000  90.000000

Effective grid spacing dv^(1/3) = 0.2989

     iter     time        total  log10-change:
                         energy   eigst   dens
iter:   1 00:20:02  -137.444324
iter:   2 00:20:07  -133.148253   -0.74  -0.65
iter:   3 00:20:11  -132.761946   -1.24  -0.86
iter:   4 00:20:16  -132.790218   -1.57  -0.90
iter:   5 00:20:21  -131.816151   -1.76  -0.89
iter:   6 00:20:26  -132.007969   -1.41  -1.09
iter:   7 00:20:31  -131.483613   -2.26  -1.08
iter:   8 00:20:35  -131.492466   -1.59  -1.24
iter:   9 00:20:40  -131.306645   -2.61  -1.33
iter:  10 00:20:45  -131.310626   -2.82  -1.55
iter:  11 00:20:50  -131.311247c  -2.98  -1.58
iter:  12 00:20:55  -131.300214c  -3.17  -1.61
iter:  13 00:21:00  -131.318467c  -2.90  -1.71
iter:  14 00:21:04  -131.301778c  -3.70  -1.76
iter:  15 00:21:09  -131.294615c  -3.38  -1.94
iter:  16 00:21:13  -131.293246c  -3.56  -2.19
iter:  17 00:21:18  -131.288000c  -4.20  -2.10
iter:  18 00:21:22  -131.287388c  -3.99  -2.27
iter:  19 00:21:27  -131.288904c  -4.38  -2.71
iter:  20 00:21:31  -131.287872c  -4.97  -2.72
iter:  21 00:21:36  -131.287402c  -5.08  -2.92
iter:  22 00:21:40  -131.287458c  -5.12  -2.99
iter:  23 00:21:45  -131.287216c  -4.85  -3.09
iter:  24 00:21:49  -131.286963c  -5.24  -3.28
iter:  25 00:21:53  -131.286931c  -5.59c -3.48
iter:  26 00:21:57  -131.286911c  -5.77c -3.59
iter:  27 00:22:01  -131.286838c  -5.72c -3.66
iter:  28 00:22:05  -131.286802c  -5.79c -3.76
iter:  29 00:22:09  -131.286762c  -5.56c -3.89
iter:  30 00:22:13  -131.286745c  -5.72c -3.99
iter:  31 00:22:18  -131.286745c  -5.97c -4.02c

Converged after 31 iterations.

Dipole moment: (2.898861, 1.791690, 0.278345) |e|*Ang

Energy contributions relative to reference atoms: (reference = -14803.510878)

Kinetic:       +103.207886
Potential:      -92.623643
External:        +0.000000
XC:            -140.766423
Entropy (-ST):   -1.207685
Local:           -0.500723
SIC:             +0.000000
--------------------------
Free energy:   -131.890588
Extrapolated:  -131.286745

Showing all kpts
 Kpt  Band  Eigenvalues  Occupancy
  0    34     -1.58339    1.60762
  0    35     -1.57411    1.57753
  0    36     -1.38454    0.71870
  0    37     -1.34944    0.56618

  1    34     -1.58339    1.60762
  1    35     -1.57411    1.57753
  1    36     -1.38454    0.71870
  1    37     -1.34944    0.56618


Fermi level: -1.44236

Gap: 0.190 eV
Transition (v -> c):
  (s=0, k=1, n=35, [0.25, 0.25, 0.00]) -> (s=0, k=1, n=36, [0.25, 0.25, 0.00])
No difference between direct/indirect transitions

Forces in eV/Ang:
  0 Li    0.00176   -0.00244   -0.03078
  1 Li    0.00000    0.00083    0.06446
  2 Li    0.00103    0.00050    0.01934
  3 Li   -0.00000    0.00477   -0.01171
  4 Li   -0.00904   -0.00255    0.00405
  5 Li   -0.00000   -0.00713    0.07251
  6 Li    0.01523    0.00563   -0.04664
  7 Li   -0.00000   -0.33416   -0.19640
  8 Li   -0.00248   -0.00000   -0.03485
  9 Li    0.00000   -0.00083    0.06446
 10 Li   -0.00021    0.00000    0.00207
 11 Li    0.00000   -0.00474   -0.01169
 12 Li   -0.00559   -0.00002    0.00342
 13 Li   -0.00000    0.00712    0.07260
 14 Li   -0.01092   -0.00003   -0.01928
 15 Li   -0.00000    0.33420   -0.19652
 16 Li    0.00176    0.00244   -0.03078
 17 Li    0.00000   -0.00000    0.05764
 18 Li    0.00104   -0.00050    0.01935
 19 Li    0.00000   -0.00003   -0.03702
 20 Li   -0.00903    0.00258    0.00391
 21 Li    0.00000    0.00001   -0.00117
 22 Li    0.01521   -0.00559   -0.04675
 23 Li    0.00000    0.00002   -0.04081
 24 Li   -0.00176   -0.00244   -0.03078
 25 Li    0.00034    0.00253    0.06029
 26 Li   -0.00104    0.00050    0.01934
 27 Li   -0.00448    0.00164   -0.03860
 28 Li    0.00904   -0.00256    0.00405
 29 Li    0.01256   -0.00763    0.01084
 30 Li   -0.01523    0.00563   -0.04664
 31 Li   -0.00827    0.03342    0.01708
 32 Li    0.00248   -0.00000   -0.03485
 33 Li    0.00034   -0.00253    0.06030
 34 Li    0.00021    0.00000    0.00207
 35 Li   -0.00447   -0.00159   -0.03856
 36 Li    0.00560   -0.00002    0.00341
 37 Li    0.01253    0.00758    0.01098
 38 Li    0.01093   -0.00003   -0.01928
 39 Li   -0.00822   -0.03340    0.01721
 40 Li   -0.00176    0.00244   -0.03078
 41 Li   -0.00255   -0.00000    0.05721
 42 Li   -0.00104   -0.00050    0.01935
 43 Li   -0.00098   -0.00005   -0.04987
 44 Li    0.00904    0.00258    0.00391
 45 Li   -0.00516    0.00004    0.01610
 46 Li   -0.01521   -0.00559   -0.04675
 47 Li    0.00707   -0.00001   -0.02505
 48 Li    0.00000    0.00254   -0.02998
 49 Li   -0.00034    0.00253    0.06029
 50 Li    0.00000    0.00203    0.01790
 51 Li    0.00448    0.00164   -0.03861
 52 Li   -0.00000   -0.00427    0.01877
 53 Li   -0.01256   -0.00762    0.01084
 54 Li   -0.00000    0.01679    0.00434
 55 Li    0.00826    0.03341    0.01709
 56 Li    0.00000    0.00000   -0.02928
 57 Li   -0.00034   -0.00253    0.06030
 58 Li    0.00000   -0.00000    0.03136
 59 Li    0.00447   -0.00159   -0.03857
 60 Li   -0.00000   -0.00003    0.00754
 61 Li   -0.01253    0.00758    0.01097
 62 Li   -0.00000    0.00000   -0.02346
 63 Li    0.00821   -0.03340    0.01721
 64 Li    0.00000   -0.00254   -0.02998
 65 Li    0.00255   -0.00000    0.05721
 66 Li    0.00000   -0.00203    0.01791
 67 Li    0.00098   -0.00005   -0.04988
 68 Li   -0.00001    0.00429    0.01849
 69 Li    0.00515    0.00004    0.01610
 70 Li   -0.00000   -0.01679    0.00433
 71 Li   -0.00707   -0.00001   -0.02506
 72 Li   -0.00000   -0.00008    0.27476

System changes: positions 

Initializing position-dependent things.

Density initialized from wave functions
       .-------------------------.  
      /|                         |  
     / |                         |  
    /  |                         |  
   /   |                         |  
  /    |                         |  
 *     |                         |  
 |     |                         |  
 |     |                         |  
 |     |                         |  
 |     |                         |  
 |     |                         |  
 |     |                         |  
 |     |  Li       Li       Li   |  
 |     Li                        |  
 |     |        LLi       Li     Li 
 |     |Li                       |  
 |     |      LLi     LiLi     Li|  
 |    Li  Li       Li      Li    |  
 |     |    Li  Li  Li       Li  Li 
 |     |Li       Li       Li     |  
 |     |      Li  Li  Li       Li|  
 |    Li  Li   Li  Li   Li  Li   |  
 |     |    Li      Li       Li  |  
 |     |Li       Li       Li     |  
 |   Li|      Li  Li  Li         |  
 |    Li  Li   Li  Li   Li  Li   |  
 | Li  |    Li      Li           |  
 |     |Li       Li       Li     |  
 Li    |  Li      Li             |  
 |   LLi      LLi     LiLi       |  
 |     |                         |  
 | Li  |    Li      Li           |  
 |     |                         |  
 Li    |  Li      Li             |  
 |     |                         |  
 |     |                         |  
 |     |                         |  
 |     |                         |  
 |     |                         |  
 |     .-------------------------.  
 |    /                         /   
 |   /                         /    
 |  /                         /     
 | /                         /      
 |/                         /       
 *-------------------------*        

Atomic positions and initial magnetic moments

Positions:
   0 Li     0.000000    0.000000   10.000000    ( 0.0000,  0.0000,  0.0000)
   1 Li     1.745000    1.745000   11.745000    ( 0.0000,  0.0000,  0.0000)
   2 Li     0.000000    0.000000   13.490000    ( 0.0000,  0.0000,  0.0000)
   3 Li     1.745000    1.745000   15.235000    ( 0.0000,  0.0000,  0.0000)
   4 Li    -0.000853   -0.013762   16.930361    ( 0.0000,  0.0000,  0.0000)
   5 Li     1.744997    1.759068   18.583103    ( 0.0000,  0.0000,  0.0000)
   6 Li    -0.027176   -0.062590   20.403880    ( 0.0000,  0.0000,  0.0000)
   7 Li     1.745000    1.937970   21.863591    ( 0.0000,  0.0000,  0.0000)
   8 Li     0.000000    3.490000   10.000000    ( 0.0000,  0.0000,  0.0000)
   9 Li     1.745000    5.235000   11.745000    ( 0.0000,  0.0000,  0.0000)
  10 Li     0.000000    3.490000   13.490000    ( 0.0000,  0.0000,  0.0000)
  11 Li     1.745000    5.235000   15.235000    ( 0.0000,  0.0000,  0.0000)
  12 Li    -0.027509    3.490006   16.914412    ( 0.0000,  0.0000,  0.0000)
  13 Li     1.744996    5.220920   18.583069    ( 0.0000,  0.0000,  0.0000)
  14 Li    -0.125350    3.490047   20.322859    ( 0.0000,  0.0000,  0.0000)
  15 Li     1.744999    5.042049   21.863705    ( 0.0000,  0.0000,  0.0000)
  16 Li     0.000000    6.980000   10.000000    ( 0.0000,  0.0000,  0.0000)
  17 Li     1.745000    8.725000   11.745000    ( 0.0000,  0.0000,  0.0000)
  18 Li     0.000000    6.980000   13.490000    ( 0.0000,  0.0000,  0.0000)
  19 Li     1.745000    8.725000   15.235000    ( 0.0000,  0.0000,  0.0000)
  20 Li    -0.000841    6.993753   16.930460    ( 0.0000,  0.0000,  0.0000)
  21 Li     1.744994    8.725002   18.642954    ( 0.0000,  0.0000,  0.0000)
  22 Li    -0.027134    7.042539   20.403944    ( 0.0000,  0.0000,  0.0000)
  23 Li     1.744990    8.724993   22.333860    ( 0.0000,  0.0000,  0.0000)
  24 Li     3.490000    0.000000   10.000000    ( 0.0000,  0.0000,  0.0000)
  25 Li     5.235000    1.745000   11.745000    ( 0.0000,  0.0000,  0.0000)
  26 Li     3.490000    0.000000   13.490000    ( 0.0000,  0.0000,  0.0000)
  27 Li     5.235000    1.745000   15.235000    ( 0.0000,  0.0000,  0.0000)
  28 Li     3.490850   -0.013759   16.930366    ( 0.0000,  0.0000,  0.0000)
  29 Li     5.257088    1.708809   18.631524    ( 0.0000,  0.0000,  0.0000)
  30 Li     3.517168   -0.062591   20.403877    ( 0.0000,  0.0000,  0.0000)
  31 Li     5.043795    1.740155   22.310546    ( 0.0000,  0.0000,  0.0000)
  32 Li     3.490000    3.490000   10.000000    ( 0.0000,  0.0000,  0.0000)
  33 Li     5.235000    5.235000   11.745000    ( 0.0000,  0.0000,  0.0000)
  34 Li     3.490000    3.490000   13.490000    ( 0.0000,  0.0000,  0.0000)
  35 Li     5.235000    5.235000   15.235000    ( 0.0000,  0.0000,  0.0000)
  36 Li     3.517500    3.490006   16.914413    ( 0.0000,  0.0000,  0.0000)
  37 Li     5.257113    5.271210   18.631438    ( 0.0000,  0.0000,  0.0000)
  38 Li     3.615341    3.490047   20.322854    ( 0.0000,  0.0000,  0.0000)
  39 Li     5.043777    5.239828   22.310447    ( 0.0000,  0.0000,  0.0000)
  40 Li     3.490000    6.980000   10.000000    ( 0.0000,  0.0000,  0.0000)
  41 Li     5.235000    8.725000   11.745000    ( 0.0000,  0.0000,  0.0000)
  42 Li     3.490000    6.980000   13.490000    ( 0.0000,  0.0000,  0.0000)
  43 Li     5.235000    8.725000   15.235000    ( 0.0000,  0.0000,  0.0000)
  44 Li     3.490841    6.993751   16.930468    ( 0.0000,  0.0000,  0.0000)
  45 Li     5.307205    8.724984   18.619952    ( 0.0000,  0.0000,  0.0000)
  46 Li     3.517128    7.042540   20.403943    ( 0.0000,  0.0000,  0.0000)
  47 Li     5.245402    8.725001   22.286134    ( 0.0000,  0.0000,  0.0000)
  48 Li     6.980000    0.000000   10.000000    ( 0.0000,  0.0000,  0.0000)
  49 Li     8.725000    1.745000   11.745000    ( 0.0000,  0.0000,  0.0000)
  50 Li     6.980000    0.000000   13.490000    ( 0.0000,  0.0000,  0.0000)
  51 Li     8.725000    1.745000   15.235000    ( 0.0000,  0.0000,  0.0000)
  52 Li     6.980004    0.012925   16.878749    ( 0.0000,  0.0000,  0.0000)
  53 Li     8.702908    1.708803   18.631527    ( 0.0000,  0.0000,  0.0000)
  54 Li     6.980002    0.035475   20.484572    ( 0.0000,  0.0000,  0.0000)
  55 Li     8.916206    1.740156   22.310550    ( 0.0000,  0.0000,  0.0000)
  56 Li     6.980000    3.490000   10.000000    ( 0.0000,  0.0000,  0.0000)
  57 Li     8.725000    5.235000   11.745000    ( 0.0000,  0.0000,  0.0000)
  58 Li     6.980000    3.490000   13.490000    ( 0.0000,  0.0000,  0.0000)
  59 Li     8.725000    5.235000   15.235000    ( 0.0000,  0.0000,  0.0000)
  60 Li     6.980003    3.490003   16.946449    ( 0.0000,  0.0000,  0.0000)
  61 Li     8.702888    5.271219   18.631439    ( 0.0000,  0.0000,  0.0000)
  62 Li     6.980001    3.490006   20.485464    ( 0.0000,  0.0000,  0.0000)
  63 Li     8.916220    5.239827   22.310450    ( 0.0000,  0.0000,  0.0000)
  64 Li     6.980000    6.980000   10.000000    ( 0.0000,  0.0000,  0.0000)
  65 Li     8.725000    8.725000   11.745000    ( 0.0000,  0.0000,  0.0000)
  66 Li     6.980000    6.980000   13.490000    ( 0.0000,  0.0000,  0.0000)
  67 Li     8.725000    8.725000   15.235000    ( 0.0000,  0.0000,  0.0000)
  68 Li     6.980005    6.967078   16.878904    ( 0.0000,  0.0000,  0.0000)
  69 Li     8.652807    8.724981   18.619948    ( 0.0000,  0.0000,  0.0000)
  70 Li     6.980001    6.944518   20.484544    ( 0.0000,  0.0000,  0.0000)
  71 Li     8.714582    8.725003   22.286137    ( 0.0000,  0.0000,  0.0000)
  72 Li     1.745000    3.490000   23.983481    ( 0.0000,  0.0000,  0.0000)

Unit cell:
           periodic     x           y           z      points  spacing
  1. axis:    yes   10.470000    0.000000    0.000000    35     0.2991
  2. axis:    yes    0.000000   10.470000    0.000000    35     0.2991
  3. axis:    no     0.000000    0.000000   32.215000   108     0.2983

  Lengths:  10.470000  10.470000  32.215000
  Angles:   90.000000  90.000000  90.000000

Effective grid spacing dv^(1/3) = 0.2989

     iter     time        total  log10-change:
                         energy   eigst   dens
iter:   1 00:32:52  -131.291044   -4.64
iter:   2 00:32:56  -131.291136   -4.96  -2.67
iter:   3 00:33:00  -131.290972c  -5.35c -2.97
iter:   4 00:33:04  -131.290823c  -5.08  -3.09
iter:   5 00:33:08  -131.290481c  -5.32c -3.00
iter:   6 00:33:12  -131.290727c  -5.17  -3.46
iter:   7 00:33:16  -131.290507c  -5.50c -3.34
iter:   8 00:33:19  -131.290420c  -5.59c -3.81
iter:   9 00:33:23  -131.290437c  -5.81c -3.96
iter:  10 00:33:27  -131.290422c  -5.76c -4.05c

Converged after 10 iterations.

Dipole moment: (2.898452, 1.787808, 0.279341) |e|*Ang

Energy contributions relative to reference atoms: (reference = -14803.510878)

Kinetic:       +103.159831
Potential:      -92.601143
External:        +0.000000
XC:            -140.756032
Entropy (-ST):   -1.208959
Local:           -0.488598
SIC:             +0.000000
--------------------------
Free energy:   -131.894901
Extrapolated:  -131.290422

Showing all kpts
 Kpt  Band  Eigenvalues  Occupancy
  0    34     -1.58328    1.60738
  0    35     -1.57398    1.57721
  0    36     -1.38461    0.71914
  0    37     -1.34935    0.56593

  1    34     -1.58328    1.60738
  1    35     -1.57398    1.57721
  1    36     -1.38461    0.71914
  1    37     -1.34935    0.56593


Fermi level: -1.44233

Gap: 0.189 eV
Transition (v -> c):
  (s=0, k=1, n=35, [0.25, 0.25, 0.00]) -> (s=0, k=1, n=36, [0.25, 0.25, 0.00])
No difference between direct/indirect transitions

Forces in eV/Ang:
  0 Li    0.00170   -0.00245   -0.03121
  1 Li    0.00000    0.00073    0.06438
  2 Li    0.00098    0.00049    0.01942
  3 Li   -0.00000    0.00465   -0.01154
  4 Li   -0.00895   -0.00263    0.00430
  5 Li   -0.00000   -0.00730    0.07157
  6 Li    0.01426    0.00561   -0.04667
  7 Li   -0.00000   -0.32589   -0.18909
  8 Li   -0.00253   -0.00000   -0.03519
  9 Li    0.00000   -0.00073    0.06439
 10 Li   -0.00018    0.00000    0.00227
 11 Li    0.00000   -0.00462   -0.01152
 12 Li   -0.00549   -0.00002    0.00379
 13 Li   -0.00000    0.00729    0.07165
 14 Li   -0.01003   -0.00003   -0.01895
 15 Li   -0.00000    0.32592   -0.18921
 16 Li    0.00170    0.00245   -0.03121
 17 Li    0.00000   -0.00000    0.05743
 18 Li    0.00098   -0.00049    0.01942
 19 Li    0.00000   -0.00003   -0.03668
 20 Li   -0.00895    0.00266    0.00416
 21 Li    0.00000    0.00001   -0.00124
 22 Li    0.01424   -0.00557   -0.04677
 23 Li    0.00000    0.00002   -0.04067
 24 Li   -0.00170   -0.00245   -0.03121
 25 Li    0.00044    0.00252    0.06025
 26 Li   -0.00098    0.00049    0.01942
 27 Li   -0.00448    0.00162   -0.03839
 28 Li    0.00895   -0.00264    0.00429
 29 Li    0.01233   -0.00757    0.01088
 30 Li   -0.01426    0.00562   -0.04667
 31 Li   -0.00786    0.03256    0.01706
 32 Li    0.00253   -0.00000   -0.03519
 33 Li    0.00044   -0.00252    0.06025
 34 Li    0.00018    0.00000    0.00226
 35 Li   -0.00447   -0.00158   -0.03836
 36 Li    0.00550   -0.00002    0.00378
 37 Li    0.01230    0.00753    0.01101
 38 Li    0.01004   -0.00003   -0.01895
 39 Li   -0.00781   -0.03255    0.01719
 40 Li   -0.00170    0.00245   -0.03121
 41 Li   -0.00248   -0.00000    0.05729
 42 Li   -0.00098   -0.00049    0.01942
 43 Li   -0.00107   -0.00005   -0.04952
 44 Li    0.00895    0.00266    0.00415
 45 Li   -0.00436    0.00004    0.01578
 46 Li   -0.01424   -0.00557   -0.04678
 47 Li    0.00708   -0.00001   -0.02470
 48 Li    0.00000    0.00271   -0.03033
 49 Li   -0.00044    0.00252    0.06025
 50 Li    0.00000    0.00194    0.01797
 51 Li    0.00448    0.00162   -0.03840
 52 Li   -0.00000   -0.00429    0.01886
 53 Li   -0.01233   -0.00757    0.01088
 54 Li   -0.00000    0.01645    0.00424
 55 Li    0.00785    0.03256    0.01706
 56 Li    0.00000    0.00000   -0.02969
 57 Li   -0.00044   -0.00252    0.06025
 58 Li    0.00000   -0.00000    0.03135
 59 Li    0.00447   -0.00157   -0.03836
 60 Li   -0.00000   -0.00003    0.00776
 61 Li   -0.01230    0.00752    0.01101
 62 Li   -0.00000    0.00000   -0.02278
 63 Li    0.00780   -0.03254    0.01719
 64 Li    0.00000   -0.00271   -0.03034
 65 Li    0.00248   -0.00000    0.05729
 66 Li    0.00000   -0.00194    0.01797
 67 Li    0.00107   -0.00005   -0.04953
 68 Li   -0.00001    0.00431    0.01858
 69 Li    0.00435    0.00004    0.01579
 70 Li   -0.00000   -0.01646    0.00424
 71 Li   -0.00707   -0.00001   -0.02470
 72 Li   -0.00000   -0.00008    0.26208

System changes: positions 

Initializing position-dependent things.

Density initialized from wave functions
       .-------------------------.  
      /|                         |  
     / |                         |  
    /  |                         |  
   /   |                         |  
  /    |                         |  
 *     |                         |  
 |     |                         |  
 |     |                         |  
 |     |                         |  
 |     |                         |  
 |     |                         |  
 |     |                         |  
 |     |  Li       Li       Li   |  
 |     Li                        |  
 |     |        LLi       Li     Li 
 |     |Li                       |  
 |     |      LLi     LiLi     Li|  
 |    Li  Li       Li      Li    |  
 |     |    Li  Li  Li       Li  Li 
 |     |Li       Li       Li     |  
 |     |      Li  Li  Li       Li|  
 |    Li  Li   Li  Li   Li  Li   |  
 |     |    Li      Li       Li  |  
 |     |Li       Li       Li     |  
 |   Li|      Li  Li  Li         |  
 |    Li  Li   Li  Li   Li  Li   |  
 | Li  |    Li      Li           |  
 |     |Li       Li       Li     |  
 Li    |  Li      Li             |  
 |   LLi      LLi     LiLi       |  
 |     |                         |  
 | Li  |    Li      Li           |  
 |     |                         |  
 Li    |  Li      Li             |  
 |     |                         |  
 |     |                         |  
 |     |                         |  
 |     |                         |  
 |     |                         |  
 |     .-------------------------.  
 |    /                         /   
 |   /                         /    
 |  /                         /     
 | /                         /      
 |/                         /       
 *-------------------------*        

Atomic positions and initial magnetic moments

Positions:
   0 Li     0.000000    0.000000   10.000000    ( 0.0000,  0.0000,  0.0000)
   1 Li     1.745000    1.745000   11.745000    ( 0.0000,  0.0000,  0.0000)
   2 Li     0.000000    0.000000   13.490000    ( 0.0000,  0.0000,  0.0000)
   3 Li     1.745000    1.745000   15.235000    ( 0.0000,  0.0000,  0.0000)
   4 Li    -0.001033   -0.013814   16.930445    ( 0.0000,  0.0000,  0.0000)
   5 Li     1.744997    1.758923   18.584545    ( 0.0000,  0.0000,  0.0000)
   6 Li    -0.026881   -0.062477   20.402946    ( 0.0000,  0.0000,  0.0000)
   7 Li     1.745000    1.931367   21.859737    ( 0.0000,  0.0000,  0.0000)
   8 Li     0.000000    3.490000   10.000000    ( 0.0000,  0.0000,  0.0000)
   9 Li     1.745000    5.235000   11.745000    ( 0.0000,  0.0000,  0.0000)
  10 Li     0.000000    3.490000   13.490000    ( 0.0000,  0.0000,  0.0000)
  11 Li     1.745000    5.235000   15.235000    ( 0.0000,  0.0000,  0.0000)
  12 Li    -0.027620    3.490005   16.914484    ( 0.0000,  0.0000,  0.0000)
  13 Li     1.744996    5.221065   18.584513    ( 0.0000,  0.0000,  0.0000)
  14 Li    -0.125559    3.490046   20.322476    ( 0.0000,  0.0000,  0.0000)
  15 Li     1.744999    5.048653   21.859849    ( 0.0000,  0.0000,  0.0000)
  16 Li     0.000000    6.980000   10.000000    ( 0.0000,  0.0000,  0.0000)
  17 Li     1.745000    8.725000   11.745000    ( 0.0000,  0.0000,  0.0000)
  18 Li     0.000000    6.980000   13.490000    ( 0.0000,  0.0000,  0.0000)
  19 Li     1.745000    8.725000   15.235000    ( 0.0000,  0.0000,  0.0000)
  20 Li    -0.001021    6.993805   16.930541    ( 0.0000,  0.0000,  0.0000)
  21 Li     1.744994    8.725003   18.642930    ( 0.0000,  0.0000,  0.0000)
  22 Li    -0.026841    7.042427   20.403008    ( 0.0000,  0.0000,  0.0000)
  23 Li     1.744990    8.724994   22.333044    ( 0.0000,  0.0000,  0.0000)
  24 Li     3.490000    0.000000   10.000000    ( 0.0000,  0.0000,  0.0000)
  25 Li     5.235000    1.745000   11.745000    ( 0.0000,  0.0000,  0.0000)
  26 Li     3.490000    0.000000   13.490000    ( 0.0000,  0.0000,  0.0000)
  27 Li     5.235000    1.745000   15.235000    ( 0.0000,  0.0000,  0.0000)
  28 Li     3.491030   -0.013812   16.930450    ( 0.0000,  0.0000,  0.0000)
  29 Li     5.257337    1.708657   18.631742    ( 0.0000,  0.0000,  0.0000)
  30 Li     3.516874   -0.062479   20.402943    ( 0.0000,  0.0000,  0.0000)
  31 Li     5.043634    1.740815   22.310888    ( 0.0000,  0.0000,  0.0000)
  32 Li     3.490000    3.490000   10.000000    ( 0.0000,  0.0000,  0.0000)
  33 Li     5.235000    5.235000   11.745000    ( 0.0000,  0.0000,  0.0000)
  34 Li     3.490000    3.490000   13.490000    ( 0.0000,  0.0000,  0.0000)
  35 Li     5.235000    5.235000   15.235000    ( 0.0000,  0.0000,  0.0000)
  36 Li     3.517611    3.490005   16.914486    ( 0.0000,  0.0000,  0.0000)
  37 Li     5.257361    5.271361   18.631658    ( 0.0000,  0.0000,  0.0000)
  38 Li     3.615550    3.490046   20.322471    ( 0.0000,  0.0000,  0.0000)
  39 Li     5.043616    5.239168   22.310791    ( 0.0000,  0.0000,  0.0000)
  40 Li     3.490000    6.980000   10.000000    ( 0.0000,  0.0000,  0.0000)
  41 Li     5.235000    8.725000   11.745000    ( 0.0000,  0.0000,  0.0000)
  42 Li     3.490000    6.980000   13.490000    ( 0.0000,  0.0000,  0.0000)
  43 Li     5.235000    8.725000   15.235000    ( 0.0000,  0.0000,  0.0000)
  44 Li     3.491021    6.993804   16.930549    ( 0.0000,  0.0000,  0.0000)
  45 Li     5.307110    8.724985   18.620271    ( 0.0000,  0.0000,  0.0000)
  46 Li     3.516834    7.042428   20.403006    ( 0.0000,  0.0000,  0.0000)
  47 Li     5.245544    8.725001   22.285636    ( 0.0000,  0.0000,  0.0000)
  48 Li     6.980000    0.000000   10.000000    ( 0.0000,  0.0000,  0.0000)
  49 Li     8.725000    1.745000   11.745000    ( 0.0000,  0.0000,  0.0000)
  50 Li     6.980000    0.000000   13.490000    ( 0.0000,  0.0000,  0.0000)
  51 Li     8.725000    1.745000   15.235000    ( 0.0000,  0.0000,  0.0000)
  52 Li     6.980004    0.012840   16.879126    ( 0.0000,  0.0000,  0.0000)
  53 Li     8.702659    1.708651   18.631744    ( 0.0000,  0.0000,  0.0000)
  54 Li     6.980001    0.035807   20.484658    ( 0.0000,  0.0000,  0.0000)
  55 Li     8.916367    1.740816   22.310892    ( 0.0000,  0.0000,  0.0000)
  56 Li     6.980000    3.490000   10.000000    ( 0.0000,  0.0000,  0.0000)
  57 Li     8.725000    5.235000   11.745000    ( 0.0000,  0.0000,  0.0000)
  58 Li     6.980000    3.490000   13.490000    ( 0.0000,  0.0000,  0.0000)
  59 Li     8.725000    5.235000   15.235000    ( 0.0000,  0.0000,  0.0000)
  60 Li     6.980003    3.490002   16.946602    ( 0.0000,  0.0000,  0.0000)
  61 Li     8.702640    5.271370   18.631659    ( 0.0000,  0.0000,  0.0000)
  62 Li     6.980001    3.490006   20.485001    ( 0.0000,  0.0000,  0.0000)
  63 Li     8.916380    5.239168   22.310795    ( 0.0000,  0.0000,  0.0000)
  64 Li     6.980000    6.980000   10.000000    ( 0.0000,  0.0000,  0.0000)
  65 Li     8.725000    8.725000   11.745000    ( 0.0000,  0.0000,  0.0000)
  66 Li     6.980000    6.980000   13.490000    ( 0.0000,  0.0000,  0.0000)
  67 Li     8.725000    8.725000   15.235000    ( 0.0000,  0.0000,  0.0000)
  68 Li     6.980004    6.967164   16.879276    ( 0.0000,  0.0000,  0.0000)
  69 Li     8.652901    8.724982   18.620267    ( 0.0000,  0.0000,  0.0000)
  70 Li     6.980001    6.944185   20.484630    ( 0.0000,  0.0000,  0.0000)
  71 Li     8.714441    8.725003   22.285638    ( 0.0000,  0.0000,  0.0000)
  72 Li     1.745000    3.490000   23.988845    ( 0.0000,  0.0000,  0.0000)

Unit cell:
           periodic     x           y           z      points  spacing
  1. axis:    yes   10.470000    0.000000    0.000000    35     0.2991
  2. axis:    yes    0.000000   10.470000    0.000000    35     0.2991
  3. axis:    no     0.000000    0.000000   32.215000   108     0.2983

  Lengths:  10.470000  10.470000  32.215000
  Angles:   90.000000  90.000000  90.000000

Effective grid spacing dv^(1/3) = 0.2989

     iter     time        total  log10-change:
                         energy   eigst   dens
iter:   1 00:36:49  -131.302005   -3.95
iter:   2 00:36:53  -131.306275   -3.68  -2.24
iter:   3 00:36:56  -131.298893c  -4.63  -2.04
iter:   4 00:37:00  -131.298307c  -5.06  -2.74
iter:   5 00:37:04  -131.297739c  -5.04  -2.95
iter:   6 00:37:07  -131.297967c  -5.27  -3.23
iter:   7 00:37:11  -131.297869c  -5.88c -3.08
iter:   8 00:37:15  -131.297796c  -5.82c -3.57
iter:   9 00:37:18  -131.297806c  -6.23c -3.75
iter:  10 00:37:22  -131.297842c  -6.33c -3.83
iter:  11 00:37:26  -131.297801c  -6.04c -4.00c

Converged after 11 iterations.

Dipole moment: (2.897461, 1.777756, 0.281237) |e|*Ang

Energy contributions relative to reference atoms: (reference = -14803.510878)

Kinetic:       +103.113129
Potential:      -92.573003
External:        +0.000000
XC:            -140.744603
Entropy (-ST):   -1.209767
Local:           -0.488440
SIC:             +0.000000
--------------------------
Free energy:   -131.902684
Extrapolated:  -131.297801

Showing all kpts
 Kpt  Band  Eigenvalues  Occupancy
  0    34     -1.58284    1.60719
  0    35     -1.57353    1.57698
  0    36     -1.38442    0.72005
  0    37     -1.34913    0.56661

  1    34     -1.58284    1.60719
  1    35     -1.57353    1.57698
  1    36     -1.38442    0.72005
  1    37     -1.34913    0.56661


Fermi level: -1.44195

Gap: 0.189 eV
Transition (v -> c):
  (s=0, k=1, n=35, [0.25, 0.25, 0.00]) -> (s=0, k=1, n=36, [0.25, 0.25, 0.00])
No difference between direct/indirect transitions

Forces in eV/Ang:
  0 Li    0.00162   -0.00244   -0.03092
  1 Li    0.00000    0.00082    0.06431
  2 Li    0.00088    0.00058    0.01930
  3 Li   -0.00000    0.00462   -0.01132
  4 Li   -0.00854   -0.00248    0.00437
  5 Li   -0.00000   -0.00727    0.06859
  6 Li    0.01201    0.00401   -0.04671
  7 Li   -0.00000   -0.30987   -0.17472
  8 Li   -0.00265   -0.00000   -0.03480
  9 Li    0.00000   -0.00082    0.06432
 10 Li   -0.00022    0.00000    0.00216
 11 Li    0.00000   -0.00459   -0.01130
 12 Li   -0.00500   -0.00002    0.00401
 13 Li   -0.00000    0.00726    0.06867
 14 Li   -0.00906   -0.00003   -0.01786
 15 Li   -0.00000    0.30990   -0.17483
 16 Li    0.00162    0.00244   -0.03093
 17 Li    0.00000   -0.00000    0.05704
 18 Li    0.00088   -0.00059    0.01931
 19 Li    0.00000   -0.00003   -0.03646
 20 Li   -0.00854    0.00251    0.00424
 21 Li    0.00000    0.00001   -0.00113
 22 Li    0.01198   -0.00396   -0.04682
 23 Li    0.00000    0.00002   -0.04120
 24 Li   -0.00162   -0.00244   -0.03092
 25 Li    0.00044    0.00258    0.06015
 26 Li   -0.00088    0.00059    0.01930
 27 Li   -0.00441    0.00168   -0.03845
 28 Li    0.00855   -0.00249    0.00437
 29 Li    0.01196   -0.00741    0.01082
 30 Li   -0.01201    0.00401   -0.04671
 31 Li   -0.00751    0.03132    0.01634
 32 Li    0.00265    0.00000   -0.03480
 33 Li    0.00044   -0.00258    0.06015
 34 Li    0.00022    0.00000    0.00216
 35 Li   -0.00439   -0.00164   -0.03841
 36 Li    0.00501   -0.00002    0.00400
 37 Li    0.01193    0.00737    0.01095
 38 Li    0.00906   -0.00003   -0.01785
 39 Li   -0.00746   -0.03130    0.01646
 40 Li   -0.00162    0.00244   -0.03093
 41 Li   -0.00237   -0.00000    0.05717
 42 Li   -0.00088   -0.00059    0.01931
 43 Li   -0.00105   -0.00004   -0.04944
 44 Li    0.00854    0.00251    0.00424
 45 Li   -0.00374    0.00003    0.01589
 46 Li   -0.01198   -0.00396   -0.04682
 47 Li    0.00671   -0.00001   -0.02526
 48 Li    0.00000    0.00274   -0.02999
 49 Li   -0.00044    0.00258    0.06015
 50 Li    0.00000    0.00206    0.01783
 51 Li    0.00440    0.00168   -0.03845
 52 Li   -0.00000   -0.00421    0.01854
 53 Li   -0.01196   -0.00740    0.01082
 54 Li   -0.00000    0.01587    0.00440
 55 Li    0.00750    0.03132    0.01634
 56 Li    0.00000    0.00000   -0.02932
 57 Li   -0.00044   -0.00258    0.06015
 58 Li    0.00000   -0.00000    0.03125
 59 Li    0.00439   -0.00164   -0.03842
 60 Li   -0.00000   -0.00003    0.00748
 61 Li   -0.01193    0.00736    0.01095
 62 Li   -0.00000    0.00000   -0.02188
 63 Li    0.00746   -0.03130    0.01646
 64 Li    0.00000   -0.00274   -0.03000
 65 Li    0.00237   -0.00000    0.05717
 66 Li    0.00000   -0.00206    0.01783
 67 Li    0.00104   -0.00004   -0.04945
 68 Li   -0.00001    0.00423    0.01828
 69 Li    0.00373    0.00004    0.01589
 70 Li   -0.00000   -0.01588    0.00440
 71 Li   -0.00670   -0.00001   -0.02526
 72 Li   -0.00000   -0.00007    0.23858

System changes: positions 

Initializing position-dependent things.

Density initialized from wave functions
       .-------------------------.  
      /|                         |  
     / |                         |  
    /  |                         |  
   /   |                         |  
  /    |                         |  
 *     |                         |  
 |     |                         |  
 |     |                         |  
 |     |                         |  
 |     |                         |  
 |     |                         |  
 |     |                         |  
 |     |  Li       Li       Li   |  
 |     Li                        |  
 |     |        LLi       Li     Li 
 |     |Li                       |  
 |     |      LLi     LiLi     Li|  
 |    Li  Li       Li      Li    |  
 |     |    Li  Li  Li       Li  Li 
 |     |Li       Li       Li     |  
 |     |      Li  Li  Li       Li|  
 |    Li  Li   Li  Li   Li  Li   |  
 |     |    Li      Li       Li  |  
 |     |Li       Li       Li     |  
 |   Li|      Li  Li  Li         |  
 |    Li  Li   Li  Li   Li  Li   |  
 | Li  |    Li      Li           |  
 |     |Li       Li       Li     |  
 Li    |  Li      Li             |  
 |   LLi      LLi     LiLi       |  
 |     |                         |  
 | Li  |    Li      Li           |  
 |     |                         |  
 Li    |  Li      Li             |  
 |     |                         |  
 |     |                         |  
 |     |                         |  
 |     |                         |  
 |     |                         |  
 |     .-------------------------.  
 |    /                         /   
 |   /                         /    
 |  /                         /     
 | /                         /      
 |/                         /       
 *-------------------------*        

Atomic positions and initial magnetic moments

Positions:
   0 Li     0.000000    0.000000   10.000000    ( 0.0000,  0.0000,  0.0000)
   1 Li     1.745000    1.745000   11.745000    ( 0.0000,  0.0000,  0.0000)
   2 Li     0.000000    0.000000   13.490000    ( 0.0000,  0.0000,  0.0000)
   3 Li     1.745000    1.745000   15.235000    ( 0.0000,  0.0000,  0.0000)
   4 Li    -0.001299   -0.013891   16.930574    ( 0.0000,  0.0000,  0.0000)
   5 Li     1.744997    1.758704   18.586678    ( 0.0000,  0.0000,  0.0000)
   6 Li    -0.026470   -0.062327   20.401536    ( 0.0000,  0.0000,  0.0000)
   7 Li     1.745000    1.921653   21.854143    ( 0.0000,  0.0000,  0.0000)
   8 Li     0.000000    3.490000   10.000000    ( 0.0000,  0.0000,  0.0000)
   9 Li     1.745000    5.235000   11.745000    ( 0.0000,  0.0000,  0.0000)
  10 Li     0.000000    3.490000   13.490000    ( 0.0000,  0.0000,  0.0000)
  11 Li     1.745000    5.235000   15.235000    ( 0.0000,  0.0000,  0.0000)
  12 Li    -0.027780    3.490005   16.914598    ( 0.0000,  0.0000,  0.0000)
  13 Li     1.744996    5.221283   18.586649    ( 0.0000,  0.0000,  0.0000)
  14 Li    -0.125858    3.490045   20.321914    ( 0.0000,  0.0000,  0.0000)
  15 Li     1.744999    5.058369   21.854250    ( 0.0000,  0.0000,  0.0000)
  16 Li     0.000000    6.980000   10.000000    ( 0.0000,  0.0000,  0.0000)
  17 Li     1.745000    8.725000   11.745000    ( 0.0000,  0.0000,  0.0000)
  18 Li     0.000000    6.980000   13.490000    ( 0.0000,  0.0000,  0.0000)
  19 Li     1.745000    8.725000   15.235000    ( 0.0000,  0.0000,  0.0000)
  20 Li    -0.001287    6.993883   16.930665    ( 0.0000,  0.0000,  0.0000)
  21 Li     1.744994    8.725003   18.642895    ( 0.0000,  0.0000,  0.0000)
  22 Li    -0.026430    7.042279   20.401595    ( 0.0000,  0.0000,  0.0000)
  23 Li     1.744990    8.724994   22.331808    ( 0.0000,  0.0000,  0.0000)
  24 Li     3.490000    0.000000   10.000000    ( 0.0000,  0.0000,  0.0000)
  25 Li     5.235000    1.745000   11.745000    ( 0.0000,  0.0000,  0.0000)
  26 Li     3.490000    0.000000   13.490000    ( 0.0000,  0.0000,  0.0000)
  27 Li     5.235000    1.745000   15.235000    ( 0.0000,  0.0000,  0.0000)
  28 Li     3.491296   -0.013889   16.930579    ( 0.0000,  0.0000,  0.0000)
  29 Li     5.257707    1.708430   18.632069    ( 0.0000,  0.0000,  0.0000)
  30 Li     3.516462   -0.062328   20.401533    ( 0.0000,  0.0000,  0.0000)
  31 Li     5.043398    1.741790   22.311395    ( 0.0000,  0.0000,  0.0000)
  32 Li     3.490000    3.490000   10.000000    ( 0.0000,  0.0000,  0.0000)
  33 Li     5.235000    5.235000   11.745000    ( 0.0000,  0.0000,  0.0000)
  34 Li     3.490000    3.490000   13.490000    ( 0.0000,  0.0000,  0.0000)
  35 Li     5.235000    5.235000   15.235000    ( 0.0000,  0.0000,  0.0000)
  36 Li     3.517772    3.490005   16.914600    ( 0.0000,  0.0000,  0.0000)
  37 Li     5.257730    5.271587   18.631990    ( 0.0000,  0.0000,  0.0000)
  38 Li     3.615849    3.490045   20.321910    ( 0.0000,  0.0000,  0.0000)
  39 Li     5.043381    5.238194   22.311302    ( 0.0000,  0.0000,  0.0000)
  40 Li     3.490000    6.980000   10.000000    ( 0.0000,  0.0000,  0.0000)
  41 Li     5.235000    8.725000   11.745000    ( 0.0000,  0.0000,  0.0000)
  42 Li     3.490000    6.980000   13.490000    ( 0.0000,  0.0000,  0.0000)
  43 Li     5.235000    8.725000   15.235000    ( 0.0000,  0.0000,  0.0000)
  44 Li     3.491287    6.993881   16.930674    ( 0.0000,  0.0000,  0.0000)
  45 Li     5.306980    8.724986   18.620751    ( 0.0000,  0.0000,  0.0000)
  46 Li     3.516424    7.042279   20.401593    ( 0.0000,  0.0000,  0.0000)
  47 Li     5.245753    8.725001   22.284880    ( 0.0000,  0.0000,  0.0000)
  48 Li     6.980000    0.000000   10.000000    ( 0.0000,  0.0000,  0.0000)
  49 Li     8.725000    1.745000   11.745000    ( 0.0000,  0.0000,  0.0000)
  50 Li     6.980000    0.000000   13.490000    ( 0.0000,  0.0000,  0.0000)
  51 Li     8.725000    1.745000   15.235000    ( 0.0000,  0.0000,  0.0000)
  52 Li     6.980004    0.012711   16.879691    ( 0.0000,  0.0000,  0.0000)
  53 Li     8.702289    1.708424   18.632072    ( 0.0000,  0.0000,  0.0000)
  54 Li     6.980001    0.036300   20.484788    ( 0.0000,  0.0000,  0.0000)
  55 Li     8.916603    1.741791   22.311399    ( 0.0000,  0.0000,  0.0000)
  56 Li     6.980000    3.490000   10.000000    ( 0.0000,  0.0000,  0.0000)
  57 Li     8.725000    5.235000   11.745000    ( 0.0000,  0.0000,  0.0000)
  58 Li     6.980000    3.490000   13.490000    ( 0.0000,  0.0000,  0.0000)
  59 Li     8.725000    5.235000   15.235000    ( 0.0000,  0.0000,  0.0000)
  60 Li     6.980003    3.490002   16.946831    ( 0.0000,  0.0000,  0.0000)
  61 Li     8.702271    5.271596   18.631991    ( 0.0000,  0.0000,  0.0000)
  62 Li     6.980001    3.490006   20.484319    ( 0.0000,  0.0000,  0.0000)
  63 Li     8.916615    5.238193   22.311305    ( 0.0000,  0.0000,  0.0000)
  64 Li     6.980000    6.980000   10.000000    ( 0.0000,  0.0000,  0.0000)
  65 Li     8.725000    8.725000   11.745000    ( 0.0000,  0.0000,  0.0000)
  66 Li     6.980000    6.980000   13.490000    ( 0.0000,  0.0000,  0.0000)
  67 Li     8.725000    8.725000   15.235000    ( 0.0000,  0.0000,  0.0000)
  68 Li     6.980004    6.967293   16.879833    ( 0.0000,  0.0000,  0.0000)
  69 Li     8.653031    8.724983   18.620748    ( 0.0000,  0.0000,  0.0000)
  70 Li     6.980001    6.943692   20.484760    ( 0.0000,  0.0000,  0.0000)
  71 Li     8.714232    8.725002   22.284883    ( 0.0000,  0.0000,  0.0000)
  72 Li     1.745000    3.490000   23.996577    ( 0.0000,  0.0000,  0.0000)

Unit cell:
           periodic     x           y           z      points  spacing
  1. axis:    yes   10.470000    0.000000    0.000000    35     0.2991
  2. axis:    yes    0.000000   10.470000    0.000000    35     0.2991
  3. axis:    no     0.000000    0.000000   32.215000   108     0.2983

  Lengths:  10.470000  10.470000  32.215000
  Angles:   90.000000  90.000000  90.000000

Effective grid spacing dv^(1/3) = 0.2989

     iter     time        total  log10-change:
                         energy   eigst   dens
iter:   1 00:40:56  -131.314181   -3.74
iter:   2 00:41:01  -131.316062   -3.78  -2.19
iter:   3 00:41:04  -131.309830c  -4.55  -2.05
iter:   4 00:41:08  -131.308635c  -5.09  -2.56
iter:   5 00:41:12  -131.307847c  -4.92  -2.83
iter:   6 00:41:16  -131.308381c  -5.20  -3.05
iter:   7 00:41:20  -131.308052c  -5.91c -2.97
iter:   8 00:41:24  -131.307920c  -5.92c -3.39
iter:   9 00:41:28  -131.307986c  -6.46c -3.57
iter:  10 00:41:31  -131.308055c  -6.48c -3.64
iter:  11 00:41:35  -131.307918c  -6.01c -3.75
iter:  12 00:41:39  -131.307953c  -6.32c -3.73
iter:  13 00:41:42  -131.307979c  -6.42c -3.99
iter:  14 00:41:46  -131.307971c  -6.77c -4.14c

Converged after 14 iterations.

Dipole moment: (2.896749, 1.762557, 0.284773) |e|*Ang

Energy contributions relative to reference atoms: (reference = -14803.510878)

Kinetic:       +103.042169
Potential:      -92.529238
External:        +0.000000
XC:            -140.727299
Entropy (-ST):   -1.210299
Local:           -0.488454
SIC:             +0.000000
--------------------------
Free energy:   -131.913121
Extrapolated:  -131.307971

Showing all kpts
 Kpt  Band  Eigenvalues  Occupancy
  0    34     -1.58246    1.60712
  0    35     -1.57311    1.57676
  0    36     -1.38444    0.72178
  0    37     -1.34896    0.56736

  1    34     -1.58246    1.60712
  1    35     -1.57311    1.57676
  1    36     -1.38444    0.72178
  1    37     -1.34896    0.56736


Fermi level: -1.44159

Gap: 0.189 eV
Transition (v -> c):
  (s=0, k=1, n=35, [0.25, 0.25, 0.00]) -> (s=0, k=1, n=36, [0.25, 0.25, 0.00])
No difference between direct/indirect transitions

Forces in eV/Ang:
  0 Li    0.00164   -0.00251   -0.03095
  1 Li    0.00000    0.00074    0.06395
  2 Li    0.00081    0.00048    0.01916
  3 Li   -0.00000    0.00443   -0.01084
  4 Li   -0.00793   -0.00218    0.00445
  5 Li   -0.00000   -0.00704    0.06391
  6 Li    0.00874    0.00156   -0.04664
  7 Li   -0.00000   -0.28716   -0.15452
  8 Li   -0.00264   -0.00000   -0.03492
  9 Li    0.00000   -0.00074    0.06395
 10 Li   -0.00019    0.00000    0.00207
 11 Li    0.00000   -0.00441   -0.01082
 12 Li   -0.00433   -0.00002    0.00470
 13 Li   -0.00000    0.00703    0.06399
 14 Li   -0.00769   -0.00003   -0.01581
 15 Li   -0.00000    0.28718   -0.15462
 16 Li    0.00164    0.00251   -0.03095
 17 Li    0.00000   -0.00000    0.05667
 18 Li    0.00081   -0.00048    0.01917
 19 Li    0.00000   -0.00003   -0.03624
 20 Li   -0.00793    0.00221    0.00432
 21 Li    0.00000    0.00001   -0.00134
 22 Li    0.00871   -0.00152   -0.04674
 23 Li    0.00000    0.00002   -0.04171
 24 Li   -0.00164   -0.00251   -0.03095
 25 Li    0.00039    0.00244    0.05984
 26 Li   -0.00081    0.00048    0.01917
 27 Li   -0.00424    0.00149   -0.03829
 28 Li    0.00793   -0.00219    0.00445
 29 Li    0.01152   -0.00694    0.01052
 30 Li   -0.00874    0.00156   -0.04664
 31 Li   -0.00722    0.03004    0.01527
 32 Li    0.00264    0.00000   -0.03492
 33 Li    0.00039   -0.00243    0.05984
 34 Li    0.00019    0.00000    0.00207
 35 Li   -0.00423   -0.00145   -0.03826
 36 Li    0.00434   -0.00002    0.00469
 37 Li    0.01150    0.00690    0.01064
 38 Li    0.00769   -0.00003   -0.01580
 39 Li   -0.00718   -0.03003    0.01539
 40 Li   -0.00164    0.00251   -0.03095
 41 Li   -0.00231   -0.00000    0.05699
 42 Li   -0.00081   -0.00048    0.01917
 43 Li   -0.00083   -0.00004   -0.04951
 44 Li    0.00793    0.00221    0.00432
 45 Li   -0.00317    0.00003    0.01564
 46 Li   -0.00871   -0.00152   -0.04674
 47 Li    0.00565   -0.00001   -0.02558
 48 Li    0.00000    0.00260   -0.02998
 49 Li   -0.00039    0.00244    0.05984
 50 Li    0.00000    0.00191    0.01774
 51 Li    0.00424    0.00149   -0.03830
 52 Li   -0.00000   -0.00404    0.01786
 53 Li   -0.01152   -0.00693    0.01052
 54 Li   -0.00000    0.01560    0.00462
 55 Li    0.00722    0.03004    0.01527
 56 Li    0.00000    0.00000   -0.02945
 57 Li   -0.00039   -0.00243    0.05984
 58 Li    0.00000   -0.00000    0.03114
 59 Li    0.00423   -0.00145   -0.03827
 60 Li   -0.00000   -0.00003    0.00742
 61 Li   -0.01149    0.00689    0.01064
 62 Li   -0.00000   -0.00000   -0.02048
 63 Li    0.00717   -0.03002    0.01539
 64 Li    0.00000   -0.00260   -0.02998
 65 Li    0.00231   -0.00000    0.05699
 66 Li    0.00000   -0.00190    0.01774
 67 Li    0.00083   -0.00004   -0.04952
 68 Li   -0.00001    0.00406    0.01761
 69 Li    0.00316    0.00003    0.01564
 70 Li   -0.00000   -0.01560    0.00462
 71 Li   -0.00564   -0.00001   -0.02558
 72 Li   -0.00000   -0.00007    0.20600

System changes: positions 

Initializing position-dependent things.

Density initialized from wave functions
       .-------------------------.  
      /|                         |  
     / |                         |  
    /  |                         |  
   /   |                         |  
  /    |                         |  
 *     |                         |  
 |     |                         |  
 |     |                         |  
 |     |                         |  
 |     |                         |  
 |     |                         |  
 |     |                         |  
 |     |  Li       Li       Li   |  
 |     Li                        |  
 |     |        LLi       Li     Li 
 |     |Li                       |  
 |     |      LLi     LiLi     Li|  
 |    Li  Li       Li      Li    |  
 |     |    Li  Li  Li       Li  Li 
 |     |Li       Li       Li     |  
 |     |      Li  Li  Li       Li|  
 |    Li  Li   Li  Li   Li  Li   |  
 |     |    Li      Li       Li  |  
 |     |Li       Li       Li     |  
 |   Li|      Li  Li  Li         |  
 |    Li  Li   Li  Li   Li  Li   |  
 | Li  |    Li      Li           |  
 |     |Li       Li       Li     |  
 Li    |  Li      Li             |  
 |   LLi      LLi     LiLi       |  
 |     |                         |  
 | Li  |    Li      Li           |  
 |     |                         |  
 Li    |  Li      Li             |  
 |     |                         |  
 |     |                         |  
 |     |                         |  
 |     |                         |  
 |     |                         |  
 |     .-------------------------.  
 |    /                         /   
 |   /                         /    
 |  /                         /     
 | /                         /      
 |/                         /       
 *-------------------------*        

Atomic positions and initial magnetic moments

Positions:
   0 Li     0.000000    0.000000   10.000000    ( 0.0000,  0.0000,  0.0000)
   1 Li     1.745000    1.745000   11.745000    ( 0.0000,  0.0000,  0.0000)
   2 Li     0.000000    0.000000   13.490000    ( 0.0000,  0.0000,  0.0000)
   3 Li     1.745000    1.745000   15.235000    ( 0.0000,  0.0000,  0.0000)
   4 Li    -0.001646   -0.013990   16.930750    ( 0.0000,  0.0000,  0.0000)
   5 Li     1.744997    1.758412   18.589461    ( 0.0000,  0.0000,  0.0000)
   6 Li    -0.025982   -0.062171   20.399638    ( 0.0000,  0.0000,  0.0000)
   7 Li     1.745000    1.909033   21.847022    ( 0.0000,  0.0000,  0.0000)
   8 Li     0.000000    3.490000   10.000000    ( 0.0000,  0.0000,  0.0000)
   9 Li     1.745000    5.235000   11.745000    ( 0.0000,  0.0000,  0.0000)
  10 Li     0.000000    3.490000   13.490000    ( 0.0000,  0.0000,  0.0000)
  11 Li     1.745000    5.235000   15.235000    ( 0.0000,  0.0000,  0.0000)
  12 Li    -0.027983    3.490004   16.914764    ( 0.0000,  0.0000,  0.0000)
  13 Li     1.744996    5.221575   18.589434    ( 0.0000,  0.0000,  0.0000)
  14 Li    -0.126230    3.490044   20.321195    ( 0.0000,  0.0000,  0.0000)
  15 Li     1.744999    5.070990   21.847123    ( 0.0000,  0.0000,  0.0000)
  16 Li     0.000000    6.980000   10.000000    ( 0.0000,  0.0000,  0.0000)
  17 Li     1.745000    8.725000   11.745000    ( 0.0000,  0.0000,  0.0000)
  18 Li     0.000000    6.980000   13.490000    ( 0.0000,  0.0000,  0.0000)
  19 Li     1.745000    8.725000   15.235000    ( 0.0000,  0.0000,  0.0000)
  20 Li    -0.001634    6.993983   16.930836    ( 0.0000,  0.0000,  0.0000)
  21 Li     1.744994    8.725003   18.642844    ( 0.0000,  0.0000,  0.0000)
  22 Li    -0.025943    7.042124   20.399692    ( 0.0000,  0.0000,  0.0000)
  23 Li     1.744990    8.724994   22.330133    ( 0.0000,  0.0000,  0.0000)
  24 Li     3.490000    0.000000   10.000000    ( 0.0000,  0.0000,  0.0000)
  25 Li     5.235000    1.745000   11.745000    ( 0.0000,  0.0000,  0.0000)
  26 Li     3.490000    0.000000   13.490000    ( 0.0000,  0.0000,  0.0000)
  27 Li     5.235000    1.745000   15.235000    ( 0.0000,  0.0000,  0.0000)
  28 Li     3.491642   -0.013988   16.930755    ( 0.0000,  0.0000,  0.0000)
  29 Li     5.258196    1.708132   18.632506    ( 0.0000,  0.0000,  0.0000)
  30 Li     3.515974   -0.062172   20.399635    ( 0.0000,  0.0000,  0.0000)
  31 Li     5.043088    1.743073   22.312057    ( 0.0000,  0.0000,  0.0000)
  32 Li     3.490000    3.490000   10.000000    ( 0.0000,  0.0000,  0.0000)
  33 Li     5.235000    5.235000   11.745000    ( 0.0000,  0.0000,  0.0000)
  34 Li     3.490000    3.490000   13.490000    ( 0.0000,  0.0000,  0.0000)
  35 Li     5.235000    5.235000   15.235000    ( 0.0000,  0.0000,  0.0000)
  36 Li     3.517976    3.490004   16.914766    ( 0.0000,  0.0000,  0.0000)
  37 Li     5.258217    5.271884   18.632432    ( 0.0000,  0.0000,  0.0000)
  38 Li     3.616221    3.490044   20.321191    ( 0.0000,  0.0000,  0.0000)
  39 Li     5.043073    5.236911   22.311969    ( 0.0000,  0.0000,  0.0000)
  40 Li     3.490000    6.980000   10.000000    ( 0.0000,  0.0000,  0.0000)
  41 Li     5.235000    8.725000   11.745000    ( 0.0000,  0.0000,  0.0000)
  42 Li     3.490000    6.980000   13.490000    ( 0.0000,  0.0000,  0.0000)
  43 Li     5.235000    8.725000   15.235000    ( 0.0000,  0.0000,  0.0000)
  44 Li     3.491633    6.993981   16.930844    ( 0.0000,  0.0000,  0.0000)
  45 Li     5.306820    8.724987   18.621395    ( 0.0000,  0.0000,  0.0000)
  46 Li     3.515937    7.042125   20.399690    ( 0.0000,  0.0000,  0.0000)
  47 Li     5.246018    8.725000   22.283855    ( 0.0000,  0.0000,  0.0000)
  48 Li     6.980000    0.000000   10.000000    ( 0.0000,  0.0000,  0.0000)
  49 Li     8.725000    1.745000   11.745000    ( 0.0000,  0.0000,  0.0000)
  50 Li     6.980000    0.000000   13.490000    ( 0.0000,  0.0000,  0.0000)
  51 Li     8.725000    1.745000   15.235000    ( 0.0000,  0.0000,  0.0000)
  52 Li     6.980004    0.012541   16.880440    ( 0.0000,  0.0000,  0.0000)
  53 Li     8.701801    1.708126   18.632508    ( 0.0000,  0.0000,  0.0000)
  54 Li     6.980001    0.036954   20.484969    ( 0.0000,  0.0000,  0.0000)
  55 Li     8.916913    1.743074   22.312061    ( 0.0000,  0.0000,  0.0000)
  56 Li     6.980000    3.490000   10.000000    ( 0.0000,  0.0000,  0.0000)
  57 Li     8.725000    5.235000   11.745000    ( 0.0000,  0.0000,  0.0000)
  58 Li     6.980000    3.490000   13.490000    ( 0.0000,  0.0000,  0.0000)
  59 Li     8.725000    5.235000   15.235000    ( 0.0000,  0.0000,  0.0000)
  60 Li     6.980003    3.490000   16.947138    ( 0.0000,  0.0000,  0.0000)
  61 Li     8.701784    5.271892   18.632433    ( 0.0000,  0.0000,  0.0000)
  62 Li     6.980001    3.490006   20.483428    ( 0.0000,  0.0000,  0.0000)
  63 Li     8.916923    5.236911   22.311972    ( 0.0000,  0.0000,  0.0000)
  64 Li     6.980000    6.980000   10.000000    ( 0.0000,  0.0000,  0.0000)
  65 Li     8.725000    8.725000   11.745000    ( 0.0000,  0.0000,  0.0000)
  66 Li     6.980000    6.980000   13.490000    ( 0.0000,  0.0000,  0.0000)
  67 Li     8.725000    8.725000   15.235000    ( 0.0000,  0.0000,  0.0000)
  68 Li     6.980004    6.967464   16.880572    ( 0.0000,  0.0000,  0.0000)
  69 Li     8.653191    8.724985   18.621392    ( 0.0000,  0.0000,  0.0000)
  70 Li     6.980001    6.943038   20.484940    ( 0.0000,  0.0000,  0.0000)
  71 Li     8.713967    8.725002   22.283857    ( 0.0000,  0.0000,  0.0000)
  72 Li     1.745000    3.489999   24.006317    ( 0.0000,  0.0000,  0.0000)

Unit cell:
           periodic     x           y           z      points  spacing
  1. axis:    yes   10.470000    0.000000    0.000000    35     0.2991
  2. axis:    yes    0.000000   10.470000    0.000000    35     0.2991
  3. axis:    no     0.000000    0.000000   32.215000   108     0.2983

  Lengths:  10.470000  10.470000  32.215000
  Angles:   90.000000  90.000000  90.000000

Effective grid spacing dv^(1/3) = 0.2989

     iter     time        total  log10-change:
                         energy   eigst   dens
iter:   1 00:46:38  -131.328327   -3.57
iter:   2 00:46:42  -131.323614   -4.14  -2.14
iter:   3 00:46:46  -131.323095c  -4.34  -2.34
iter:   4 00:46:49  -131.321223c  -4.59  -2.32
iter:   5 00:46:53  -131.319509c  -4.77  -2.53
iter:   6 00:46:57  -131.320663c  -4.93  -2.89
iter:   7 00:47:01  -131.320004c  -5.85c -2.79
iter:   8 00:47:05  -131.319682c  -5.74c -3.16
iter:   9 00:47:09  -131.319826c  -6.58c -3.43
iter:  10 00:47:13  -131.319789c  -6.31c -3.44
iter:  11 00:47:16  -131.319822c  -6.71c -3.44
iter:  12 00:47:20  -131.319805c  -7.09c -3.80
iter:  13 00:47:24  -131.319815c  -6.78c -3.90
iter:  14 00:47:28  -131.319800c  -7.00c -3.96
iter:  15 00:47:31  -131.319782c  -6.86c -4.12c

Converged after 15 iterations.

Dipole moment: (2.897384, 1.744703, 0.287801) |e|*Ang

Energy contributions relative to reference atoms: (reference = -14803.510878)

Kinetic:       +102.959650
Potential:      -92.479382
External:        +0.000000
XC:            -140.706363
Entropy (-ST):   -1.210697
Local:           -0.488338
SIC:             +0.000000
--------------------------
Free energy:   -131.925131
Extrapolated:  -131.319782

Showing all kpts
 Kpt  Band  Eigenvalues  Occupancy
  0    34     -1.58189    1.60686
  0    35     -1.57252    1.57640
  0    36     -1.38450    0.72430
  0    37     -1.34877    0.56856

  1    34     -1.58189    1.60686
  1    35     -1.57252    1.57640
  1    36     -1.38450    0.72430
  1    37     -1.34877    0.56856


Fermi level: -1.44111

Gap: 0.188 eV
Transition (v -> c):
  (s=0, k=1, n=35, [0.25, 0.25, 0.00]) -> (s=0, k=1, n=36, [0.25, 0.25, 0.00])
No difference between direct/indirect transitions

Forces in eV/Ang:
  0 Li    0.00166   -0.00250   -0.03091
  1 Li    0.00000    0.00066    0.06387
  2 Li    0.00077    0.00043    0.01922
  3 Li   -0.00000    0.00428   -0.01040
  4 Li   -0.00727   -0.00170    0.00469
  5 Li   -0.00000   -0.00696    0.05809
  6 Li    0.00478   -0.00112   -0.04650
  7 Li   -0.00000   -0.25941   -0.12946
  8 Li   -0.00258   -0.00000   -0.03490
  9 Li    0.00000   -0.00066    0.06387
 10 Li   -0.00016    0.00000    0.00215
 11 Li    0.00000   -0.00426   -0.01038
 12 Li   -0.00351   -0.00002    0.00579
 13 Li   -0.00000    0.00695    0.05816
 14 Li   -0.00583   -0.00003   -0.01372
 15 Li   -0.00000    0.25943   -0.12955
 16 Li    0.00166    0.00251   -0.03092
 17 Li    0.00000   -0.00000    0.05657
 18 Li    0.00077   -0.00043    0.01922
 19 Li    0.00000   -0.00003   -0.03602
 20 Li   -0.00727    0.00172    0.00457
 21 Li    0.00000    0.00001   -0.00131
 22 Li    0.00475    0.00116   -0.04659
 23 Li    0.00000    0.00002   -0.04238
 24 Li   -0.00166   -0.00250   -0.03091
 25 Li    0.00037    0.00235    0.05979
 26 Li   -0.00077    0.00043    0.01922
 27 Li   -0.00401    0.00134   -0.03806
 28 Li    0.00728   -0.00170    0.00469
 29 Li    0.01084   -0.00629    0.01019
 30 Li   -0.00478   -0.00112   -0.04650
 31 Li   -0.00651    0.02805    0.01401
 32 Li    0.00258   -0.00000   -0.03491
 33 Li    0.00037   -0.00235    0.05980
 34 Li    0.00016    0.00000    0.00214
 35 Li   -0.00399   -0.00129   -0.03803
 36 Li    0.00352   -0.00001    0.00579
 37 Li    0.01082    0.00625    0.01030
 38 Li    0.00584   -0.00003   -0.01372
 39 Li   -0.00646   -0.02803    0.01412
 40 Li   -0.00166    0.00250   -0.03092
 41 Li   -0.00228   -0.00000    0.05706
 42 Li   -0.00077   -0.00043    0.01922
 43 Li   -0.00055   -0.00004   -0.04932
 44 Li    0.00728    0.00172    0.00457
 45 Li   -0.00206    0.00003    0.01500
 46 Li   -0.00475    0.00116   -0.04660
 47 Li    0.00416   -0.00001   -0.02554
 48 Li    0.00000    0.00253   -0.02994
 49 Li   -0.00037    0.00235    0.05979
 50 Li    0.00000    0.00181    0.01784
 51 Li    0.00400    0.00133   -0.03806
 52 Li   -0.00000   -0.00387    0.01709
 53 Li   -0.01084   -0.00628    0.01019
 54 Li   -0.00000    0.01542    0.00487
 55 Li    0.00650    0.02805    0.01401
 56 Li    0.00000   -0.00000   -0.02944
 57 Li   -0.00037   -0.00235    0.05980
 58 Li    0.00000   -0.00000    0.03123
 59 Li    0.00399   -0.00129   -0.03803
 60 Li   -0.00000   -0.00002    0.00738
 61 Li   -0.01081    0.00624    0.01030
 62 Li   -0.00000   -0.00000   -0.01839
 63 Li    0.00646   -0.02803    0.01412
 64 Li    0.00000   -0.00253   -0.02994
 65 Li    0.00228   -0.00000    0.05706
 66 Li    0.00000   -0.00181    0.01785
 67 Li    0.00054   -0.00004   -0.04933
 68 Li   -0.00000    0.00388    0.01686
 69 Li    0.00206    0.00003    0.01500
 70 Li   -0.00000   -0.01542    0.00487
 71 Li   -0.00415   -0.00001   -0.02554
 72 Li   -0.00000   -0.00006    0.16614

System changes: positions 

Initializing position-dependent things.

Density initialized from wave functions
       .-------------------------.  
      /|                         |  
     / |                         |  
    /  |                         |  
   /   |                         |  
  /    |                         |  
 *     |                         |  
 |     |                         |  
 |     |                         |  
 |     |                         |  
 |     |                         |  
 |     |                         |  
 |     |                         |  
 |     |  Li       Li       Li   |  
 |     Li                        |  
 |     |        LLi       Li     Li 
 |     |Li                       |  
 |     |      LLi     LiLi     Li|  
 |    Li  Li       Li      Li    |  
 |     |    Li  Li  Li       Li  Li 
 |     |Li       Li       Li     |  
 |     |      Li  Li  Li       Li|  
 |    Li  Li   Li  Li   Li  Li   |  
 |     |    Li      Li       Li  |  
 |     |Li       Li       Li     |  
 |   Li|      Li  Li  Li         |  
 |    Li  Li   Li  Li   Li  Li   |  
 | Li  |    Li      Li           |  
 |     |Li       Li       Li     |  
 Li    |  Li      Li             |  
 |   LLi      LLi     LiLi       |  
 |     |                         |  
 | Li  |    Li      Li           |  
 |     |                         |  
 Li    |  Li      Li             |  
 |     |                         |  
 |     |                         |  
 |     |                         |  
 |     |                         |  
 |     |                         |  
 |     .-------------------------.  
 |    /                         /   
 |   /                         /    
 |  /                         /     
 | /                         /      
 |/                         /       
 *-------------------------*        

Atomic positions and initial magnetic moments

Positions:
   0 Li     0.000000    0.000000   10.000000    ( 0.0000,  0.0000,  0.0000)
   1 Li     1.745000    1.745000   11.745000    ( 0.0000,  0.0000,  0.0000)
   2 Li     0.000000    0.000000   13.490000    ( 0.0000,  0.0000,  0.0000)
   3 Li     1.745000    1.745000   15.235000    ( 0.0000,  0.0000,  0.0000)
   4 Li    -0.002068   -0.014105   16.930979    ( 0.0000,  0.0000,  0.0000)
   5 Li     1.744996    1.758044   18.592844    ( 0.0000,  0.0000,  0.0000)
   6 Li    -0.025470   -0.062047   20.397225    ( 0.0000,  0.0000,  0.0000)
   7 Li     1.745000    1.893748   21.838653    ( 0.0000,  0.0000,  0.0000)
   8 Li     0.000000    3.490000   10.000000    ( 0.0000,  0.0000,  0.0000)
   9 Li     1.745000    5.235000   11.745000    ( 0.0000,  0.0000,  0.0000)
  10 Li     0.000000    3.490000   13.490000    ( 0.0000,  0.0000,  0.0000)
  11 Li     1.745000    5.235000   15.235000    ( 0.0000,  0.0000,  0.0000)
  12 Li    -0.028219    3.490003   16.915002    ( 0.0000,  0.0000,  0.0000)
  13 Li     1.744996    5.221942   18.592822    ( 0.0000,  0.0000,  0.0000)
  14 Li    -0.126654    3.490042   20.320340    ( 0.0000,  0.0000,  0.0000)
  15 Li     1.744999    5.086277   21.838747    ( 0.0000,  0.0000,  0.0000)
  16 Li     0.000000    6.980000   10.000000    ( 0.0000,  0.0000,  0.0000)
  17 Li     1.745000    8.725000   11.745000    ( 0.0000,  0.0000,  0.0000)
  18 Li     0.000000    6.980000   13.490000    ( 0.0000,  0.0000,  0.0000)
  19 Li     1.745000    8.725000   15.235000    ( 0.0000,  0.0000,  0.0000)
  20 Li    -0.002056    6.994099   16.931059    ( 0.0000,  0.0000,  0.0000)
  21 Li     1.744995    8.725004   18.642780    ( 0.0000,  0.0000,  0.0000)
  22 Li    -0.025433    7.042003   20.397274    ( 0.0000,  0.0000,  0.0000)
  23 Li     1.744990    8.724994   22.327983    ( 0.0000,  0.0000,  0.0000)
  24 Li     3.490000    0.000000   10.000000    ( 0.0000,  0.0000,  0.0000)
  25 Li     5.235000    1.745000   11.745000    ( 0.0000,  0.0000,  0.0000)
  26 Li     3.490000    0.000000   13.490000    ( 0.0000,  0.0000,  0.0000)
  27 Li     5.235000    1.745000   15.235000    ( 0.0000,  0.0000,  0.0000)
  28 Li     3.492064   -0.014103   16.930984    ( 0.0000,  0.0000,  0.0000)
  29 Li     5.258800    1.707768   18.633053    ( 0.0000,  0.0000,  0.0000)
  30 Li     3.515463   -0.062049   20.397222    ( 0.0000,  0.0000,  0.0000)
  31 Li     5.042710    1.744653   22.312865    ( 0.0000,  0.0000,  0.0000)
  32 Li     3.490000    3.490000   10.000000    ( 0.0000,  0.0000,  0.0000)
  33 Li     5.235000    5.235000   11.745000    ( 0.0000,  0.0000,  0.0000)
  34 Li     3.490000    3.490000   13.490000    ( 0.0000,  0.0000,  0.0000)
  35 Li     5.235000    5.235000   15.235000    ( 0.0000,  0.0000,  0.0000)
  36 Li     3.518212    3.490003   16.915003    ( 0.0000,  0.0000,  0.0000)
  37 Li     5.258819    5.272245   18.632986    ( 0.0000,  0.0000,  0.0000)
  38 Li     3.616645    3.490043   20.320336    ( 0.0000,  0.0000,  0.0000)
  39 Li     5.042697    5.235332   22.312783    ( 0.0000,  0.0000,  0.0000)
  40 Li     3.490000    6.980000   10.000000    ( 0.0000,  0.0000,  0.0000)
  41 Li     5.235000    8.725000   11.745000    ( 0.0000,  0.0000,  0.0000)
  42 Li     3.490000    6.980000   13.490000    ( 0.0000,  0.0000,  0.0000)
  43 Li     5.235000    8.725000   15.235000    ( 0.0000,  0.0000,  0.0000)
  44 Li     3.492055    6.994097   16.931066    ( 0.0000,  0.0000,  0.0000)
  45 Li     5.306644    8.724989   18.622201    ( 0.0000,  0.0000,  0.0000)
  46 Li     3.515427    7.042004   20.397272    ( 0.0000,  0.0000,  0.0000)
  47 Li     5.246319    8.725000   22.282545    ( 0.0000,  0.0000,  0.0000)
  48 Li     6.980000    0.000000   10.000000    ( 0.0000,  0.0000,  0.0000)
  49 Li     8.725000    1.745000   11.745000    ( 0.0000,  0.0000,  0.0000)
  50 Li     6.980000    0.000000   13.490000    ( 0.0000,  0.0000,  0.0000)
  51 Li     8.725000    1.745000   15.235000    ( 0.0000,  0.0000,  0.0000)
  52 Li     6.980004    0.012329   16.881373    ( 0.0000,  0.0000,  0.0000)
  53 Li     8.701197    1.707763   18.633056    ( 0.0000,  0.0000,  0.0000)
  54 Li     6.980001    0.037776   20.485204    ( 0.0000,  0.0000,  0.0000)
  55 Li     8.917290    1.744653   22.312869    ( 0.0000,  0.0000,  0.0000)
  56 Li     6.980000    3.490000   10.000000    ( 0.0000,  0.0000,  0.0000)
  57 Li     8.725000    5.235000   11.745000    ( 0.0000,  0.0000,  0.0000)
  58 Li     6.980000    3.490000   13.490000    ( 0.0000,  0.0000,  0.0000)
  59 Li     8.725000    5.235000   15.235000    ( 0.0000,  0.0000,  0.0000)
  60 Li     6.980003    3.489999   16.947525    ( 0.0000,  0.0000,  0.0000)
  61 Li     8.701182    5.272253   18.632986    ( 0.0000,  0.0000,  0.0000)
  62 Li     6.980001    3.490006   20.482348    ( 0.0000,  0.0000,  0.0000)
  63 Li     8.917299    5.235332   22.312787    ( 0.0000,  0.0000,  0.0000)
  64 Li     6.980000    6.980000   10.000000    ( 0.0000,  0.0000,  0.0000)
  65 Li     8.725000    8.725000   11.745000    ( 0.0000,  0.0000,  0.0000)
  66 Li     6.980000    6.980000   13.490000    ( 0.0000,  0.0000,  0.0000)
  67 Li     8.725000    8.725000   15.235000    ( 0.0000,  0.0000,  0.0000)
  68 Li     6.980004    6.967677   16.881492    ( 0.0000,  0.0000,  0.0000)
  69 Li     8.653367    8.724987   18.622198    ( 0.0000,  0.0000,  0.0000)
  70 Li     6.980001    6.942216   20.485176    ( 0.0000,  0.0000,  0.0000)
  71 Li     8.713666    8.725001   22.282548    ( 0.0000,  0.0000,  0.0000)
  72 Li     1.745000    3.489998   24.017598    ( 0.0000,  0.0000,  0.0000)

Unit cell:
           periodic     x           y           z      points  spacing
  1. axis:    yes   10.470000    0.000000    0.000000    35     0.2991
  2. axis:    yes    0.000000   10.470000    0.000000    35     0.2991
  3. axis:    no     0.000000    0.000000   32.215000   108     0.2983

  Lengths:  10.470000  10.470000  32.215000
  Angles:   90.000000  90.000000  90.000000

Effective grid spacing dv^(1/3) = 0.2989

     iter     time        total  log10-change:
                         energy   eigst   dens
iter:   1 00:51:35  -131.345500   -3.39
iter:   2 00:51:39  -131.339301   -3.87  -2.06
iter:   3 00:51:42  -131.338054c  -4.06  -2.12
iter:   4 00:51:46  -131.333647c  -4.51  -2.18
iter:   5 00:51:50  -131.331748c  -4.54  -2.55
iter:   6 00:51:54  -131.333119c  -4.83  -2.81
iter:   7 00:51:57  -131.332373c  -5.74c -2.70
iter:   8 00:52:01  -131.331940c  -5.60c -3.05
iter:   9 00:52:05  -131.332224c  -6.34c -3.36
iter:  10 00:52:09  -131.332083c  -6.44c -3.31
iter:  11 00:52:13  -131.332063c  -7.01c -3.69
iter:  12 00:52:16  -131.332080c  -6.86c -3.79
iter:  13 00:52:20  -131.332085c  -7.05c -3.76
iter:  14 00:52:24  -131.332062c  -7.01c -3.95
iter:  15 00:52:28  -131.332059c  -7.34c -4.05c

Converged after 15 iterations.

Dipole moment: (2.900311, 1.723496, 0.291583) |e|*Ang

Energy contributions relative to reference atoms: (reference = -14803.510878)

Kinetic:       +102.869764
Potential:      -92.424650
External:        +0.000000
XC:            -140.683455
Entropy (-ST):   -1.211045
Local:           -0.488196
SIC:             +0.000000
--------------------------
Free energy:   -131.937582
Extrapolated:  -131.332059

Showing all kpts
 Kpt  Band  Eigenvalues  Occupancy
  0    34     -1.58126    1.60666
  0    35     -1.57186    1.57610
  0    36     -1.38457    0.72726
  0    37     -1.34854    0.56990

  1    34     -1.58126    1.60666
  1    35     -1.57186    1.57610
  1    36     -1.38457    0.72726
  1    37     -1.34854    0.56990


Fermi level: -1.44054

Gap: 0.187 eV
Transition (v -> c):
  (s=0, k=1, n=35, [0.25, 0.25, 0.00]) -> (s=0, k=1, n=36, [0.25, 0.25, 0.00])
No difference between direct/indirect transitions

Forces in eV/Ang:
  0 Li    0.00168   -0.00254   -0.03084
  1 Li    0.00000    0.00057    0.06362
  2 Li    0.00075    0.00043    0.01912
  3 Li   -0.00000    0.00407   -0.00974
  4 Li   -0.00638   -0.00131    0.00516
  5 Li   -0.00000   -0.00689    0.05083
  6 Li   -0.00036   -0.00455   -0.04648
  7 Li   -0.00000   -0.22697   -0.10081
  8 Li   -0.00255   -0.00000   -0.03485
  9 Li    0.00000   -0.00057    0.06363
 10 Li   -0.00020    0.00000    0.00216
 11 Li    0.00000   -0.00405   -0.00972
 12 Li   -0.00255   -0.00001    0.00697
 13 Li   -0.00000    0.00688    0.05089
 14 Li   -0.00322   -0.00003   -0.01072
 15 Li   -0.00000    0.22698   -0.10089
 16 Li    0.00168    0.00254   -0.03084
 17 Li    0.00000   -0.00000    0.05623
 18 Li    0.00075   -0.00043    0.01912
 19 Li    0.00000   -0.00003   -0.03553
 20 Li   -0.00638    0.00133    0.00506
 21 Li    0.00000    0.00001   -0.00157
 22 Li   -0.00039    0.00459   -0.04657
 23 Li    0.00000    0.00002   -0.04317
 24 Li   -0.00168   -0.00254   -0.03084
 25 Li    0.00040    0.00229    0.05963
 26 Li   -0.00075    0.00043    0.01912
 27 Li   -0.00375    0.00124   -0.03781
 28 Li    0.00638   -0.00132    0.00516
 29 Li    0.01007   -0.00567    0.00972
 30 Li    0.00037   -0.00455   -0.04648
 31 Li   -0.00596    0.02555    0.01239
 32 Li    0.00255   -0.00000   -0.03485
 33 Li    0.00040   -0.00229    0.05964
 34 Li    0.00020    0.00000    0.00215
 35 Li   -0.00374   -0.00121   -0.03778
 36 Li    0.00255   -0.00001    0.00696
 37 Li    0.01005    0.00564    0.00982
 38 Li    0.00322   -0.00003   -0.01072
 39 Li   -0.00592   -0.02553    0.01250
 40 Li   -0.00168    0.00254   -0.03084
 41 Li   -0.00220   -0.00000    0.05697
 42 Li   -0.00075   -0.00043    0.01913
 43 Li   -0.00033   -0.00004   -0.04906
 44 Li    0.00638    0.00133    0.00505
 45 Li   -0.00072    0.00003    0.01453
 46 Li    0.00039    0.00459   -0.04657
 47 Li    0.00278   -0.00001   -0.02596
 48 Li    0.00000    0.00246   -0.02980
 49 Li   -0.00040    0.00229    0.05963
 50 Li    0.00000    0.00182    0.01776
 51 Li    0.00374    0.00124   -0.03782
 52 Li   -0.00000   -0.00363    0.01642
 53 Li   -0.01007   -0.00567    0.00972
 54 Li   -0.00000    0.01465    0.00502
 55 Li    0.00595    0.02555    0.01239
 56 Li    0.00000   -0.00000   -0.02932
 57 Li   -0.00040   -0.00229    0.05964
 58 Li    0.00000   -0.00000    0.03111
 59 Li    0.00373   -0.00121   -0.03779
 60 Li   -0.00000   -0.00002    0.00731
 61 Li   -0.01005    0.00563    0.00982
 62 Li   -0.00000   -0.00000   -0.01613
 63 Li    0.00591   -0.02553    0.01250
 64 Li    0.00000   -0.00245   -0.02981
 65 Li    0.00220   -0.00000    0.05697
 66 Li    0.00000   -0.00182    0.01776
 67 Li    0.00033   -0.00004   -0.04907
 68 Li   -0.00000    0.00364    0.01621
 69 Li    0.00071    0.00003    0.01453
 70 Li   -0.00000   -0.01465    0.00502
 71 Li   -0.00277   -0.00001   -0.02596
 72 Li   -0.00000   -0.00005    0.12083

System changes: positions 

Initializing position-dependent things.

[...]
 12 Li    0.00107   -0.00001    0.01203
 13 Li    0.00000    0.00681    0.02228
 14 Li    0.00836   -0.00003    0.00144
 15 Li   -0.00000    0.11737   -0.00602
 16 Li    0.00172    0.00240   -0.03110
 17 Li    0.00000    0.00000    0.05558
 18 Li    0.00069   -0.00029    0.01925
 19 Li    0.00000   -0.00002   -0.03440
 20 Li   -0.00361   -0.00039    0.00641
 21 Li    0.00000    0.00000   -0.00208
 22 Li   -0.01894    0.01566   -0.04505
 23 Li    0.00000    0.00001   -0.04582
 24 Li   -0.00172   -0.00240   -0.03110
 25 Li    0.00042    0.00221    0.05913
 26 Li   -0.00069    0.00029    0.01926
 27 Li   -0.00272    0.00051   -0.03679
 28 Li    0.00361    0.00040    0.00648
 29 Li    0.00669   -0.00280    0.00760
 30 Li    0.01890   -0.01561   -0.04498
 31 Li   -0.00350    0.01565    0.00639
 32 Li    0.00243   -0.00000   -0.03501
 33 Li    0.00042   -0.00221    0.05914
 34 Li    0.00015    0.00000    0.00212
 35 Li   -0.00272   -0.00049   -0.03676
 36 Li   -0.00107   -0.00001    0.01203
 37 Li    0.00668    0.00278    0.00764
 38 Li   -0.00836   -0.00003    0.00144
 39 Li   -0.00349   -0.01563    0.00646
 40 Li   -0.00172    0.00240   -0.03111
 41 Li   -0.00219   -0.00000    0.05687
 42 Li   -0.00069   -0.00029    0.01925
 43 Li    0.00092   -0.00002   -0.04751
 44 Li    0.00361   -0.00039    0.00641
 45 Li    0.00631    0.00001    0.00996
 46 Li    0.01894    0.01566   -0.04505
 47 Li   -0.00353   -0.00001   -0.02507
 48 Li    0.00000    0.00242   -0.03006
 49 Li   -0.00042    0.00221    0.05913
 50 Li    0.00000    0.00163    0.01811
 51 Li    0.00272    0.00051   -0.03679
 52 Li   -0.00000   -0.00325    0.01275
 53 Li   -0.00669   -0.00280    0.00759
 54 Li   -0.00000    0.01297    0.00529
 55 Li    0.00349    0.01565    0.00640
 56 Li    0.00000    0.00000   -0.02952
 57 Li   -0.00042   -0.00221    0.05914
 58 Li    0.00000   -0.00000    0.03080
 59 Li    0.00272   -0.00049   -0.03676
 60 Li   -0.00000   -0.00001    0.00645
 61 Li   -0.00668    0.00278    0.00764
 62 Li   -0.00000   -0.00001   -0.00620
 63 Li    0.00349   -0.01563    0.00646
 64 Li    0.00000   -0.00242   -0.03006
 65 Li    0.00219   -0.00000    0.05687
 66 Li    0.00000   -0.00163    0.01812
 67 Li   -0.00092   -0.00002   -0.04751
 68 Li   -0.00000    0.00325    0.01263
 69 Li   -0.00632    0.00002    0.00996
 70 Li   -0.00000   -0.01296    0.00530
 71 Li    0.00353   -0.00001   -0.02507
 72 Li   -0.00000   -0.00006   -0.02349

System changes: positions 

Initializing position-dependent things.

Density initialized from wave functions
       .-------------------------.  
      /|                         |  
     / |                         |  
    /  |                         |  
   /   |                         |  
  /    |                         |  
 *     |                         |  
 |     |                         |  
 |     |                         |  
 |     |                         |  
 |     |                         |  
 |     |                         |  
 |     |                         |  
 |     |  Li       Li       Li   |  
 |     Li                        |  
 |     |        LLi       Li     Li 
 |     |Li                       |  
 |     |      LLi     LiLi     Li|  
 |    Li  Li       Li      Li    |  
 |     |    Li  Li  Li       Li  Li 
 |     |Li       Li       Li     |  
 |     |      Li  Li  Li       Li|  
 |    Li  Li   Li  Li   Li  Li   |  
 |     |    Li      Li       Li  |  
 |     |Li       Li       Li     |  
 |   Li|      Li  Li  Li         |  
 |    Li  Li   Li  Li   Li  Li   |  
 | Li  |    Li      Li           |  
 |     |Li       Li       Li     |  
 Li    |  Li      Li             |  
 |   LLi      LLi     LiLi       |  
 |     |                         |  
 | Li  |    Li      Li           |  
 |     |                         |  
 Li    |  Li      Li             |  
 |     |                         |  
 |     |                         |  
 |     |                         |  
 |     |                         |  
 |     |                         |  
 |     .-------------------------.  
 |    /                         /   
 |   /                         /    
 |  /                         /     
 | /                         /      
 |/                         /       
 *-------------------------*        

Atomic positions and initial magnetic moments

Positions:
   0 Li     0.000000    0.000000   10.000000    ( 0.0000,  0.0000,  0.0000)
   1 Li     1.745000    1.745000   11.745000    ( 0.0000,  0.0000,  0.0000)
   2 Li     0.000000    0.000000   13.490000    ( 0.0000,  0.0000,  0.0000)
   3 Li     1.745000    1.745000   15.235000    ( 0.0000,  0.0000,  0.0000)
   4 Li    -0.004560   -0.014600   16.932957    ( 0.0000,  0.0000,  0.0000)
   5 Li     1.744996    1.755380   18.612441    ( 0.0000,  0.0000,  0.0000)
   6 Li    -0.025423   -0.063562   20.379494    ( 0.0000,  0.0000,  0.0000)
   7 Li     1.744999    1.804788   21.798433    ( 0.0000,  0.0000,  0.0000)
   8 Li     0.000000    3.490000   10.000000    ( 0.0000,  0.0000,  0.0000)
   9 Li     1.745000    5.235000   11.745000    ( 0.0000,  0.0000,  0.0000)
  10 Li     0.000000    3.490000   13.490000    ( 0.0000,  0.0000,  0.0000)
  11 Li     1.745000    5.235000   15.235000    ( 0.0000,  0.0000,  0.0000)
  12 Li    -0.029225    3.489980   16.917701    ( 0.0000,  0.0000,  0.0000)
  13 Li     1.744996    5.224622   18.612358    ( 0.0000,  0.0000,  0.0000)
  14 Li    -0.127767    3.489951   20.316254    ( 0.0000,  0.0000,  0.0000)
  15 Li     1.744998    5.175522   21.797781    ( 0.0000,  0.0000,  0.0000)
  16 Li     0.000000    6.980000   10.000000    ( 0.0000,  0.0000,  0.0000)
  17 Li     1.745000    8.725000   11.745000    ( 0.0000,  0.0000,  0.0000)
  18 Li     0.000000    6.980000   13.490000    ( 0.0000,  0.0000,  0.0000)
  19 Li     1.745000    8.725000   15.235000    ( 0.0000,  0.0000,  0.0000)
  20 Li    -0.004582    6.994619   16.932974    ( 0.0000,  0.0000,  0.0000)
  21 Li     1.744996    8.724990   18.642185    ( 0.0000,  0.0000,  0.0000)
  22 Li    -0.025527    7.043615   20.379401    ( 0.0000,  0.0000,  0.0000)
  23 Li     1.744991    8.724742   22.311447    ( 0.0000,  0.0000,  0.0000)
  24 Li     3.490000    0.000000   10.000000    ( 0.0000,  0.0000,  0.0000)
  25 Li     5.235000    1.745000   11.745000    ( 0.0000,  0.0000,  0.0000)
  26 Li     3.490000    0.000000   13.490000    ( 0.0000,  0.0000,  0.0000)
  27 Li     5.235000    1.745000   15.235000    ( 0.0000,  0.0000,  0.0000)
  28 Li     3.494558   -0.014600   16.932961    ( 0.0000,  0.0000,  0.0000)
  29 Li     5.262684    1.705574   18.636750    ( 0.0000,  0.0000,  0.0000)
  30 Li     3.515417   -0.063563   20.379491    ( 0.0000,  0.0000,  0.0000)
  31 Li     5.040547    1.754468   22.317651    ( 0.0000,  0.0000,  0.0000)
  32 Li     3.490000    3.490000   10.000000    ( 0.0000,  0.0000,  0.0000)
  33 Li     5.235000    5.235000   11.745000    ( 0.0000,  0.0000,  0.0000)
  34 Li     3.490000    3.490000   13.490000    ( 0.0000,  0.0000,  0.0000)
  35 Li     5.235000    5.235000   15.235000    ( 0.0000,  0.0000,  0.0000)
  36 Li     3.519220    3.489980   16.917701    ( 0.0000,  0.0000,  0.0000)
  37 Li     5.262632    5.274381   18.636734    ( 0.0000,  0.0000,  0.0000)
  38 Li     3.617760    3.489951   20.316251    ( 0.0000,  0.0000,  0.0000)
  39 Li     5.040283    5.225518   22.317639    ( 0.0000,  0.0000,  0.0000)
  40 Li     3.490000    6.980000   10.000000    ( 0.0000,  0.0000,  0.0000)
  41 Li     5.235000    8.725000   11.745000    ( 0.0000,  0.0000,  0.0000)
  42 Li     3.490000    6.980000   13.490000    ( 0.0000,  0.0000,  0.0000)
  43 Li     5.235000    8.725000   15.235000    ( 0.0000,  0.0000,  0.0000)
  44 Li     3.494582    6.994619   16.932980    ( 0.0000,  0.0000,  0.0000)
  45 Li     5.306500    8.725045   18.627594    ( 0.0000,  0.0000,  0.0000)
  46 Li     3.515521    7.043616   20.379398    ( 0.0000,  0.0000,  0.0000)
  47 Li     5.247360    8.725002   22.272743    ( 0.0000,  0.0000,  0.0000)
  48 Li     6.980000    0.000000   10.000000    ( 0.0000,  0.0000,  0.0000)
  49 Li     8.725000    1.745000   11.745000    ( 0.0000,  0.0000,  0.0000)
  50 Li     6.980000    0.000000   13.490000    ( 0.0000,  0.0000,  0.0000)
  51 Li     8.725000    1.745000   15.235000    ( 0.0000,  0.0000,  0.0000)
  52 Li     6.980002    0.010881   16.887604    ( 0.0000,  0.0000,  0.0000)
  53 Li     8.697314    1.705570   18.636751    ( 0.0000,  0.0000,  0.0000)
  54 Li     6.980000    0.043452   20.487096    ( 0.0000,  0.0000,  0.0000)
  55 Li     8.919451    1.754468   22.317656    ( 0.0000,  0.0000,  0.0000)
  56 Li     6.980000    3.490000   10.000000    ( 0.0000,  0.0000,  0.0000)
  57 Li     8.725000    5.235000   11.745000    ( 0.0000,  0.0000,  0.0000)
  58 Li     6.980000    3.490000   13.490000    ( 0.0000,  0.0000,  0.0000)
  59 Li     8.725000    5.235000   15.235000    ( 0.0000,  0.0000,  0.0000)
  60 Li     6.980003    3.490006   16.950292    ( 0.0000,  0.0000,  0.0000)
  61 Li     8.697369    5.274386   18.636734    ( 0.0000,  0.0000,  0.0000)
  62 Li     6.980001    3.490049   20.476202    ( 0.0000,  0.0000,  0.0000)
  63 Li     8.919711    5.225518   22.317643    ( 0.0000,  0.0000,  0.0000)
  64 Li     6.980000    6.980000   10.000000    ( 0.0000,  0.0000,  0.0000)
  65 Li     8.725000    8.725000   11.745000    ( 0.0000,  0.0000,  0.0000)
  66 Li     6.980000    6.980000   13.490000    ( 0.0000,  0.0000,  0.0000)
  67 Li     8.725000    8.725000   15.235000    ( 0.0000,  0.0000,  0.0000)
  68 Li     6.980002    6.969115   16.887723    ( 0.0000,  0.0000,  0.0000)
  69 Li     8.653508    8.725044   18.627592    ( 0.0000,  0.0000,  0.0000)
  70 Li     6.980000    6.936497   20.487065    ( 0.0000,  0.0000,  0.0000)
  71 Li     8.712627    8.725003   22.272746    ( 0.0000,  0.0000,  0.0000)
  72 Li     1.744999    3.491057   24.067522    ( 0.0000,  0.0000,  0.0000)

Unit cell:
           periodic     x           y           z      points  spacing
  1. axis:    yes   10.470000    0.000000    0.000000    35     0.2991
  2. axis:    yes    0.000000   10.470000    0.000000    35     0.2991
  3. axis:    no     0.000000    0.000000   32.215000   108     0.2983

  Lengths:  10.470000  10.470000  32.215000
  Angles:   90.000000  90.000000  90.000000

Effective grid spacing dv^(1/3) = 0.2989

     iter     time        total  log10-change:
                         energy   eigst   dens
iter:   1 01:12:33  -131.413639   -2.90
iter:   2 01:12:37  -131.383610   -3.59  -1.79
iter:   3 01:12:40  -131.374971   -3.89  -2.03
iter:   4 01:12:44  -131.376800c  -3.82  -2.23
iter:   5 01:12:48  -131.369276c  -4.35  -2.04
iter:   6 01:12:51  -131.370629c  -4.41  -2.60
iter:   7 01:12:55  -131.369315c  -5.35c -2.63
iter:   8 01:12:59  -131.368977c  -5.56c -2.97
iter:   9 01:13:03  -131.369164c  -6.29c -3.14
iter:  10 01:13:06  -131.369080c  -6.29c -3.25
iter:  11 01:13:10  -131.369132c  -6.40c -3.28
iter:  12 01:13:14  -131.369124c  -6.84c -3.35
iter:  13 01:13:18  -131.369160c  -6.96c -3.58
iter:  14 01:13:21  -131.369140c  -7.26c -3.66
iter:  15 01:13:25  -131.369113c  -7.24c -3.73
iter:  16 01:13:29  -131.369110c  -7.57c -3.86
iter:  17 01:13:33  -131.369103c  -7.38c -3.96
iter:  18 01:13:36  -131.369094c  -7.41c -4.10c

Converged after 18 iterations.

Dipole moment: (2.991373, 1.642894, 0.305003) |e|*Ang

Energy contributions relative to reference atoms: (reference = -14803.510878)

Kinetic:       +102.547655
Potential:      -92.223466
External:        +0.000000
XC:            -140.598262
Entropy (-ST):   -1.213485
Local:           -0.488278
SIC:             +0.000000
--------------------------
Free energy:   -131.975837
Extrapolated:  -131.369094

Showing all kpts
 Kpt  Band  Eigenvalues  Occupancy
  0    34     -1.57940    1.60525
  0    35     -1.56970    1.57362
  0    36     -1.38709    0.74558
  0    37     -1.34790    0.57309

  1    34     -1.57940    1.60525
  1    35     -1.56970    1.57362
  1    36     -1.38709    0.74558
  1    37     -1.34790    0.57309


Fermi level: -1.43912

Gap: 0.183 eV
Transition (v -> c):
  (s=0, k=0, n=35, [0.25, -0.25, 0.00]) -> (s=0, k=1, n=36, [0.25, 0.25, 0.00])
Direct/indirect transitions are different
Direct gap: 0.183 eV
Transition at: (s=0, k=1, n=35, [0.25, 0.25, 0.00])

Forces in eV/Ang:
  0 Li    0.00172   -0.00231   -0.03102
  1 Li    0.00000    0.00024    0.06295
  2 Li    0.00065    0.00035    0.01928
  3 Li    0.00000    0.00276   -0.00682
  4 Li   -0.00246    0.00099    0.00687
  5 Li    0.00000   -0.00664    0.00963
  6 Li   -0.02641   -0.01952   -0.04322
  7 Li   -0.00000   -0.07654    0.02648
  8 Li   -0.00243   -0.00000   -0.03483
  9 Li    0.00000   -0.00024    0.06295
 10 Li   -0.00019    0.00000    0.00215
 11 Li    0.00000   -0.00274   -0.00680
 12 Li    0.00251   -0.00000    0.01382
 13 Li    0.00000    0.00664    0.00958
 14 Li    0.01448   -0.00003    0.00810
 15 Li   -0.00000    0.07650    0.02642
 16 Li    0.00172    0.00231   -0.03102
 17 Li    0.00000    0.00000    0.05540
 18 Li    0.00065   -0.00035    0.01927
 19 Li    0.00000   -0.00001   -0.03372
 20 Li   -0.00247   -0.00099    0.00682
 21 Li    0.00000   -0.00000   -0.00294
 22 Li   -0.02649    0.01959   -0.04330
 23 Li    0.00000    0.00001   -0.04679
 24 Li   -0.00172   -0.00231   -0.03102
 25 Li    0.00048    0.00227    0.05915
 26 Li   -0.00065    0.00035    0.01928
 27 Li   -0.00229    0.00040   -0.03625
 28 Li    0.00246    0.00099    0.00687
 29 Li    0.00530   -0.00125    0.00630
 30 Li    0.02642   -0.01952   -0.04322
 31 Li   -0.00306    0.01130    0.00349
 32 Li    0.00243   -0.00000   -0.03483
 33 Li    0.00048   -0.00227    0.05916
 34 Li    0.00019    0.00000    0.00215
 35 Li   -0.00229   -0.00038   -0.03621
 36 Li   -0.00251   -0.00000    0.01382
 37 Li    0.00529    0.00124    0.00632
 38 Li   -0.01447   -0.00003    0.00810
 39 Li   -0.00308   -0.01128    0.00353
 40 Li   -0.00172    0.00231   -0.03102
 41 Li   -0.00216   -0.00000    0.05691
 42 Li   -0.00065   -0.00035    0.01927
 43 Li    0.00147   -0.00001   -0.04676
 44 Li    0.00247   -0.00099    0.00681
 45 Li    0.00982    0.00001    0.00742
 46 Li    0.02649    0.01959   -0.04330
 47 Li   -0.00609   -0.00001   -0.02452
 48 Li    0.00000    0.00242   -0.02998
 49 Li   -0.00048    0.00227    0.05915
 50 Li    0.00000    0.00175    0.01820
 51 Li    0.00229    0.00040   -0.03625
 52 Li   -0.00000   -0.00283    0.01085
 53 Li   -0.00529   -0.00124    0.00629
 54 Li   -0.00000    0.01188    0.00530
 55 Li    0.00306    0.01130    0.00349
 56 Li    0.00000    0.00000   -0.02932
 57 Li   -0.00049   -0.00227    0.05915
 58 Li    0.00000   -0.00000    0.03062
 59 Li    0.00229   -0.00038   -0.03622
 60 Li   -0.00000   -0.00000    0.00555
 61 Li   -0.00529    0.00123    0.00632
 62 Li   -0.00000   -0.00001   -0.00201
 63 Li    0.00307   -0.01128    0.00353
 64 Li    0.00000   -0.00242   -0.02998
 65 Li    0.00215   -0.00000    0.05691
 66 Li    0.00000   -0.00175    0.01821
 67 Li   -0.00147   -0.00002   -0.04677
 68 Li   -0.00000    0.00283    0.01077
 69 Li   -0.00982    0.00001    0.00742
 70 Li   -0.00000   -0.01187    0.00530
 71 Li    0.00610   -0.00001   -0.02452
 72 Li   -0.00000   -0.00009   -0.07191

Timing:                                      incl.     excl.
-------------------------------------------------------------------
Density initialized from wave functions:     6.247     6.247   0.1% |
 Symmetrize density:                         0.000     0.000   0.0% |
Forces:                                     31.413    31.413   0.3% |
Hamiltonian:                                12.867     0.059   0.0% |
 Atomic:                                     7.070     0.027   0.0% |
  XC Correction:                             7.043     7.043   0.1% |
 Calculate atomic Hamiltonians:              3.965     3.965   0.0% |
 Communicate:                                0.000     0.000   0.0% |
 Initialize Hamiltonian:                     0.000     0.000   0.0% |
 Poisson:                                    0.148     0.148   0.0% |
 XC 3D grid:                                 1.625     1.625   0.0% |
LCAO initialization:                        14.072     0.008   0.0% |
 LCAO eigensolver:                           0.465     0.000   0.0% |
  Calculate projections:                     0.004     0.004   0.0% |
  DenseAtomicCorrection:                     0.050     0.050   0.0% |
  Distribute overlap matrix:                 0.000     0.000   0.0% |
  Orbital Layouts:                           0.090     0.090   0.0% |
  Potential matrix:                          0.318     0.318   0.0% |
  Sum over cells:                            0.003     0.003   0.0% |
 LCAO to grid:                              12.755    12.755   0.1% |
 Set positions (LCAO WFS):                   0.844     0.213   0.0% |
  Basic WFS set positions:                   0.001     0.001   0.0% |
  Basis functions set positions:             0.000     0.000   0.0% |
  P tci:                                     0.419     0.419   0.0% |
  ST tci:                                    0.186     0.186   0.0% |
  mktci:                                     0.026     0.026   0.0% |
PWDescriptor:                                0.009     0.009   0.0% |
Redistribute:                                0.016     0.016   0.0% |
SCF-cycle:                                 623.996     0.120   0.0% |
 Davidson:                                 343.610    71.258   0.7% |
  Apply H:                                  57.391    56.746   0.5% |
   HMM T:                                    0.645     0.645   0.0% |
  Subspace diag:                            67.449     0.071   0.0% |
   calc_h_matrix:                           62.004     4.182   0.0% |
    Apply H:                                57.822    57.048   0.5% |
     HMM T:                                  0.774     0.774   0.0% |
   diagonalize:                              0.253     0.253   0.0% |
   rotate_psi:                               5.120     5.120   0.0% |
  calc. matrices:                          135.373    19.917   0.2% |
   Apply H:                                115.456   114.146   1.1% |
    HMM T:                                   1.310     1.310   0.0% |
  diagonalize:                               1.891     1.891   0.0% |
  rotate_psi:                               10.248    10.248   0.1% |
 Density:                                   85.444     0.002   0.0% |
  Atomic density matrices:                   0.434     0.434   0.0% |
  Mix:                                      56.690    56.690   0.5% |
  Multipole moments:                         0.096     0.096   0.0% |
  Pseudo density:                           28.222    28.220   0.3% |
   Symmetrize density:                       0.002     0.002   0.0% |
 Hamiltonian:                              193.064     0.318   0.0% |
  Atomic:                                  105.081     0.407   0.0% |
   XC Correction:                          104.674   104.674   1.0% |
  Calculate atomic Hamiltonians:            62.771    62.771   0.6% |
  Communicate:                               0.001     0.001   0.0% |
  Poisson:                                   0.220     0.220   0.0% |
  XC 3D grid:                               24.674    24.674   0.2% |
 Orthonormalize:                             1.759     0.003   0.0% |
  calc_s_matrix:                             0.139     0.139   0.0% |
  inverse-cholesky:                          0.008     0.008   0.0% |
  projections:                               1.255     1.255   0.0% |
  rotate_psi_s:                              0.355     0.355   0.0% |
Set symmetry:                                0.000     0.000   0.0% |
Other:                                   10063.583 10063.583  93.6% |------------------------------------|
-------------------------------------------------------------------
Total:                                             10752.203 100.0%

Memory usage: 4.13 GiB
Date: Tue Nov 25 03:13:44 2025
