73
Lattice="14.806815998046307 0.0 0.0 0.0 10.47 0.0 0.0 0.0 27.403407999023152" Properties=species:S:1:pos:R:3:move_mask:L:1:tags:I:1:forces:R:3:magmoms:R:1 energy=-128.5886670222725 dipole="-6.745553519750448 2.3807223173024333e-14 0.3522736793245618" magmom=0.0 free_energy=-129.2828574656104 pbc="T T F"
Li       0.00000000       0.00000000      10.00000000  F        4       0.00088362       0.00000000       0.09402661       0.00000000
Li       2.46780267       1.74500000      10.00000000  F        4      -0.00000160      -0.00121543       0.10700743       0.00000000
Li       2.46780267       0.00000000      12.46780267  F        3      -0.00000147       0.00000000      -0.06093776       0.00000000
Li       0.00000000       1.74500000      12.46780267  F        3      -0.00994884       0.01818598      -0.08622687       0.00000000
Li       0.02702574       0.00000000      14.85973260  T        2      -0.04245775       0.00000000       0.01085383       0.00000000
Li       2.46780152       1.83555240      14.73033033  T        2       0.00000010       0.04044017      -0.01789463       0.00000000
Li       2.46779968       0.00000000      16.72024799  T        1       0.00000273       0.00000000      -0.01697983       0.00000000
Li       0.13051520       1.59299546      17.43167067  T        1      -0.00099527       0.03170023      -0.03015246       0.00000000
Li       0.00000000       3.49000000      10.00000000  F        4       0.00018984      -0.00423068       0.09285836       0.00000000
Li       2.46780267       5.23500000      10.00000000  F        4      -0.00000133       0.00000000       0.07911966       0.00000000
Li       2.46780267       3.49000000      12.46780267  F        3      -0.00000141       0.07530062      -0.14039408       0.00000000
Li       0.00000000       5.23500000      12.46780267  F        3       0.00919097       0.00000000       0.02044364       0.00000000
Li      -0.01836019       3.42780630      14.96894342  T        2       0.01776319      -0.00251748      -0.01342374       0.00000000
Li       2.46780092       5.23500000      14.99280257  T        2      -0.00000011       0.00000000      -0.04785026       0.00000000
Li       2.46779988       3.34591262      17.32422001  T        1      -0.00000062      -0.01743630      -0.01740077       0.00000000
Li       0.07135335       5.23500000      17.26130069  T        1       0.01520391       0.00000000       0.01395818       0.00000000
Li       0.00000000       6.98000000      10.00000000  F        4       0.00018984       0.00423068       0.09285836       0.00000000
Li       2.46780267       8.72500000      10.00000000  F        4      -0.00000160       0.00121543       0.10700743       0.00000000
Li       2.46780267       6.98000000      12.46780267  F        3      -0.00000141      -0.07530062      -0.14039408       0.00000000
Li       0.00000000       8.72500000      12.46780267  F        3      -0.00994884      -0.01818598      -0.08622687       0.00000000
Li      -0.01836019       7.04219370      14.96894342  T        2       0.01776319       0.00251748      -0.01342374       0.00000000
Li       2.46780152       8.63444760      14.73033033  T        2       0.00000010      -0.04044017      -0.01789463       0.00000000
Li       2.46779988       7.12408738      17.32422001  T        1      -0.00000062       0.01743630      -0.01740077       0.00000000
Li       0.13051520       8.87700454      17.43167067  T        1      -0.00099527      -0.03170023      -0.03015246       0.00000000
Li       4.93560533       0.00000000      10.00000000  F        4      -0.00088318       0.00000000       0.09402727       0.00000000
Li       7.40340800       1.74500000      10.00000000  F        4       0.00428637      -0.00043669       0.08512519       0.00000000
Li       7.40340800       0.00000000      12.46780267  F        3      -0.00171017       0.00000000      -0.07208265       0.00000000
Li       4.93560533       1.74500000      12.46780267  F        3       0.00994898       0.01818616      -0.08622650       0.00000000
Li       4.90858098      -0.00000000      14.85973313  T        2       0.04245395       0.00000000       0.01085425       0.00000000
Li       7.40795187       1.73315524      14.89414561  T        2       0.00696512      -0.01467528      -0.01315981       0.00000000
Li       7.34307744       0.00000000      17.25996807  T        1       0.03232121       0.00000000      -0.02245662       0.00000000
Li       4.80508706       1.59299617      17.43167025  T        1       0.00099589       0.03169947      -0.03015312       0.00000000
Li       4.93560533       3.49000000      10.00000000  F        4      -0.00018965      -0.00423052       0.09285870       0.00000000
Li       7.40340800       5.23500000      10.00000000  F        4       0.00703147       0.00000000       0.09455021       0.00000000
Li       7.40340800       3.49000000      12.46780267  F        3       0.00189805      -0.00505371      -0.05687020       0.00000000
Li       4.93560533       5.23500000      12.46780267  F        3      -0.00919152       0.00000000       0.02044324       0.00000000
Li       4.95396468       3.42780568      14.96894312  T        2      -0.01776039      -0.00251622      -0.01342308       0.00000000
Li       7.39551281       5.23500000      14.90033889  T        2       0.00277718       0.00000000       0.00706473       0.00000000
Li       7.32476859       3.44555707      17.24433120  T        1       0.00463437       0.00974467      -0.00920436       0.00000000
Li       4.86424796       5.23500000      17.26130119  T        1      -0.01520459       0.00000000       0.01395747       0.00000000
Li       4.93560533       6.98000000      10.00000000  F        4      -0.00018965       0.00423052       0.09285870       0.00000000
Li       7.40340800       8.72500000      10.00000000  F        4       0.00428637       0.00043669       0.08512519       0.00000000
Li       7.40340800       6.98000000      12.46780267  F        3       0.00189805       0.00505371      -0.05687020       0.00000000
Li       4.93560533       8.72500000      12.46780267  F        3       0.00994898      -0.01818616      -0.08622650       0.00000000
Li       4.95396468       7.04219432      14.96894312  T        2      -0.01776039       0.00251622      -0.01342308       0.00000000
Li       7.40795187       8.73684476      14.89414561  T        2       0.00696512       0.01467528      -0.01315981       0.00000000
Li       7.32476859       7.02444293      17.24433120  T        1       0.00463437      -0.00974467      -0.00920436       0.00000000
Li       4.80508706       8.87700383      17.43167025  T        1       0.00099589      -0.03169947      -0.03015312       0.00000000
Li       9.87121067       0.00000000      10.00000000  F        4       0.00000042       0.00000000       0.08992482       0.00000000
Li      12.33901333       1.74500000      10.00000000  F        4      -0.00428432      -0.00043678       0.08512552       0.00000000
Li      12.33901333       0.00000000      12.46780267  F        3       0.00171175       0.00000000      -0.07208339       0.00000000
Li       9.87121067       1.74500000      12.46780267  F        3      -0.00000013      -0.00274432      -0.06611746       0.00000000
Li       9.87121182       0.00000000      14.90025748  T        2       0.00000014       0.00000000      -0.02327133       0.00000000
Li      12.33447260       1.73315436      14.89414489  T        2      -0.00696581      -0.01467414      -0.01315866       0.00000000
Li      12.39934452       0.00000000      17.25996792  T        1      -0.03232322       0.00000000      -0.02245686       0.00000000
Li       9.87121165       1.73588177      17.22881099  T        1      -0.00000074       0.00171164      -0.00741146       0.00000000
Li       9.87121067       3.49000000      10.00000000  F        4      -0.00000005       0.00108387       0.08842049       0.00000000
Li      12.33901333       5.23500000      10.00000000  F        4      -0.00702984       0.00000000       0.09455074       0.00000000
Li      12.33901333       3.49000000      12.46780267  F        3      -0.00189658      -0.00505428      -0.05687096       0.00000000
Li       9.87121067       5.23500000      12.46780267  F        3      -0.00000046       0.00000000      -0.06099734       0.00000000
Li       9.87121156       3.48579130      14.89357371  T        2       0.00000064       0.00266379      -0.01462242       0.00000000
Li      12.34691127       5.23500000      14.90033681  T        2      -0.00277793       0.00000000       0.00706877       0.00000000
Li      12.41765482       3.44555626      17.24433178  T        1      -0.00463870       0.00974474      -0.00920573       0.00000000
Li       9.87121236       5.23500000      17.23155403  T        1      -0.00000062       0.00000000      -0.01092335       0.00000000
Li       9.87121067       6.98000000      10.00000000  F        4      -0.00000005      -0.00108387       0.08842049       0.00000000
Li      12.33901333       8.72500000      10.00000000  F        4      -0.00428432       0.00043678       0.08512552       0.00000000
Li      12.33901333       6.98000000      12.46780267  F        3      -0.00189658       0.00505428      -0.05687096       0.00000000
Li       9.87121067       8.72500000      12.46780267  F        3      -0.00000013       0.00274432      -0.06611746       0.00000000
Li       9.87121156       6.98420870      14.89357371  T        2       0.00000064      -0.00266379      -0.01462242       0.00000000
Li      12.33447260       8.73684564      14.89414489  T        2      -0.00696581       0.01467414      -0.01315866       0.00000000
Li      12.41765482       7.02444374      17.24433178  T        1      -0.00463870      -0.00974474      -0.00920573       0.00000000
Li       9.87121165       8.73411823      17.22881099  T        1      -0.00000074      -0.00171164      -0.00741146       0.00000000
Li       2.46780478      -0.00000000      19.32272491  T        0       0.00000263       0.00000000       0.02370511       0.00000000
