73
Lattice="10.47 0.0 0.0 0.0 10.47 0.0 0.0 0.0 32.215" Properties=species:S:1:pos:R:3:move_mask:L:1:tags:I:1:forces:R:3:magmoms:R:1 energy=-131.3518317178305 dipole="2.8645483116486634 3.957251431100716e-14 0.27783930148848085" magmom=0.0 free_energy=-131.9596275679254 pbc="T T F"
Li       0.00000000       0.00000000      10.00000000  F        4       0.00415773       0.00000000      -0.02938550       0.00000000
Li       1.74500000       1.74500000      11.74500000  F        4      -0.00000531      -0.00128599       0.06020132       0.00000000
Li       0.00000000       0.00000000      13.49000000  F        3      -0.00004356       0.00000000       0.02999135       0.00000000
Li       1.74500000       1.74500000      15.23500000  F        3      -0.00000692       0.00825603      -0.03098973       0.00000000
Li       0.02594746      -0.00000000      16.94627834  T        2      -0.01209483       0.00000000       0.00630212       0.00000000
Li       1.74499552       1.77327986      18.64299759  T        2      -0.00000627      -0.00628945       0.01107480       0.00000000
Li       0.07063712      -0.00000000      20.48572128  T        1      -0.00302789       0.00000000      -0.01291500       0.00000000
Li       1.74499036       2.13761426      22.33414842  T        1       0.00000259      -0.00280214      -0.01756293       0.00000000
Li       0.00000000       3.49000000      10.00000000  F        4      -0.00076946      -0.00076584      -0.03377456       0.00000000
Li       1.74500000       5.23500000      11.74500000  F        4       0.00001767       0.00000000       0.06271937       0.00000000
Li       0.00000000       3.49000000      13.49000000  F        3       0.00155762       0.00153040       0.00608299       0.00000000
Li       1.74500000       5.23500000      15.23500000  F        3      -0.00000893       0.00000000      -0.00609936       0.00000000
Li      -0.02743766       3.46255043      16.91439424  T        2      -0.00308468      -0.00308712       0.01010727       0.00000000
Li       1.74499891       5.23500000      18.52176031  T        2      -0.00000502       0.00000000      -0.01805892       0.00000000
Li      -0.12518690       3.36481238      20.32313875  T        1      -0.00452580      -0.00452158      -0.02287754       0.00000000
Li       1.74500699       5.23500000      21.39695837  T        1       0.00000066       0.00000000      -0.04652720       0.00000000
Li       0.00000000       6.98000000      10.00000000  F        4      -0.00076946       0.00076584      -0.03377456       0.00000000
Li       1.74500000       8.72500000      11.74500000  F        4      -0.00000531       0.00128599       0.06020132       0.00000000
Li       0.00000000       6.98000000      13.49000000  F        3       0.00155762      -0.00153040       0.00608299       0.00000000
Li       1.74500000       8.72500000      15.23500000  F        3      -0.00000692      -0.00825603      -0.03098973       0.00000000
Li      -0.02743766       7.00744957      16.91439424  T        2      -0.00308468       0.00308712       0.01010727       0.00000000
Li       1.74499552       8.69672014      18.64299759  T        2      -0.00000627       0.00628945       0.01107480       0.00000000
Li      -0.12518690       7.10518762      20.32313875  T        1      -0.00452580       0.00452158      -0.02287754       0.00000000
Li       1.74499036       8.33238574      22.33414842  T        1       0.00000259       0.00280214      -0.01756293       0.00000000
Li       3.49000000       0.00000000      10.00000000  F        4      -0.00415213       0.00000000      -0.02939435       0.00000000
Li       5.23500000       1.74500000      11.74500000  F        4      -0.00188568       0.00190860       0.05855553       0.00000000
Li       3.49000000       0.00000000      13.49000000  F        3       0.00003635       0.00000000       0.02997794       0.00000000
Li       5.23500000       1.74500000      15.23500000  F        3      -0.00311654       0.00311232      -0.04736152       0.00000000
Li       3.46405674      -0.00000000      16.94629050  T        2       0.01209347       0.00000000       0.00631666       0.00000000
Li       5.30722666       1.67277787      18.61990481  T        2       0.00075791      -0.00075792       0.01316827       0.00000000
Li       3.41935905      -0.00000000      20.48572339  T        1       0.00303463       0.00000000      -0.01292556       0.00000000
Li       5.24534005       1.73465052      22.28636807  T        1      -0.00734620       0.00733697      -0.00438736       0.00000000
Li       3.49000000       3.49000000      10.00000000  F        4       0.00079029      -0.00076659      -0.03377999       0.00000000
Li       5.23500000       5.23500000      11.74500000  F        4       0.00128348       0.00000000       0.06022353       0.00000000
Li       3.49000000       3.49000000      13.49000000  F        3      -0.00154104       0.00155543       0.00609160       0.00000000
Li       5.23500000       5.23500000      15.23500000  F        3      -0.00826688       0.00000000      -0.03098097       0.00000000
Li       3.51743049       3.46255390      16.91439445  T        2       0.00307597      -0.00309006       0.01011331       0.00000000
Li       5.20670612       5.23500000      18.64297700  T        2       0.00627535       0.00000000       0.01105472       0.00000000
Li       3.61517867       3.36480987      20.32313475  T        1       0.00451136      -0.00452664      -0.02288281       0.00000000
Li       4.84239374       5.23500000      22.33415110  T        1       0.00280309       0.00000000      -0.01756733       0.00000000
Li       3.49000000       6.98000000      10.00000000  F        4       0.00079029       0.00076659      -0.03377999       0.00000000
Li       5.23500000       8.72500000      11.74500000  F        4      -0.00188568      -0.00190860       0.05855553       0.00000000
Li       3.49000000       6.98000000      13.49000000  F        3      -0.00154104      -0.00155543       0.00609160       0.00000000
Li       5.23500000       8.72500000      15.23500000  F        3      -0.00311654      -0.00311232      -0.04736152       0.00000000
Li       3.51743049       7.00744610      16.91439445  T        2       0.00307597       0.00309006       0.01011331       0.00000000
Li       5.30722666       8.79722213      18.61990481  T        2       0.00075791       0.00075792       0.01316827       0.00000000
Li       3.61517867       7.10519013      20.32313475  T        1       0.00451136       0.00452664      -0.02288281       0.00000000
Li       5.24534005       8.73534948      22.28636807  T        1      -0.00734620      -0.00733697      -0.00438736       0.00000000
Li       6.98000000       0.00000000      10.00000000  F        4      -0.00001688       0.00000000      -0.03017049       0.00000000
Li       8.72500000       1.74500000      11.74500000  F        4       0.00189114       0.00189532       0.05856148       0.00000000
Li       6.98000000       0.00000000      13.49000000  F        3       0.00001145       0.00000000       0.00274985       0.00000000
Li       8.72500000       1.74500000      15.23500000  F        3       0.00312957       0.00310984      -0.04736183       0.00000000
Li       6.98000477      -0.00000000      16.81067580  T        2       0.00000919       0.00000000       0.03999627       0.00000000
Li       8.65278303       1.67276553      18.61990182  T        2      -0.00074670      -0.00076416       0.01316683       0.00000000
Li       6.98000092      -0.00000000      20.48337168  T        1       0.00000183       0.00000000       0.00813095       0.00000000
Li       8.71464666       1.73465298      22.28636984  T        1       0.00732521       0.00734235      -0.00438542       0.00000000
Li       6.98000000       3.49000000      10.00000000  F        4      -0.00001151       0.00414437      -0.02939929       0.00000000
Li       8.72500000       5.23500000      11.74500000  F        4      -0.00129273       0.00000000       0.06020415       0.00000000
Li       6.98000000       3.49000000      13.49000000  F        3      -0.00000243      -0.00002505       0.03000129       0.00000000
Li       8.72500000       5.23500000      15.23500000  F        3       0.00827473       0.00000000      -0.03098073       0.00000000
Li       6.98000277       3.51593689      16.94628292  T        2       0.00000365      -0.01210030       0.00630998       0.00000000
Li       8.75328161       5.23500000      18.64298186  T        2      -0.00628097       0.00000000       0.01106098       0.00000000
Li       6.98000175       3.56062971      20.48571122  T        1      -0.00000041      -0.00303939      -0.01292857       0.00000000
Li       9.11762130       5.23500000      22.33415519  T        1      -0.00280339       0.00000000      -0.01755461       0.00000000
Li       6.98000000       6.98000000      10.00000000  F        4      -0.00001151      -0.00414437      -0.02939929       0.00000000
Li       8.72500000       8.72500000      11.74500000  F        4       0.00189114      -0.00189532       0.05856148       0.00000000
Li       6.98000000       6.98000000      13.49000000  F        3      -0.00000243       0.00002505       0.03000129       0.00000000
Li       8.72500000       8.72500000      15.23500000  F        3       0.00312957      -0.00310984      -0.04736183       0.00000000
Li       6.98000277       6.95406311      16.94628292  T        2       0.00000365       0.01210030       0.00630998       0.00000000
Li       8.65278303       8.79723447      18.61990182  T        2      -0.00074670       0.00076416       0.01316683       0.00000000
Li       6.98000175       6.90937029      20.48571122  T        1      -0.00000041       0.00303939      -0.01292857       0.00000000
Li       8.71464666       8.73534702      22.28636984  T        1       0.00732521      -0.00734235      -0.00438542       0.00000000
Li       1.74499885       5.23500000      23.98065445  T        0      -0.00000362       0.00000000       0.00050408       0.00000000
