
  ___ ___ ___ _ _ _  
 |   |   |_  | | | | 
 | | | | | . | | | | 
 |__ |  _|___|_____|  25.7.0
 |___|_|             

User:   tew@Mathuss-MacBook-Air-357.local
Date:   Mon Nov 24 23:49:59 2025
Arch:   arm64
Pid:    76608
CWD:    /Users/tew/Documents/Project/GitHub/chem-com
Python: 3.13.5
gpaw:   /Users/tew/Documents/Project/GitHub/chem-com/.venv/lib/python3.13/site-packages/gpaw
_gpaw:  /Users/tew/Documents/Project/GitHub/chem-com/.venv/lib/python3.13/site-packages/
        _gpaw.cpython-313-darwin.so
ase:    /Users/tew/Documents/Project/GitHub/chem-com/.venv/lib/python3.13/site-packages/ase (version 3.26.0)
numpy:  /Users/tew/Documents/Project/GitHub/chem-com/.venv/lib/python3.13/site-packages/numpy (version 2.3.5)
scipy:  /Users/tew/Documents/Project/GitHub/chem-com/.venv/lib/python3.13/site-packages/scipy (version 1.16.3)
libxc:  2.x.y
units:  Angstrom and eV
cores: 1
OpenMP: False
OMP_NUM_THREADS: 1

Input parameters:
  convergence: {density: 0.0001,
                eigenstates: 5e-06}
  kpts: [2 2 1]
  mode: {ecut: 200.0,
         name: pw}
  xc: PBE

System changes: positions, numbers, cell, pbc, initial_charges, initial_magmoms 

Initialize ...

species:
  Li:
    name: Lithium
    id: 830b4218f175192f93f959cfc0aad614
    Z: 3.0
    valence: 1
    core: 2
    charge: 0.0
    file: /Users/tew/Documents/Project/GitHub/chem-com/.venv/lib/python3.13/site-packages/gpaw_data/setups/Li.PBE.gz
    compensation charges: {type: gauss,
                           rc: 0.33,
                           lmax: 2}
    cutoffs: {filter: 1.91,
              core: 2.55}
    projectors:
      #              energy  rcut
      - 2s(1.00)    -2.874   1.058
      - 2p(0.00)    -1.090   1.058
      -  s          24.337   1.058
  
    # Using partial waves for Li as LCAO basis

Reference energy: -14803.510878  # eV

Spin-paired calculation

Convergence criteria:
 Maximum [total energy] change in last 3 cyles: 0.0005 eV / valence electron
 Maximum integral of absolute [dens]ity change: 0.0001 electrons / valence electron
 Maximum integral of absolute [eigenst]ate change: 5e-06 eV^2 / valence electron
 Maximum number of scf [iter]ations: 333
 (Square brackets indicate name in SCF output, whereas a 'c' in
 the SCF output indicates the quantity has converged.)

Symmetries present (total): 2

  ( 1  0  0)  ( 1  0  0)
  ( 0  1  0)  ( 0 -1  0)
  ( 0  0  1)  ( 0  0  1)

4 k-points: 2 x 2 x 1 Monkhorst-Pack grid
1 k-point in the irreducible part of the Brillouin zone
       k-points in crystal coordinates                weights
   0:     0.25000000    0.25000000    0.00000000          4/4

Wave functions: Plane wave expansion
  Cutoff energy: 200.000 eV
  Number of coefficients (min, max): 22683, 22683
  Pulay-stress correction: 0.000000 eV/Ang^3 (de/decut=0.000000)
  Using Numpy's FFT
  ScaLapack parameters: grid=1x1, blocksize=None
  Wavefunction extrapolation:
    Improved wavefunction reuse through dual PAW basis 

Occupation numbers: Fermi-Dirac:
  width: 0.1000  # eV
 

Eigensolver
   Davidson(niter=2) 

Densities:
  Coarse grid: 35*35*108 grid
  Fine grid: 70*70*216 grid
  Total Charge: 0.000000 

Density mixing:
  Method: separate
  Backend: pulay
  Linear mixing parameter: 0.05
  old densities: 5
  Damping of long wavelength oscillations: 50 

Hamiltonian:
  XC and Coulomb potentials evaluated on a 70*70*216 grid
  Using the PBE Exchange-Correlation functional
  External potential:
    NoExternalPotential
 

XC parameters: PBE with 2 nearest neighbor stencil

Memory estimate:
  Process memory now: 4231.58 MiB
  Calculator: 120.15 MiB
    Density: 60.32 MiB
      Arrays: 26.24 MiB
      Localized functions: 23.99 MiB
      Mixer: 10.09 MiB
    Hamiltonian: 17.65 MiB
      Arrays: 17.16 MiB
      XC: 0.00 MiB
      Poisson: 0.00 MiB
      vbar: 0.49 MiB
    Wavefunctions: 42.18 MiB
      Arrays psit_nG: 16.61 MiB
      Eigensolver: 18.70 MiB
      Projections: 0.27 MiB
      Projectors: 1.21 MiB
      PW-descriptor: 5.39 MiB

Total number of cores used: 1

Number of atoms: 73
Number of atomic orbitals: 292
Number of bands in calculation: 48
Number of valence electrons: 73
Bands to converge: occupied

... initialized

Initializing position-dependent things.

Density initialized from atomic densities
Creating initial wave functions:
  48 bands from LCAO basis set

       .-------------------------.  
      /|                         |  
     / |                         |  
    /  |                         |  
   /   |                         |  
  /    |                         |  
 *     |                         |  
 |     |                         |  
 |     |                         |  
 |     |                         |  
 |     |                         |  
 |     |                         |  
 |     |                         |  
 |     |LiLi       Li       Li   |  
 |     |                         |  
 |     |Li       Li       Li     |  
 |     |                         |  
 |   LLi      LLi     LiLi       |  
 |     |  Li       Li       Li   |  
 | Li  |    Li      Li           |  
 |     |Li       Li       Li     |  
 Li  Li|  Li  Li  Li  Li         |  
 |    Li  Li   Li  Li   Li  Li   |  
 | Li  |    Li      Li           |  
 |     |Li       Li       Li     |  
 Li  Li|  Li  Li  Li  Li         |  
 |    Li  Li   Li  Li   Li  Li   |  
 | Li  |    Li      Li           |  
 |     |Li       Li       Li     |  
 Li    |  Li      Li             |  
 |   LLi      LLi     LiLi       |  
 |     |                         |  
 | Li  |    Li      Li           |  
 |     |                         |  
 Li    |  Li      Li             |  
 |     |                         |  
 |     |                         |  
 |     |                         |  
 |     |                         |  
 |     |                         |  
 |     .-------------------------.  
 |    /                         /   
 |   /                         /    
 |  /                         /     
 | /                         /      
 |/                         /       
 *-------------------------*        

Atomic positions and initial magnetic moments

Positions:
   0 Li     0.000000    0.000000   10.000000    ( 0.0000,  0.0000,  0.0000)
   1 Li     1.745000    1.745000   11.745000    ( 0.0000,  0.0000,  0.0000)
   2 Li     0.000000    0.000000   13.490000    ( 0.0000,  0.0000,  0.0000)
   3 Li     1.745000    1.745000   15.235000    ( 0.0000,  0.0000,  0.0000)
   4 Li     0.000000    0.000000   16.980000    ( 0.0000,  0.0000,  0.0000)
   5 Li     1.745000    1.745000   18.725000    ( 0.0000,  0.0000,  0.0000)
   6 Li     0.000000    0.000000   20.470000    ( 0.0000,  0.0000,  0.0000)
   7 Li     1.745000    1.745000   22.215000    ( 0.0000,  0.0000,  0.0000)
   8 Li     0.000000    3.490000   10.000000    ( 0.0000,  0.0000,  0.0000)
   9 Li     1.745000    5.235000   11.745000    ( 0.0000,  0.0000,  0.0000)
  10 Li     0.000000    3.490000   13.490000    ( 0.0000,  0.0000,  0.0000)
  11 Li     1.745000    5.235000   15.235000    ( 0.0000,  0.0000,  0.0000)
  12 Li     0.000000    3.490000   16.980000    ( 0.0000,  0.0000,  0.0000)
  13 Li     1.745000    5.235000   18.725000    ( 0.0000,  0.0000,  0.0000)
  14 Li     0.000000    3.490000   20.470000    ( 0.0000,  0.0000,  0.0000)
  15 Li     1.745000    5.235000   22.215000    ( 0.0000,  0.0000,  0.0000)
  16 Li     0.000000    6.980000   10.000000    ( 0.0000,  0.0000,  0.0000)
  17 Li     1.745000    8.725000   11.745000    ( 0.0000,  0.0000,  0.0000)
  18 Li     0.000000    6.980000   13.490000    ( 0.0000,  0.0000,  0.0000)
  19 Li     1.745000    8.725000   15.235000    ( 0.0000,  0.0000,  0.0000)
  20 Li     0.000000    6.980000   16.980000    ( 0.0000,  0.0000,  0.0000)
  21 Li     1.745000    8.725000   18.725000    ( 0.0000,  0.0000,  0.0000)
  22 Li     0.000000    6.980000   20.470000    ( 0.0000,  0.0000,  0.0000)
  23 Li     1.745000    8.725000   22.215000    ( 0.0000,  0.0000,  0.0000)
  24 Li     3.490000    0.000000   10.000000    ( 0.0000,  0.0000,  0.0000)
  25 Li     5.235000    1.745000   11.745000    ( 0.0000,  0.0000,  0.0000)
  26 Li     3.490000    0.000000   13.490000    ( 0.0000,  0.0000,  0.0000)
  27 Li     5.235000    1.745000   15.235000    ( 0.0000,  0.0000,  0.0000)
  28 Li     3.490000    0.000000   16.980000    ( 0.0000,  0.0000,  0.0000)
  29 Li     5.235000    1.745000   18.725000    ( 0.0000,  0.0000,  0.0000)
  30 Li     3.490000    0.000000   20.470000    ( 0.0000,  0.0000,  0.0000)
  31 Li     5.235000    1.745000   22.215000    ( 0.0000,  0.0000,  0.0000)
  32 Li     3.490000    3.490000   10.000000    ( 0.0000,  0.0000,  0.0000)
  33 Li     5.235000    5.235000   11.745000    ( 0.0000,  0.0000,  0.0000)
  34 Li     3.490000    3.490000   13.490000    ( 0.0000,  0.0000,  0.0000)
  35 Li     5.235000    5.235000   15.235000    ( 0.0000,  0.0000,  0.0000)
  36 Li     3.490000    3.490000   16.980000    ( 0.0000,  0.0000,  0.0000)
  37 Li     5.235000    5.235000   18.725000    ( 0.0000,  0.0000,  0.0000)
  38 Li     3.490000    3.490000   20.470000    ( 0.0000,  0.0000,  0.0000)
  39 Li     5.235000    5.235000   22.215000    ( 0.0000,  0.0000,  0.0000)
  40 Li     3.490000    6.980000   10.000000    ( 0.0000,  0.0000,  0.0000)
  41 Li     5.235000    8.725000   11.745000    ( 0.0000,  0.0000,  0.0000)
  42 Li     3.490000    6.980000   13.490000    ( 0.0000,  0.0000,  0.0000)
  43 Li     5.235000    8.725000   15.235000    ( 0.0000,  0.0000,  0.0000)
  44 Li     3.490000    6.980000   16.980000    ( 0.0000,  0.0000,  0.0000)
  45 Li     5.235000    8.725000   18.725000    ( 0.0000,  0.0000,  0.0000)
  46 Li     3.490000    6.980000   20.470000    ( 0.0000,  0.0000,  0.0000)
  47 Li     5.235000    8.725000   22.215000    ( 0.0000,  0.0000,  0.0000)
  48 Li     6.980000    0.000000   10.000000    ( 0.0000,  0.0000,  0.0000)
  49 Li     8.725000    1.745000   11.745000    ( 0.0000,  0.0000,  0.0000)
  50 Li     6.980000    0.000000   13.490000    ( 0.0000,  0.0000,  0.0000)
  51 Li     8.725000    1.745000   15.235000    ( 0.0000,  0.0000,  0.0000)
  52 Li     6.980000    0.000000   16.980000    ( 0.0000,  0.0000,  0.0000)
  53 Li     8.725000    1.745000   18.725000    ( 0.0000,  0.0000,  0.0000)
  54 Li     6.980000    0.000000   20.470000    ( 0.0000,  0.0000,  0.0000)
  55 Li     8.725000    1.745000   22.215000    ( 0.0000,  0.0000,  0.0000)
  56 Li     6.980000    3.490000   10.000000    ( 0.0000,  0.0000,  0.0000)
  57 Li     8.725000    5.235000   11.745000    ( 0.0000,  0.0000,  0.0000)
  58 Li     6.980000    3.490000   13.490000    ( 0.0000,  0.0000,  0.0000)
  59 Li     8.725000    5.235000   15.235000    ( 0.0000,  0.0000,  0.0000)
  60 Li     6.980000    3.490000   16.980000    ( 0.0000,  0.0000,  0.0000)
  61 Li     8.725000    5.235000   18.725000    ( 0.0000,  0.0000,  0.0000)
  62 Li     6.980000    3.490000   20.470000    ( 0.0000,  0.0000,  0.0000)
  63 Li     8.725000    5.235000   22.215000    ( 0.0000,  0.0000,  0.0000)
  64 Li     6.980000    6.980000   10.000000    ( 0.0000,  0.0000,  0.0000)
  65 Li     8.725000    8.725000   11.745000    ( 0.0000,  0.0000,  0.0000)
  66 Li     6.980000    6.980000   13.490000    ( 0.0000,  0.0000,  0.0000)
  67 Li     8.725000    8.725000   15.235000    ( 0.0000,  0.0000,  0.0000)
  68 Li     6.980000    6.980000   16.980000    ( 0.0000,  0.0000,  0.0000)
  69 Li     8.725000    8.725000   18.725000    ( 0.0000,  0.0000,  0.0000)
  70 Li     6.980000    6.980000   20.470000    ( 0.0000,  0.0000,  0.0000)
  71 Li     8.725000    8.725000   22.215000    ( 0.0000,  0.0000,  0.0000)
  72 Li     1.745000    5.235000   24.215000    ( 0.0000,  0.0000,  0.0000)

Unit cell:
           periodic     x           y           z      points  spacing
  1. axis:    yes   10.470000    0.000000    0.000000    35     0.2991
  2. axis:    yes    0.000000   10.470000    0.000000    35     0.2991
  3. axis:    no     0.000000    0.000000   32.215000   108     0.2983

  Lengths:  10.470000  10.470000  32.215000
  Angles:   90.000000  90.000000  90.000000

Effective grid spacing dv^(1/3) = 0.2989

     iter     time        total  log10-change:
                         energy   eigst   dens
iter:   1 23:50:11  -136.426768
iter:   2 23:50:14  -132.525444   -0.74  -0.66
iter:   3 23:50:17  -132.155724   -1.25  -0.85
iter:   4 23:50:20  -132.216634   -1.57  -0.90
iter:   5 23:50:23  -131.224306   -1.71  -0.88
iter:   6 23:50:26  -131.264165   -1.47  -1.08
iter:   7 23:50:29  -130.943500   -2.21  -1.11
iter:   8 23:50:32  -130.870148   -1.51  -1.19
iter:   9 23:50:35  -130.681569   -2.62  -1.33
iter:  10 23:50:38  -130.690113   -2.70  -1.56
iter:  11 23:50:41  -130.682537c  -3.01  -1.56
iter:  12 23:50:44  -130.668647c  -3.20  -1.61
iter:  13 23:50:46  -130.672776c  -3.17  -1.72
iter:  14 23:50:49  -130.671214c  -3.77  -1.81
iter:  15 23:50:52  -130.664363c  -3.50  -1.94
iter:  16 23:50:55  -130.658844c  -3.63  -2.08
iter:  17 23:50:58  -130.654116c  -4.06  -2.16
iter:  18 23:51:01  -130.654408c  -4.04  -2.38
iter:  19 23:51:04  -130.654731c  -4.67  -2.73
iter:  20 23:51:07  -130.654324c  -4.81  -2.79
iter:  21 23:51:10  -130.654241c  -5.09  -2.93
iter:  22 23:51:13  -130.653959c  -4.74  -3.05
iter:  23 23:51:16  -130.653552c  -4.49  -3.07
iter:  24 23:51:19  -130.653054c  -5.15  -3.07
iter:  25 23:51:22  -130.653085c  -5.52c -3.34
iter:  26 23:51:25  -130.653177c  -5.26  -3.45
iter:  27 23:51:29  -130.652967c  -5.51c -3.49
iter:  28 23:51:32  -130.652985c  -5.91c -3.66
iter:  29 23:51:34  -130.653099c  -5.60c -3.72
iter:  30 23:51:37  -130.653045c  -5.80c -3.70
iter:  31 23:51:40  -130.652872c  -5.50c -3.75
iter:  32 23:51:43  -130.652896c  -5.66c -3.93
iter:  33 23:51:47  -130.652898c  -5.55c -4.12c

Converged after 33 iterations.

Dipole moment: (-0.643071, 0.000000, 0.247872) |e|*Ang

Energy contributions relative to reference atoms: (reference = -14803.510878)

Kinetic:       +103.306055
Potential:      -92.249868
External:        +0.000000
XC:            -140.598358
Entropy (-ST):   -1.231239
Local:           -0.495108
SIC:             +0.000000
--------------------------
Free energy:   -131.268518
Extrapolated:  -130.652898

 Band  Eigenvalues  Occupancy
    0     -4.74700    2.00000
    1     -4.43247    2.00000
    2     -4.22789    2.00000
    3     -4.22598    2.00000
    4     -3.91719    2.00000
    5     -3.91076    2.00000
    6     -3.85940    2.00000
    7     -3.71067    2.00000
    8     -3.39589    2.00000
    9     -3.35324    2.00000
   10     -3.33596    2.00000
   11     -3.17867    2.00000
   12     -3.17623    2.00000
   13     -3.10597    2.00000
   14     -2.87798    2.00000
   15     -2.87184    2.00000
   16     -2.82198    2.00000
   17     -2.68200    1.99999
   18     -2.68166    1.99999
   19     -2.62264    1.99998
   20     -2.57175    1.99997
   21     -2.36932    1.99978
   22     -2.36606    1.99978
   23     -2.34453    1.99972
   24     -2.32707    1.99967
   25     -2.23615    1.99918
   26     -2.06002    1.99526
   27     -1.81630    1.94705
   28     -1.80490    1.94085
   29     -1.76582    1.91378
   30     -1.76334    1.91171
   31     -1.69096    1.82608
   32     -1.67374    1.79673
   33     -1.65181    1.75303
   34     -1.58127    1.55615
   35     -1.57665    1.53998
   36     -1.42039    0.82466
   37     -1.35908    0.55076
   38     -1.33444    0.45802
   39     -1.33325    0.45386
   40     -1.19075    0.13188
   41     -1.17588    0.11471
   42     -1.16915    0.10764
   43     -1.11276    0.06270
   44     -1.08468    0.04772
   45     -1.04287    0.03167
   46     -1.03221    0.02851
   47     -0.91784    0.00918

Fermi level: -1.45583

Gap: 0.156 eV
Transition (v -> c):
  (s=0, k=0, n=35, [0.25, 0.25, 0.00]) -> (s=0, k=0, n=36, [0.25, 0.25, 0.00])
No difference between direct/indirect transitions

Forces in eV/Ang:
  0 Li    0.00326    0.00000   -0.02884
  1 Li    0.00000   -0.00078    0.05976
  2 Li    0.00398    0.00000    0.01903
  3 Li    0.00000    0.00160    0.00432
  4 Li    0.00357    0.00000   -0.00314
  5 Li    0.00000   -0.00233   -0.00628
  6 Li    0.00293    0.00000   -0.08173
  7 Li   -0.00000    0.11318    0.11703
  8 Li    0.00047    0.00047   -0.03208
  9 Li   -0.00000    0.00000    0.06823
 10 Li    0.00065    0.00065    0.00744
 11 Li    0.00000    0.00000    0.01316
 12 Li   -0.00050   -0.00050   -0.00524
 13 Li    0.00000    0.00000   -0.04753
 14 Li    0.00868    0.00868   -0.00257
 15 Li    0.00000    0.00000   -1.99222
 16 Li    0.00047   -0.00047   -0.03208
 17 Li    0.00000    0.00078    0.05976
 18 Li    0.00065   -0.00065    0.00744
 19 Li    0.00000   -0.00160    0.00432
 20 Li   -0.00050    0.00050   -0.00524
 21 Li    0.00000    0.00233   -0.00628
 22 Li    0.00868   -0.00868   -0.00257
 23 Li   -0.00000   -0.11318    0.11703
 24 Li   -0.00326    0.00000   -0.02884
 25 Li   -0.00116    0.00116    0.05801
 26 Li   -0.00398    0.00000    0.01903
 27 Li    0.00123   -0.00123   -0.00277
 28 Li   -0.00357    0.00000   -0.00314
 29 Li   -0.00082    0.00082   -0.01112
 30 Li   -0.00293    0.00000   -0.08173
 31 Li   -0.01223    0.01223    0.05094
 32 Li   -0.00047    0.00047   -0.03208
 33 Li    0.00078    0.00000    0.05976
 34 Li   -0.00065    0.00065    0.00744
 35 Li   -0.00160    0.00000    0.00432
 36 Li    0.00050   -0.00050   -0.00524
 37 Li    0.00233    0.00000   -0.00628
 38 Li   -0.00868    0.00868   -0.00257
 39 Li   -0.11318    0.00000    0.11703
 40 Li   -0.00047   -0.00047   -0.03208
 41 Li   -0.00116   -0.00116    0.05801
 42 Li   -0.00065   -0.00065    0.00744
 43 Li    0.00123    0.00123   -0.00277
 44 Li    0.00050    0.00050   -0.00524
 45 Li   -0.00082   -0.00082   -0.01112
 46 Li   -0.00868   -0.00868   -0.00257
 47 Li   -0.01223   -0.01223    0.05094
 48 Li   -0.00000    0.00000   -0.03080
 49 Li    0.00116    0.00116    0.05801
 50 Li   -0.00000    0.00000    0.01806
 51 Li   -0.00123   -0.00123   -0.00277
 52 Li   -0.00000    0.00000   -0.00443
 53 Li    0.00082    0.00082   -0.01112
 54 Li    0.00000    0.00000   -0.04703
 55 Li    0.01223    0.01223    0.05094
 56 Li    0.00000    0.00326   -0.02884
 57 Li   -0.00078    0.00000    0.05976
 58 Li    0.00000    0.00398    0.01903
 59 Li    0.00160    0.00000    0.00432
 60 Li    0.00000    0.00357   -0.00314
 61 Li   -0.00234    0.00000   -0.00628
 62 Li    0.00000    0.00293   -0.08173
 63 Li    0.11318    0.00000    0.11703
 64 Li    0.00000   -0.00326   -0.02884
 65 Li    0.00116   -0.00116    0.05801
 66 Li    0.00000   -0.00398    0.01903
 67 Li   -0.00123    0.00123   -0.00277
 68 Li    0.00000   -0.00357   -0.00314
 69 Li    0.00082   -0.00082   -0.01112
 70 Li    0.00000   -0.00293   -0.08173
 71 Li    0.01223   -0.01223    0.05094
 72 Li   -0.00000    0.00000    1.45007

System changes: positions 

Initializing position-dependent things.

Density initialized from wave functions
       .-------------------------.  
      /|                         |  
     / |                         |  
    /  |                         |  
   /   |                         |  
  /    |                         |  
 *     |                         |  
 |     |                         |  
 |     |                         |  
 |     |                         |  
 |     |                         |  
 |     |                         |  
 |     |                         |  
 |     |LiLi       Li       Li   |  
 |     |                         |  
 |     |Li       Li       Li     |  
 |     |                         |  
 |   LLi      LLi     LiLi       |  
 |     |  Li       Li       Li   |  
 | Li  |    Li      Li           |  
 |     |Li       Li       Li     |  
 Li    |  Li  Li  Li  Li       Li|  
 |    Li  Li   Li  Li   Li  Li   |  
 |     |    Li      Li       Li  |  
 |     |Li       Li       Li     |  
 Li  Li|  Li  Li  Li  Li         |  
 |    Li  Li   Li  Li   Li  Li   |  
 | Li  |    Li      Li           |  
 |     |Li       Li       Li     |  
 Li    |  Li      Li             |  
 |   LLi      LLi     LiLi       |  
 |     |                         |  
 | Li  |    Li      Li           |  
 |     |                         |  
 Li    |  Li      Li             |  
 |     |                         |  
 |     |                         |  
 |     |                         |  
 |     |                         |  
 |     |                         |  
 |     .-------------------------.  
 |    /                         /   
 |   /                         /    
 |  /                         /     
 | /                         /      
 |/                         /       
 *-------------------------*        

Atomic positions and initial magnetic moments

Positions:
   0 Li     0.000000    0.000000   10.000000    ( 0.0000,  0.0000,  0.0000)
   1 Li     1.745000    1.745000   11.745000    ( 0.0000,  0.0000,  0.0000)
   2 Li     0.000000    0.000000   13.490000    ( 0.0000,  0.0000,  0.0000)
   3 Li     1.745000    1.745000   15.235000    ( 0.0000,  0.0000,  0.0000)
   4 Li     0.000051    0.000000   16.979955    ( 0.0000,  0.0000,  0.0000)
   5 Li     1.745000    1.744967   18.724910    ( 0.0000,  0.0000,  0.0000)
   6 Li     0.000042    0.000000   20.468832    ( 0.0000,  0.0000,  0.0000)
   7 Li     1.745000    1.746617   22.216672    ( 0.0000,  0.0000,  0.0000)
   8 Li     0.000000    3.490000   10.000000    ( 0.0000,  0.0000,  0.0000)
   9 Li     1.745000    5.235000   11.745000    ( 0.0000,  0.0000,  0.0000)
  10 Li     0.000000    3.490000   13.490000    ( 0.0000,  0.0000,  0.0000)
  11 Li     1.745000    5.235000   15.235000    ( 0.0000,  0.0000,  0.0000)
  12 Li    -0.000007    3.489993   16.979925    ( 0.0000,  0.0000,  0.0000)
  13 Li     1.745000    5.235000   18.724321    ( 0.0000,  0.0000,  0.0000)
  14 Li     0.000124    3.490124   20.469963    ( 0.0000,  0.0000,  0.0000)
  15 Li     1.745000    5.235000   22.186540    ( 0.0000,  0.0000,  0.0000)
  16 Li     0.000000    6.980000   10.000000    ( 0.0000,  0.0000,  0.0000)
  17 Li     1.745000    8.725000   11.745000    ( 0.0000,  0.0000,  0.0000)
  18 Li     0.000000    6.980000   13.490000    ( 0.0000,  0.0000,  0.0000)
  19 Li     1.745000    8.725000   15.235000    ( 0.0000,  0.0000,  0.0000)
  20 Li    -0.000007    6.980007   16.979925    ( 0.0000,  0.0000,  0.0000)
  21 Li     1.745000    8.725033   18.724910    ( 0.0000,  0.0000,  0.0000)
  22 Li     0.000124    6.979876   20.469963    ( 0.0000,  0.0000,  0.0000)
  23 Li     1.745000    8.723383   22.216672    ( 0.0000,  0.0000,  0.0000)
  24 Li     3.490000    0.000000   10.000000    ( 0.0000,  0.0000,  0.0000)
  25 Li     5.235000    1.745000   11.745000    ( 0.0000,  0.0000,  0.0000)
  26 Li     3.490000    0.000000   13.490000    ( 0.0000,  0.0000,  0.0000)
  27 Li     5.235000    1.745000   15.235000    ( 0.0000,  0.0000,  0.0000)
  28 Li     3.489949    0.000000   16.979955    ( 0.0000,  0.0000,  0.0000)
  29 Li     5.234988    1.745012   18.724841    ( 0.0000,  0.0000,  0.0000)
  30 Li     3.489958    0.000000   20.468832    ( 0.0000,  0.0000,  0.0000)
  31 Li     5.234825    1.745175   22.215728    ( 0.0000,  0.0000,  0.0000)
  32 Li     3.490000    3.490000   10.000000    ( 0.0000,  0.0000,  0.0000)
  33 Li     5.235000    5.235000   11.745000    ( 0.0000,  0.0000,  0.0000)
  34 Li     3.490000    3.490000   13.490000    ( 0.0000,  0.0000,  0.0000)
  35 Li     5.235000    5.235000   15.235000    ( 0.0000,  0.0000,  0.0000)
  36 Li     3.490007    3.489993   16.979925    ( 0.0000,  0.0000,  0.0000)
  37 Li     5.235033    5.235000   18.724910    ( 0.0000,  0.0000,  0.0000)
  38 Li     3.489876    3.490124   20.469963    ( 0.0000,  0.0000,  0.0000)
  39 Li     5.233383    5.235000   22.216672    ( 0.0000,  0.0000,  0.0000)
  40 Li     3.490000    6.980000   10.000000    ( 0.0000,  0.0000,  0.0000)
  41 Li     5.235000    8.725000   11.745000    ( 0.0000,  0.0000,  0.0000)
  42 Li     3.490000    6.980000   13.490000    ( 0.0000,  0.0000,  0.0000)
  43 Li     5.235000    8.725000   15.235000    ( 0.0000,  0.0000,  0.0000)
  44 Li     3.490007    6.980007   16.979925    ( 0.0000,  0.0000,  0.0000)
  45 Li     5.234988    8.724988   18.724841    ( 0.0000,  0.0000,  0.0000)
  46 Li     3.489876    6.979876   20.469963    ( 0.0000,  0.0000,  0.0000)
  47 Li     5.234825    8.724825   22.215728    ( 0.0000,  0.0000,  0.0000)
  48 Li     6.980000    0.000000   10.000000    ( 0.0000,  0.0000,  0.0000)
  49 Li     8.725000    1.745000   11.745000    ( 0.0000,  0.0000,  0.0000)
  50 Li     6.980000    0.000000   13.490000    ( 0.0000,  0.0000,  0.0000)
  51 Li     8.725000    1.745000   15.235000    ( 0.0000,  0.0000,  0.0000)
  52 Li     6.980000    0.000000   16.979937    ( 0.0000,  0.0000,  0.0000)
  53 Li     8.725012    1.745012   18.724841    ( 0.0000,  0.0000,  0.0000)
  54 Li     6.980000    0.000000   20.469328    ( 0.0000,  0.0000,  0.0000)
  55 Li     8.725175    1.745175   22.215728    ( 0.0000,  0.0000,  0.0000)
  56 Li     6.980000    3.490000   10.000000    ( 0.0000,  0.0000,  0.0000)
  57 Li     8.725000    5.235000   11.745000    ( 0.0000,  0.0000,  0.0000)
  58 Li     6.980000    3.490000   13.490000    ( 0.0000,  0.0000,  0.0000)
  59 Li     8.725000    5.235000   15.235000    ( 0.0000,  0.0000,  0.0000)
  60 Li     6.980000    3.490051   16.979955    ( 0.0000,  0.0000,  0.0000)
  61 Li     8.724967    5.235000   18.724910    ( 0.0000,  0.0000,  0.0000)
  62 Li     6.980000    3.490042   20.468832    ( 0.0000,  0.0000,  0.0000)
  63 Li     8.726617    5.235000   22.216672    ( 0.0000,  0.0000,  0.0000)
  64 Li     6.980000    6.980000   10.000000    ( 0.0000,  0.0000,  0.0000)
  65 Li     8.725000    8.725000   11.745000    ( 0.0000,  0.0000,  0.0000)
  66 Li     6.980000    6.980000   13.490000    ( 0.0000,  0.0000,  0.0000)
  67 Li     8.725000    8.725000   15.235000    ( 0.0000,  0.0000,  0.0000)
  68 Li     6.980000    6.979949   16.979955    ( 0.0000,  0.0000,  0.0000)
  69 Li     8.725012    8.724988   18.724841    ( 0.0000,  0.0000,  0.0000)
  70 Li     6.980000    6.979958   20.468832    ( 0.0000,  0.0000,  0.0000)
  71 Li     8.725175    8.724825   22.215728    ( 0.0000,  0.0000,  0.0000)
  72 Li     1.745000    5.235000   24.235715    ( 0.0000,  0.0000,  0.0000)

Unit cell:
           periodic     x           y           z      points  spacing
  1. axis:    yes   10.470000    0.000000    0.000000    35     0.2991
  2. axis:    yes    0.000000   10.470000    0.000000    35     0.2991
  3. axis:    no     0.000000    0.000000   32.215000   108     0.2983

  Lengths:  10.470000  10.470000  32.215000
  Angles:   90.000000  90.000000  90.000000

Effective grid spacing dv^(1/3) = 0.2989

     iter     time        total  log10-change:
                         energy   eigst   dens
iter:   1 23:51:55  -130.754096   -3.23
iter:   2 23:51:58  -130.765382   -3.12  -1.90
iter:   3 23:52:01  -130.739395c  -3.81  -1.77
iter:   4 23:52:05  -130.738063c  -4.81  -2.41
iter:   5 23:52:08  -130.736519c  -4.67  -2.73
iter:   6 23:52:11  -130.736580c  -5.06  -2.89
iter:   7 23:52:14  -130.736735c  -5.11  -3.02
iter:   8 23:52:17  -130.736203c  -5.04  -3.06
iter:   9 23:52:20  -130.736243c  -5.89c -3.43
iter:  10 23:52:23  -130.736434c  -5.19  -3.46
iter:  11 23:52:26  -130.736213c  -5.10  -3.43
iter:  12 23:52:28  -130.736133c  -5.59c -3.71
iter:  13 23:52:31  -130.736177c  -5.15  -3.80
iter:  14 23:52:34  -130.735971c  -5.06  -3.71
iter:  15 23:52:36  -130.735880c  -5.59c -4.00c

Converged after 15 iterations.

Dipole moment: (-0.653289, 0.000000, 0.264699) |e|*Ang

Energy contributions relative to reference atoms: (reference = -14803.510878)

Kinetic:       +103.186888
Potential:      -92.250149
External:        +0.000000
XC:            -140.568716
Entropy (-ST):   -1.234278
Local:           -0.486764
SIC:             +0.000000
--------------------------
Free energy:   -131.353019
Extrapolated:  -130.735880

 Band  Eigenvalues  Occupancy
    0     -4.74349    2.00000
    1     -4.42940    2.00000
    2     -4.22454    2.00000
    3     -4.22231    2.00000
    4     -3.91447    2.00000
    5     -3.90738    2.00000
    6     -3.85603    2.00000
    7     -3.70717    2.00000
    8     -3.39289    2.00000
    9     -3.34998    2.00000
   10     -3.33236    2.00000
   11     -3.17533    2.00000
   12     -3.17255    2.00000
   13     -3.10293    2.00000
   14     -2.87511    2.00000
   15     -2.86837    2.00000
   16     -2.81849    2.00000
   17     -2.67853    1.99999
   18     -2.67813    1.99999
   19     -2.61978    1.99998
   20     -2.56818    1.99997
   21     -2.36607    1.99978
   22     -2.36292    1.99978
   23     -2.34096    1.99972
   24     -2.32324    1.99967
   25     -2.23467    1.99920
   26     -2.05634    1.99524
   27     -1.81358    1.94731
   28     -1.80064    1.94025
   29     -1.76266    1.91383
   30     -1.76082    1.91230
   31     -1.68675    1.82451
   32     -1.66957    1.79497
   33     -1.64856    1.75297
   34     -1.57752    1.55429
   35     -1.57291    1.53814
   36     -1.41697    0.82367
   37     -1.35816    0.56000
   38     -1.33094    0.45705
   39     -1.32973    0.45281
   40     -1.18616    0.13021
   41     -1.17225    0.11426
   42     -1.16553    0.10723
   43     -1.10587    0.06051
   44     -1.08072    0.04738
   45     -1.04005    0.03180
   46     -1.03031    0.02889
   47     -0.95953    0.01434

Fermi level: -1.45261

Gap: 0.156 eV
Transition (v -> c):
  (s=0, k=0, n=35, [0.25, 0.25, 0.00]) -> (s=0, k=0, n=36, [0.25, 0.25, 0.00])
No difference between direct/indirect transitions

Forces in eV/Ang:
  0 Li    0.00347    0.00000   -0.02874
  1 Li    0.00000   -0.00075    0.05946
  2 Li    0.00384    0.00000    0.01995
  3 Li    0.00000    0.00160    0.00478
  4 Li    0.00377    0.00000   -0.00286
  5 Li    0.00000   -0.00124   -0.00600
  6 Li    0.00348    0.00000   -0.07783
  7 Li   -0.00000    0.10936    0.11388
  8 Li    0.00052    0.00052   -0.03186
  9 Li   -0.00000    0.00000    0.06783
 10 Li    0.00059    0.00059    0.00743
 11 Li   -0.00000    0.00000    0.01400
 12 Li   -0.00070   -0.00070   -0.00664
 13 Li    0.00000    0.00000   -0.04662
 14 Li    0.00365    0.00365   -0.00959
 15 Li    0.00000    0.00000   -1.78108
 16 Li    0.00052   -0.00052   -0.03186
 17 Li    0.00000    0.00075    0.05946
 18 Li    0.00059   -0.00059    0.00743
 19 Li    0.00000   -0.00160    0.00478
 20 Li   -0.00070    0.00070   -0.00664
 21 Li    0.00000    0.00124   -0.00600
 22 Li    0.00365   -0.00365   -0.00959
 23 Li   -0.00000   -0.10936    0.11388
 24 Li   -0.00347    0.00000   -0.02874
 25 Li   -0.00126    0.00126    0.05788
 26 Li   -0.00384    0.00000    0.01995
 27 Li    0.00119   -0.00119   -0.00252
 28 Li   -0.00377    0.00000   -0.00286
 29 Li   -0.00046    0.00046   -0.01200
 30 Li   -0.00347    0.00000   -0.07783
 31 Li   -0.01137    0.01137    0.04924
 32 Li   -0.00052    0.00052   -0.03186
 33 Li    0.00075    0.00000    0.05947
 34 Li   -0.00059    0.00059    0.00743
 35 Li   -0.00160    0.00000    0.00478
 36 Li    0.00070   -0.00070   -0.00664
 37 Li    0.00125    0.00000   -0.00600
 38 Li   -0.00365    0.00365   -0.00959
 39 Li   -0.10936    0.00000    0.11388
 40 Li   -0.00052   -0.00052   -0.03186
 41 Li   -0.00126   -0.00126    0.05788
 42 Li   -0.00059   -0.00059    0.00743
 43 Li    0.00119    0.00119   -0.00252
 44 Li    0.00070    0.00070   -0.00664
 45 Li   -0.00046   -0.00046   -0.01200
 46 Li   -0.00365   -0.00365   -0.00959
 47 Li   -0.01137   -0.01137    0.04924
 48 Li   -0.00000    0.00000   -0.03111
 49 Li    0.00126    0.00126    0.05788
 50 Li    0.00000    0.00000    0.01895
 51 Li   -0.00119   -0.00119   -0.00251
 52 Li   -0.00000    0.00000   -0.00483
 53 Li    0.00046    0.00046   -0.01200
 54 Li    0.00000    0.00000   -0.04596
 55 Li    0.01137    0.01137    0.04924
 56 Li    0.00000    0.00347   -0.02874
 57 Li   -0.00075    0.00000    0.05947
 58 Li   -0.00000    0.00384    0.01996
 59 Li    0.00160    0.00000    0.00478
 60 Li    0.00000    0.00377   -0.00286
 61 Li   -0.00125    0.00000   -0.00600
 62 Li    0.00000    0.00348   -0.07783
 63 Li    0.10937    0.00000    0.11389
 64 Li    0.00000   -0.00347   -0.02874
 65 Li    0.00126   -0.00126    0.05788
 66 Li   -0.00000   -0.00384    0.01996
 67 Li   -0.00119    0.00119   -0.00251
 68 Li    0.00000   -0.00377   -0.00286
 69 Li    0.00046   -0.00046   -0.01200
 70 Li    0.00000   -0.00348   -0.07783
 71 Li    0.01137   -0.01137    0.04924
 72 Li   -0.00000    0.00000    1.27070

System changes: positions 

Initializing position-dependent things.

Density initialized from wave functions
       .-------------------------.  
      /|                         |  
     / |                         |  
    /  |                         |  
   /   |                         |  
  /    |                         |  
 *     |                         |  
 |     |                         |  
 |     |                         |  
 |     |                         |  
 |     |                         |  
 |     |                         |  
 |     |                         |  
 |     |LiLi       Li       Li   |  
 |     |                         |  
 |     |         Li       Li     |  
 |     |Li                       |  
 |   LLi      LLi     LiLi       |  
 |     |  Li       Li       Li   |  
 | Li  |    Li      Li           |  
 |     |Li       Li       Li     |  
 Li    |  Li  Li  Li  Li       Li|  
 |    Li  Li   Li  Li   Li  Li   |  
 |     |    Li      Li       Li  |  
 |     |Li       Li       Li     |  
 Li  Li|  Li  Li  Li  Li         |  
 |    Li  Li   Li  Li   Li  Li   |  
 | Li  |    Li      Li           |  
 |     |Li       Li       Li     |  
 Li    |  Li      Li             |  
 |   LLi      LLi     LiLi       |  
 |     |                         |  
 | Li  |    Li      Li           |  
 |     |                         |  
 Li    |  Li      Li             |  
 |     |                         |  
 |     |                         |  
 |     |                         |  
 |     |                         |  
 |     |                         |  
 |     .-------------------------.  
 |    /                         /   
 |   /                         /    
 |  /                         /     
 | /                         /      
 |/                         /       
 *-------------------------*        

Atomic positions and initial magnetic moments

Positions:
   0 Li     0.000000    0.000000   10.000000    ( 0.0000,  0.0000,  0.0000)
   1 Li     1.745000    1.745000   11.745000    ( 0.0000,  0.0000,  0.0000)
   2 Li     0.000000    0.000000   13.490000    ( 0.0000,  0.0000,  0.0000)
   3 Li     1.745000    1.745000   15.235000    ( 0.0000,  0.0000,  0.0000)
   4 Li     0.000474    0.000000   16.979634    ( 0.0000,  0.0000,  0.0000)
   5 Li     1.745000    1.744827   18.724237    ( 0.0000,  0.0000,  0.0000)
   6 Li     0.000432   -0.000000   20.460095    ( 0.0000,  0.0000,  0.0000)
   7 Li     1.745000    1.758895   22.229457    ( 0.0000,  0.0000,  0.0000)
   8 Li     0.000000    3.490000   10.000000    ( 0.0000,  0.0000,  0.0000)
   9 Li     1.745000    5.235000   11.745000    ( 0.0000,  0.0000,  0.0000)
  10 Li     0.000000    3.490000   13.490000    ( 0.0000,  0.0000,  0.0000)
  11 Li     1.745000    5.235000   15.235000    ( 0.0000,  0.0000,  0.0000)
  12 Li    -0.000086    3.489914   16.979180    ( 0.0000,  0.0000,  0.0000)
  13 Li     1.745000    5.235000   18.719087    ( 0.0000,  0.0000,  0.0000)
  14 Li     0.000535    3.490535   20.468889    ( 0.0000,  0.0000,  0.0000)
  15 Li     1.745000    5.235000   21.986540    ( 0.0000,  0.0000,  0.0000)
  16 Li     0.000000    6.980000   10.000000    ( 0.0000,  0.0000,  0.0000)
  17 Li     1.745000    8.725000   11.745000    ( 0.0000,  0.0000,  0.0000)
  18 Li     0.000000    6.980000   13.490000    ( 0.0000,  0.0000,  0.0000)
  19 Li     1.745000    8.725000   15.235000    ( 0.0000,  0.0000,  0.0000)
  20 Li    -0.000086    6.980086   16.979180    ( 0.0000,  0.0000,  0.0000)
  21 Li     1.745000    8.725173   18.724237    ( 0.0000,  0.0000,  0.0000)
  22 Li     0.000535    6.979465   20.468889    ( 0.0000,  0.0000,  0.0000)
  23 Li     1.745000    8.711105   22.229457    ( 0.0000,  0.0000,  0.0000)
  24 Li     3.490000    0.000000   10.000000    ( 0.0000,  0.0000,  0.0000)
  25 Li     5.235000    1.745000   11.745000    ( 0.0000,  0.0000,  0.0000)
  26 Li     3.490000    0.000000   13.490000    ( 0.0000,  0.0000,  0.0000)
  27 Li     5.235000    1.745000   15.235000    ( 0.0000,  0.0000,  0.0000)
  28 Li     3.489526   -0.000000   16.979634    ( 0.0000,  0.0000,  0.0000)
  29 Li     5.234937    1.745064   18.723494    ( 0.0000,  0.0000,  0.0000)
  30 Li     3.489568    0.000000   20.460095    ( 0.0000,  0.0000,  0.0000)
  31 Li     5.233548    1.746452   22.221256    ( 0.0000,  0.0000,  0.0000)
  32 Li     3.490000    3.490000   10.000000    ( 0.0000,  0.0000,  0.0000)
  33 Li     5.235000    5.235000   11.745000    ( 0.0000,  0.0000,  0.0000)
  34 Li     3.490000    3.490000   13.490000    ( 0.0000,  0.0000,  0.0000)
  35 Li     5.235000    5.235000   15.235000    ( 0.0000,  0.0000,  0.0000)
  36 Li     3.490086    3.489914   16.979180    ( 0.0000,  0.0000,  0.0000)
  37 Li     5.235173    5.235000   18.724237    ( 0.0000,  0.0000,  0.0000)
  38 Li     3.489465    3.490535   20.468889    ( 0.0000,  0.0000,  0.0000)
  39 Li     5.221105    5.235000   22.229457    ( 0.0000,  0.0000,  0.0000)
  40 Li     3.490000    6.980000   10.000000    ( 0.0000,  0.0000,  0.0000)
  41 Li     5.235000    8.725000   11.745000    ( 0.0000,  0.0000,  0.0000)
  42 Li     3.490000    6.980000   13.490000    ( 0.0000,  0.0000,  0.0000)
  43 Li     5.235000    8.725000   15.235000    ( 0.0000,  0.0000,  0.0000)
  44 Li     3.490086    6.980086   16.979180    ( 0.0000,  0.0000,  0.0000)
  45 Li     5.234937    8.724936   18.723494    ( 0.0000,  0.0000,  0.0000)
  46 Li     3.489465    6.979465   20.468889    ( 0.0000,  0.0000,  0.0000)
  47 Li     5.233548    8.723548   22.221256    ( 0.0000,  0.0000,  0.0000)
  48 Li     6.980000    0.000000   10.000000    ( 0.0000,  0.0000,  0.0000)
  49 Li     8.725000    1.745000   11.745000    ( 0.0000,  0.0000,  0.0000)
  50 Li     6.980000    0.000000   13.490000    ( 0.0000,  0.0000,  0.0000)
  51 Li     8.725000    1.745000   15.235000    ( 0.0000,  0.0000,  0.0000)
  52 Li     6.980000    0.000000   16.979394    ( 0.0000,  0.0000,  0.0000)
  53 Li     8.725063    1.745064   18.723494    ( 0.0000,  0.0000,  0.0000)
  54 Li     6.980000    0.000000   20.464169    ( 0.0000,  0.0000,  0.0000)
  55 Li     8.726452    1.746452   22.221256    ( 0.0000,  0.0000,  0.0000)
  56 Li     6.980000    3.490000   10.000000    ( 0.0000,  0.0000,  0.0000)
  57 Li     8.725000    5.235000   11.745000    ( 0.0000,  0.0000,  0.0000)
  58 Li     6.980000    3.490000   13.490000    ( 0.0000,  0.0000,  0.0000)
  59 Li     8.725000    5.235000   15.235000    ( 0.0000,  0.0000,  0.0000)
  60 Li     6.980000    3.490474   16.979634    ( 0.0000,  0.0000,  0.0000)
  61 Li     8.724826    5.235000   18.724237    ( 0.0000,  0.0000,  0.0000)
  62 Li     6.980000    3.490432   20.460095    ( 0.0000,  0.0000,  0.0000)
  63 Li     8.738895    5.235000   22.229457    ( 0.0000,  0.0000,  0.0000)
  64 Li     6.980000    6.980000   10.000000    ( 0.0000,  0.0000,  0.0000)
  65 Li     8.725000    8.725000   11.745000    ( 0.0000,  0.0000,  0.0000)
  66 Li     6.980000    6.980000   13.490000    ( 0.0000,  0.0000,  0.0000)
  67 Li     8.725000    8.725000   15.235000    ( 0.0000,  0.0000,  0.0000)
  68 Li     6.980000    6.979526   16.979634    ( 0.0000,  0.0000,  0.0000)
  69 Li     8.725063    8.724936   18.723494    ( 0.0000,  0.0000,  0.0000)
  70 Li     6.980000    6.979568   20.460095    ( 0.0000,  0.0000,  0.0000)
  71 Li     8.726452    8.723548   22.221256    ( 0.0000,  0.0000,  0.0000)
  72 Li     1.745000    5.235000   24.378411    ( 0.0000,  0.0000,  0.0000)

Unit cell:
           periodic     x           y           z      points  spacing
  1. axis:    yes   10.470000    0.000000    0.000000    35     0.2991
  2. axis:    yes    0.000000   10.470000    0.000000    35     0.2991
  3. axis:    no     0.000000    0.000000   32.215000   108     0.2983

  Lengths:  10.470000  10.470000  32.215000
  Angles:   90.000000  90.000000  90.000000

Effective grid spacing dv^(1/3) = 0.2989

     iter     time        total  log10-change:
                         energy   eigst   dens
iter:   1 23:52:43  -132.667099   -1.36
iter:   2 23:52:46  -133.959645   -1.09  -0.93
iter:   3 23:52:49  -131.154787   -2.10  -0.79
iter:   4 23:52:51  -131.122112   -2.63  -1.55
iter:   5 23:52:54  -131.089866   -2.81  -1.78
iter:   6 23:52:57  -131.096427c  -3.29  -2.08
iter:   7 23:52:59  -131.092834c  -4.05  -2.02
iter:   8 23:53:02  -131.088034c  -4.31  -2.16
iter:   9 23:53:04  -131.087615c  -4.53  -2.51
iter:  10 23:53:07  -131.088358c  -4.79  -2.65
iter:  11 23:53:10  -131.088172c  -5.15  -2.71
iter:  12 23:53:12  -131.088180c  -5.13  -2.84
iter:  13 23:53:15  -131.088206c  -5.45c -2.91
iter:  14 23:53:17  -131.088186c  -5.44c -2.98
iter:  15 23:53:21  -131.087905c  -5.58c -3.14
iter:  16 23:53:23  -131.087912c  -5.91c -3.33
iter:  17 23:53:26  -131.087880c  -5.98c -3.45
iter:  18 23:53:29  -131.087871c  -5.91c -3.55
iter:  19 23:53:31  -131.087896c  -6.13c -3.65
iter:  20 23:53:33  -131.087944c  -6.27c -3.80
iter:  21 23:53:36  -131.087934c  -6.25c -3.94
iter:  22 23:53:39  -131.087928c  -6.15c -4.02c

Converged after 22 iterations.

Dipole moment: (-0.699191, 0.000000, 0.357899) |e|*Ang

Energy contributions relative to reference atoms: (reference = -14803.510878)

Kinetic:       +102.269633
Potential:      -91.910673
External:        +0.000000
XC:            -140.342097
Entropy (-ST):   -1.236110
Local:           -0.486736
SIC:             +0.000000
--------------------------
Free energy:   -131.705984
Extrapolated:  -131.087928

 Band  Eigenvalues  Occupancy
    0     -4.72696    2.00000
    1     -4.41362    2.00000
    2     -4.20914    2.00000
    3     -4.20477    2.00000
    4     -3.90076    2.00000
    5     -3.88974    2.00000
    6     -3.83880    2.00000
    7     -3.69072    2.00000
    8     -3.37743    2.00000
    9     -3.33269    2.00000
   10     -3.31420    2.00000
   11     -3.16008    2.00000
   12     -3.15488    2.00000
   13     -3.08628    2.00000
   14     -2.86108    2.00000
   15     -2.85011    2.00000
   16     -2.80046    2.00000
   17     -2.66263    1.99999
   18     -2.66128    1.99999
   19     -2.60307    1.99998
   20     -2.54999    1.99997
   21     -2.34848    1.99978
   22     -2.34771    1.99978
   23     -2.32277    1.99972
   24     -2.30360    1.99966
   25     -2.22734    1.99927
   26     -2.03691    1.99510
   27     -1.79802    1.94785
   28     -1.78007    1.93791
   29     -1.75066    1.91756
   30     -1.74591    1.91372
   31     -1.66478    1.81575
   32     -1.64830    1.78626
   33     -1.63204    1.75318
   34     -1.55957    1.54968
   35     -1.55536    1.53480
   36     -1.39995    0.82175
   37     -1.35324    0.60835
   38     -1.31371    0.45491
   39     -1.31188    0.44850
   40     -1.16525    0.12508
   41     -1.15468    0.11324
   42     -1.14723    0.10555
   43     -1.06926    0.04982
   44     -1.05777    0.04453
   45     -1.02507    0.03231
   46     -1.01273    0.02862
   47     -0.96226    0.01737

Fermi level: -1.43599

Gap: 0.155 eV
Transition (v -> c):
  (s=0, k=0, n=35, [0.25, 0.25, 0.00]) -> (s=0, k=0, n=36, [0.25, 0.25, 0.00])
No difference between direct/indirect transitions

Forces in eV/Ang:
  0 Li    0.00338    0.00000   -0.02857
  1 Li    0.00000   -0.00134    0.05842
  2 Li    0.00349    0.00000    0.02063
  3 Li   -0.00000    0.00131    0.00594
  4 Li    0.00502    0.00000    0.00025
  5 Li    0.00000    0.00690   -0.00241
  6 Li    0.00759    0.00000   -0.05148
  7 Li   -0.00000    0.08697    0.09193
  8 Li    0.00006    0.00006   -0.03227
  9 Li    0.00000    0.00000    0.06762
 10 Li    0.00035    0.00035    0.00595
 11 Li    0.00000    0.00000    0.01515
 12 Li   -0.00216   -0.00216   -0.01234
 13 Li    0.00000    0.00000   -0.04883
 14 Li   -0.03303   -0.03303   -0.05537
 15 Li    0.00000    0.00000   -0.61590
 16 Li    0.00006   -0.00006   -0.03227
 17 Li    0.00000    0.00134    0.05842
 18 Li    0.00035   -0.00035    0.00595
 19 Li   -0.00000   -0.00131    0.00594
 20 Li   -0.00216    0.00216   -0.01234
 21 Li    0.00000   -0.00690   -0.00241
 22 Li   -0.03303    0.03303   -0.05537
 23 Li   -0.00000   -0.08697    0.09193
 24 Li   -0.00338    0.00000   -0.02858
 25 Li   -0.00087    0.00087    0.05716
 26 Li   -0.00349    0.00000    0.02063
 27 Li    0.00108   -0.00108   -0.00227
 28 Li   -0.00502    0.00000    0.00025
 29 Li    0.00140   -0.00140   -0.01585
 30 Li   -0.00759    0.00000   -0.05147
 31 Li   -0.00547    0.00547    0.03901
 32 Li   -0.00006    0.00006   -0.03227
 33 Li    0.00135    0.00000    0.05842
 34 Li   -0.00035    0.00035    0.00595
 35 Li   -0.00131    0.00000    0.00594
 36 Li    0.00216   -0.00216   -0.01234
 37 Li   -0.00690    0.00000   -0.00241
 38 Li    0.03303   -0.03303   -0.05537
 39 Li   -0.08697    0.00000    0.09193
 40 Li   -0.00006   -0.00006   -0.03227
 41 Li   -0.00087   -0.00087    0.05716
 42 Li   -0.00035   -0.00035    0.00595
 43 Li    0.00108    0.00108   -0.00227
 44 Li    0.00216    0.00216   -0.01234
 45 Li    0.00140    0.00140   -0.01585
 46 Li    0.03303    0.03303   -0.05537
 47 Li   -0.00547   -0.00547    0.03901
 48 Li   -0.00000    0.00000   -0.03158
 49 Li    0.00087    0.00087    0.05716
 50 Li    0.00000    0.00000    0.01710
 51 Li   -0.00108   -0.00108   -0.00227
 52 Li    0.00000    0.00000   -0.00352
 53 Li   -0.00140   -0.00140   -0.01585
 54 Li    0.00000    0.00000   -0.03730
 55 Li    0.00547    0.00547    0.03901
 56 Li    0.00000    0.00338   -0.02858
 57 Li   -0.00135    0.00000    0.05842
 58 Li   -0.00000    0.00349    0.02063
 59 Li    0.00131    0.00000    0.00594
 60 Li    0.00000    0.00502    0.00025
 61 Li    0.00690    0.00000   -0.00241
 62 Li   -0.00000    0.00759   -0.05148
 63 Li    0.08697    0.00000    0.09193
 64 Li    0.00000   -0.00338   -0.02858
 65 Li    0.00087   -0.00087    0.05716
 66 Li   -0.00000   -0.00349    0.02063
 67 Li   -0.00108    0.00108   -0.00227
 68 Li    0.00000   -0.00502    0.00025
 69 Li   -0.00140    0.00140   -0.01585
 70 Li   -0.00000   -0.00759   -0.05148
 71 Li    0.00547   -0.00547    0.03901
 72 Li   -0.00000    0.00000    0.32195

System changes: positions 

Initializing position-dependent things.

Density initialized from wave functions
       .-------------------------.  
      /|                         |  
     / |                         |  
    /  |                         |  
   /   |                         |  
  /    |                         |  
 *     |                         |  
 |     |                         |  
 |     |                         |  
 |     |                         |  
 |     |                         |  
 |     |                         |  
 |     |                         |  
 |     |LiLi       Li       Li   |  
 |     |                         |  
 |     |         Li       Li     |  
 |     |Li                       |  
 |   LLi      LLi     LiLi       |  
 |     |  Li       Li       Li   |  
 | Li  |    Li      Li           |  
 |     |Li       Li       Li     |  
 Li    |  Li  Li  Li  Li       Li|  
 |    Li  Li   Li  Li   Li  Li   |  
 |     |    Li      Li       Li  |  
 |     |Li       Li       Li     |  
 Li  Li|  Li  Li  Li  Li         |  
 |    Li  Li   Li  Li   Li  Li   |  
 | Li  |    Li      Li           |  
 |     |Li       Li       Li     |  
 Li    |  Li      Li             |  
 |   LLi      LLi     LiLi       |  
 |     |                         |  
 | Li  |    Li      Li           |  
 |     |                         |  
 Li    |  Li      Li             |  
 |     |                         |  
 |     |                         |  
 |     |                         |  
 |     |                         |  
 |     |                         |  
 |     .-------------------------.  
 |    /                         /   
 |   /                         /    
 |  /                         /     
 | /                         /      
 |/                         /       
 *-------------------------*        

Atomic positions and initial magnetic moments

Positions:
   0 Li     0.000000    0.000000   10.000000    ( 0.0000,  0.0000,  0.0000)
   1 Li     1.745000    1.745000   11.745000    ( 0.0000,  0.0000,  0.0000)
   2 Li     0.000000    0.000000   13.490000    ( 0.0000,  0.0000,  0.0000)
   3 Li     1.745000    1.745000   15.235000    ( 0.0000,  0.0000,  0.0000)
   4 Li     0.000763   -0.000000   16.979501    ( 0.0000,  0.0000,  0.0000)
   5 Li     1.745000    1.744913   18.723897    ( 0.0000,  0.0000,  0.0000)
   6 Li     0.000761   -0.000000   20.455248    ( 0.0000,  0.0000,  0.0000)
   7 Li     1.745000    1.766016   22.236901    ( 0.0000,  0.0000,  0.0000)
   8 Li     0.000000    3.490000   10.000000    ( 0.0000,  0.0000,  0.0000)
   9 Li     1.745000    5.235000   11.745000    ( 0.0000,  0.0000,  0.0000)
  10 Li     0.000000    3.490000   13.490000    ( 0.0000,  0.0000,  0.0000)
  11 Li     1.745000    5.235000   15.235000    ( 0.0000,  0.0000,  0.0000)
  12 Li    -0.000166    3.489834   16.978598    ( 0.0000,  0.0000,  0.0000)
  13 Li     1.745000    5.235000   18.715801    ( 0.0000,  0.0000,  0.0000)
  14 Li     0.000011    3.490011   20.467252    ( 0.0000,  0.0000,  0.0000)
  15 Li     1.745000    5.235000   21.887522    ( 0.0000,  0.0000,  0.0000)
  16 Li     0.000000    6.980000   10.000000    ( 0.0000,  0.0000,  0.0000)
  17 Li     1.745000    8.725000   11.745000    ( 0.0000,  0.0000,  0.0000)
  18 Li     0.000000    6.980000   13.490000    ( 0.0000,  0.0000,  0.0000)
  19 Li     1.745000    8.725000   15.235000    ( 0.0000,  0.0000,  0.0000)
  20 Li    -0.000166    6.980166   16.978598    ( 0.0000,  0.0000,  0.0000)
  21 Li     1.745000    8.725087   18.723897    ( 0.0000,  0.0000,  0.0000)
  22 Li     0.000011    6.979989   20.467252    ( 0.0000,  0.0000,  0.0000)
  23 Li     1.745000    8.703984   22.236901    ( 0.0000,  0.0000,  0.0000)
  24 Li     3.490000    0.000000   10.000000    ( 0.0000,  0.0000,  0.0000)
  25 Li     5.235000    1.745000   11.745000    ( 0.0000,  0.0000,  0.0000)
  26 Li     3.490000    0.000000   13.490000    ( 0.0000,  0.0000,  0.0000)
  27 Li     5.235000    1.745000   15.235000    ( 0.0000,  0.0000,  0.0000)
  28 Li     3.489237   -0.000000   16.979502    ( 0.0000,  0.0000,  0.0000)
  29 Li     5.234944    1.745056   18.722580    ( 0.0000,  0.0000,  0.0000)
  30 Li     3.489239    0.000000   20.455248    ( 0.0000,  0.0000,  0.0000)
  31 Li     5.232883    1.747116   22.224459    ( 0.0000,  0.0000,  0.0000)
  32 Li     3.490000    3.490000   10.000000    ( 0.0000,  0.0000,  0.0000)
  33 Li     5.235000    5.235000   11.745000    ( 0.0000,  0.0000,  0.0000)
  34 Li     3.490000    3.490000   13.490000    ( 0.0000,  0.0000,  0.0000)
  35 Li     5.235000    5.235000   15.235000    ( 0.0000,  0.0000,  0.0000)
  36 Li     3.490166    3.489834   16.978598    ( 0.0000,  0.0000,  0.0000)
  37 Li     5.235087    5.235000   18.723896    ( 0.0000,  0.0000,  0.0000)
  38 Li     3.489989    3.490011   20.467252    ( 0.0000,  0.0000,  0.0000)
  39 Li     5.213984    5.235000   22.236901    ( 0.0000,  0.0000,  0.0000)
  40 Li     3.490000    6.980000   10.000000    ( 0.0000,  0.0000,  0.0000)
  41 Li     5.235000    8.725000   11.745000    ( 0.0000,  0.0000,  0.0000)
  42 Li     3.490000    6.980000   13.490000    ( 0.0000,  0.0000,  0.0000)
  43 Li     5.235000    8.725000   15.235000    ( 0.0000,  0.0000,  0.0000)
  44 Li     3.490166    6.980166   16.978598    ( 0.0000,  0.0000,  0.0000)
  45 Li     5.234944    8.724944   18.722580    ( 0.0000,  0.0000,  0.0000)
  46 Li     3.489989    6.979989   20.467252    ( 0.0000,  0.0000,  0.0000)
  47 Li     5.232883    8.722884   22.224459    ( 0.0000,  0.0000,  0.0000)
  48 Li     6.980000    0.000000   10.000000    ( 0.0000,  0.0000,  0.0000)
  49 Li     8.725000    1.745000   11.745000    ( 0.0000,  0.0000,  0.0000)
  50 Li     6.980000    0.000000   13.490000    ( 0.0000,  0.0000,  0.0000)
  51 Li     8.725000    1.745000   15.235000    ( 0.0000,  0.0000,  0.0000)
  52 Li     6.980000    0.000000   16.979087    ( 0.0000,  0.0000,  0.0000)
  53 Li     8.725056    1.745056   18.722579    ( 0.0000,  0.0000,  0.0000)
  54 Li     6.980000    0.000000   20.461161    ( 0.0000,  0.0000,  0.0000)
  55 Li     8.727117    1.747116   22.224459    ( 0.0000,  0.0000,  0.0000)
  56 Li     6.980000    3.490000   10.000000    ( 0.0000,  0.0000,  0.0000)
  57 Li     8.725000    5.235000   11.745000    ( 0.0000,  0.0000,  0.0000)
  58 Li     6.980000    3.490000   13.490000    ( 0.0000,  0.0000,  0.0000)
  59 Li     8.725000    5.235000   15.235000    ( 0.0000,  0.0000,  0.0000)
  60 Li     6.980000    3.490763   16.979501    ( 0.0000,  0.0000,  0.0000)
  61 Li     8.724912    5.235000   18.723896    ( 0.0000,  0.0000,  0.0000)
  62 Li     6.980000    3.490761   20.455248    ( 0.0000,  0.0000,  0.0000)
  63 Li     8.746016    5.235000   22.236901    ( 0.0000,  0.0000,  0.0000)
  64 Li     6.980000    6.980000   10.000000    ( 0.0000,  0.0000,  0.0000)
  65 Li     8.725000    8.725000   11.745000    ( 0.0000,  0.0000,  0.0000)
  66 Li     6.980000    6.980000   13.490000    ( 0.0000,  0.0000,  0.0000)
  67 Li     8.725000    8.725000   15.235000    ( 0.0000,  0.0000,  0.0000)
  68 Li     6.980000    6.979237   16.979501    ( 0.0000,  0.0000,  0.0000)
  69 Li     8.725056    8.724944   18.722579    ( 0.0000,  0.0000,  0.0000)
  70 Li     6.980000    6.979239   20.455248    ( 0.0000,  0.0000,  0.0000)
  71 Li     8.727117    8.722884   22.224459    ( 0.0000,  0.0000,  0.0000)
  72 Li     1.744999    5.235000   24.446570    ( 0.0000,  0.0000,  0.0000)

Unit cell:
           periodic     x           y           z      points  spacing
  1. axis:    yes   10.470000    0.000000    0.000000    35     0.2991
  2. axis:    yes    0.000000   10.470000    0.000000    35     0.2991
  3. axis:    no     0.000000    0.000000   32.215000   108     0.2983

  Lengths:  10.470000  10.470000  32.215000
  Angles:   90.000000  90.000000  90.000000

Effective grid spacing dv^(1/3) = 0.2989

     iter     time        total  log10-change:
                         energy   eigst   dens
iter:   1 23:53:46  -131.638714   -1.90
iter:   2 23:53:49  -132.192896   -1.58  -1.17
iter:   3 23:53:52  -131.167237   -2.52  -0.98
iter:   4 23:53:55  -131.156657   -3.18  -1.84
iter:   5 23:53:57  -131.146644c  -3.37  -2.07
iter:   6 23:54:00  -131.148710c  -3.88  -2.32
iter:   7 23:54:03  -131.147293c  -4.65  -2.32
iter:   8 23:54:06  -131.146394c  -4.92  -2.61
iter:   9 23:54:10  -131.146266c  -5.15  -2.80
iter:  10 23:54:13  -131.146577c  -5.27  -2.92
iter:  11 23:54:16  -131.146431c  -5.50c -3.03
iter:  12 23:54:18  -131.146522c  -5.70c -3.16
iter:  13 23:54:22  -131.146513c  -5.98c -3.22
iter:  14 23:54:24  -131.146456c  -5.87c -3.27
iter:  15 23:54:27  -131.146383c  -6.19c -3.47
iter:  16 23:54:30  -131.146381c  -6.33c -3.60
iter:  17 23:54:32  -131.146376c  -6.34c -3.62
iter:  18 23:54:35  -131.146374c  -6.62c -3.88
iter:  19 23:54:38  -131.146388c  -6.75c -3.96
iter:  20 23:54:40  -131.146411c  -6.76c -4.02c

Converged after 20 iterations.

Dipole moment: (-0.695851, 0.000000, 0.391479) |e|*Ang

Energy contributions relative to reference atoms: (reference = -14803.510878)

Kinetic:       +101.910569
Potential:      -91.713677
External:        +0.000000
XC:            -140.238265
Entropy (-ST):   -1.237059
Local:           -0.486508
SIC:             +0.000000
--------------------------
Free energy:   -131.764941
Extrapolated:  -131.146411

 Band  Eigenvalues  Occupancy
    0     -4.72102    2.00000
    1     -4.40781    2.00000
    2     -4.20376    2.00000
    3     -4.19838    2.00000
    4     -3.89582    2.00000
    5     -3.88313    2.00000
    6     -3.83191    2.00000
    7     -3.68487    2.00000
    8     -3.37171    2.00000
    9     -3.32543    2.00000
   10     -3.30727    2.00000
   11     -3.15484    2.00000
   12     -3.14843    2.00000
   13     -3.07933    2.00000
   14     -2.85635    2.00000
   15     -2.84319    2.00000
   16     -2.79327    2.00000
   17     -2.65724    1.99999
   18     -2.65517    1.99999
   19     -2.59541    1.99998
   20     -2.54322    1.99997
   21     -2.34276    1.99978
   22     -2.34165    1.99978
   23     -2.31556    1.99971
   24     -2.29589    1.99965
   25     -2.22424    1.99929
   26     -2.02934    1.99502
   27     -1.79078    1.94721
   28     -1.77281    1.93714
   29     -1.74649    1.91898
   30     -1.74052    1.91421
   31     -1.65668    1.81218
   32     -1.64044    1.78266
   33     -1.62588    1.75281
   34     -1.55303    1.54775
   35     -1.54905    1.53366
   36     -1.39424    0.82305
   37     -1.35105    0.62455
   38     -1.30787    0.45540
   39     -1.30550    0.44714
   40     -1.15908    0.12487
   41     -1.14832    0.11284
   42     -1.14041    0.10471
   43     -1.05548    0.04617
   44     -1.04815    0.04298
   45     -1.01960    0.03248
   46     -1.00600    0.02841
   47     -0.95780    0.01764

Fermi level: -1.43000

Gap: 0.155 eV
Transition (v -> c):
  (s=0, k=0, n=35, [0.25, 0.25, 0.00]) -> (s=0, k=0, n=36, [0.25, 0.25, 0.00])
No difference between direct/indirect transitions

Forces in eV/Ang:
  0 Li    0.00337    0.00000   -0.02862
  1 Li    0.00000   -0.00156    0.05795
  2 Li    0.00328    0.00000    0.02078
  3 Li   -0.00000    0.00146    0.00654
  4 Li    0.00560    0.00000    0.00168
  5 Li   -0.00000    0.01087   -0.00128
  6 Li    0.00938    0.00000   -0.03809
  7 Li   -0.00000    0.07840    0.08057
  8 Li   -0.00010   -0.00010   -0.03253
  9 Li    0.00000    0.00000    0.06729
 10 Li    0.00017    0.00017    0.00554
 11 Li    0.00000    0.00000    0.01591
 12 Li   -0.00272   -0.00272   -0.01427
 13 Li    0.00000    0.00000   -0.06021
 14 Li   -0.05346   -0.05346   -0.07417
 15 Li    0.00000    0.00000   -0.21488
 16 Li   -0.00010    0.00010   -0.03253
 17 Li    0.00000    0.00156    0.05795
 18 Li    0.00017   -0.00017    0.00554
 19 Li   -0.00000   -0.00146    0.00654
 20 Li   -0.00272    0.00272   -0.01427
 21 Li   -0.00000   -0.01087   -0.00128
 22 Li   -0.05346    0.05346   -0.07417
 23 Li   -0.00000   -0.07840    0.08057
 24 Li   -0.00337    0.00000   -0.02862
 25 Li   -0.00072    0.00073    0.05699
 26 Li   -0.00329    0.00000    0.02078
 27 Li    0.00113   -0.00113   -0.00223
 28 Li   -0.00560    0.00000    0.00168
 29 Li    0.00237   -0.00236   -0.01768
 30 Li   -0.00938    0.00000   -0.03809
 31 Li   -0.00286    0.00286    0.03347
 32 Li    0.00010   -0.00010   -0.03253
 33 Li    0.00156    0.00000    0.05795
 34 Li   -0.00017    0.00017    0.00554
 35 Li   -0.00146    0.00000    0.00654
 36 Li    0.00272   -0.00272   -0.01427
 37 Li   -0.01087    0.00000   -0.00128
 38 Li    0.05346   -0.05346   -0.07417
 39 Li   -0.07840    0.00000    0.08057
 40 Li    0.00010    0.00010   -0.03253
 41 Li   -0.00072   -0.00073    0.05699
 42 Li   -0.00017   -0.00017    0.00554
 43 Li    0.00113    0.00113   -0.00223
 44 Li    0.00272    0.00272   -0.01427
 45 Li    0.00237    0.00236   -0.01768
 46 Li    0.05346    0.05346   -0.07417
 47 Li   -0.00286   -0.00286    0.03347
 48 Li   -0.00000    0.00000   -0.03176
 49 Li    0.00072    0.00073    0.05699
 50 Li    0.00000    0.00000    0.01686
 51 Li   -0.00113   -0.00113   -0.00223
 52 Li    0.00000    0.00000   -0.00358
 53 Li   -0.00236   -0.00237   -0.01768
 54 Li    0.00000    0.00000   -0.03187
 55 Li    0.00286    0.00286    0.03348
 56 Li    0.00000    0.00337   -0.02862
 57 Li   -0.00156    0.00000    0.05795
 58 Li   -0.00000    0.00329    0.02078
 59 Li    0.00146    0.00000    0.00654
 60 Li   -0.00000    0.00559    0.00168
 61 Li    0.01086    0.00000   -0.00128
 62 Li    0.00000    0.00938   -0.03809
 63 Li    0.07840    0.00000    0.08057
 64 Li    0.00000   -0.00337   -0.02862
 65 Li    0.00072   -0.00073    0.05699
 66 Li   -0.00000   -0.00329    0.02078
 67 Li   -0.00113    0.00113   -0.00223
 68 Li   -0.00000   -0.00559    0.00168
 69 Li   -0.00236    0.00237   -0.01768
 70 Li    0.00000   -0.00938   -0.03809
 71 Li    0.00286   -0.00286    0.03348
 72 Li    0.00000    0.00000    0.02502

System changes: positions 

Initializing position-dependent things.

Density initialized from wave functions
       .-------------------------.  
      /|                         |  
     / |                         |  
    /  |                         |  
   /   |                         |  
  /    |                         |  
 *     |                         |  
 |     |                         |  
 |     |                         |  
 |     |                         |  
 |     |                         |  
 |     |                         |  
 |     |                         |  
 |     |LiLi       Li       Li   |  
 |     |                         |  
 |     |         Li       Li     |  
 |     |Li                       |  
 |    Li      LLi     LiLi     Li|  
 |     |  Li       Li       Li   |  
 |     |    Li      Li       Li  |  
 |     |Li       Li       Li     |  
 Li    |  Li  Li  Li  Li       Li|  
 |    Li  Li   Li  Li   Li  Li   |  
 |     |    Li      Li       Li  |  
 |     |Li       Li       Li     |  
 Li  Li|  Li  Li  Li  Li         |  
 |    Li  Li   Li  Li   Li  Li   |  
 | Li  |    Li      Li           |  
 |     |Li       Li       Li     |  
 Li    |  Li      Li             |  
 |   LLi      LLi     LiLi       |  
 |     |                         |  
 | Li  |    Li      Li           |  
 |     |                         |  
 Li    |  Li      Li             |  
 |     |                         |  
 |     |                         |  
 |     |                         |  
 |     |                         |  
 |     |                         |  
 |     .-------------------------.  
 |    /                         /   
 |   /                         /    
 |  /                         /     
 | /                         /      
 |/                         /       
 *-------------------------*        

Atomic positions and initial magnetic moments

Positions:
   0 Li     0.000000    0.000000   10.000000    ( 0.0000,  0.0000,  0.0000)
   1 Li     1.745000    1.745000   11.745000    ( 0.0000,  0.0000,  0.0000)
   2 Li     0.000000    0.000000   13.490000    ( 0.0000,  0.0000,  0.0000)
   3 Li     1.745000    1.745000   15.235000    ( 0.0000,  0.0000,  0.0000)
   4 Li     0.000992   -0.000000   16.979469    ( 0.0000,  0.0000,  0.0000)
   5 Li     1.745000    1.745140   18.723715    ( 0.0000,  0.0000,  0.0000)
   6 Li     0.001073   -0.000000   20.452360    ( 0.0000,  0.0000,  0.0000)
   7 Li     1.745000    1.770658   22.241717    ( 0.0000,  0.0000,  0.0000)
   8 Li     0.000000    3.490000   10.000000    ( 0.0000,  0.0000,  0.0000)
   9 Li     1.745000    5.235000   11.745000    ( 0.0000,  0.0000,  0.0000)
  10 Li     0.000000    3.490000   13.490000    ( 0.0000,  0.0000,  0.0000)
  11 Li     1.745000    5.235000   15.235000    ( 0.0000,  0.0000,  0.0000)
  12 Li    -0.000249    3.489751   16.978088    ( 0.0000,  0.0000,  0.0000)
  13 Li     1.745000    5.235000   18.713207    ( 0.0000,  0.0000,  0.0000)
  14 Li    -0.001163    3.488837   20.465234    ( 0.0000,  0.0000,  0.0000)
  15 Li     1.745000    5.235000   21.837501    ( 0.0000,  0.0000,  0.0000)
  16 Li     0.000000    6.980000   10.000000    ( 0.0000,  0.0000,  0.0000)
  17 Li     1.745000    8.725000   11.745000    ( 0.0000,  0.0000,  0.0000)
  18 Li     0.000000    6.980000   13.490000    ( 0.0000,  0.0000,  0.0000)
  19 Li     1.745000    8.725000   15.235000    ( 0.0000,  0.0000,  0.0000)
  20 Li    -0.000249    6.980249   16.978088    ( 0.0000,  0.0000,  0.0000)
  21 Li     1.745000    8.724860   18.723715    ( 0.0000,  0.0000,  0.0000)
  22 Li    -0.001163    6.981163   20.465234    ( 0.0000,  0.0000,  0.0000)
  23 Li     1.745000    8.699342   22.241717    ( 0.0000,  0.0000,  0.0000)
  24 Li     3.490000    0.000000   10.000000    ( 0.0000,  0.0000,  0.0000)
  25 Li     5.235000    1.745000   11.745000    ( 0.0000,  0.0000,  0.0000)
  26 Li     3.490000    0.000000   13.490000    ( 0.0000,  0.0000,  0.0000)
  27 Li     5.235000    1.745000   15.235000    ( 0.0000,  0.0000,  0.0000)
  28 Li     3.489008   -0.000000   16.979469    ( 0.0000,  0.0000,  0.0000)
  29 Li     5.234988    1.745012   18.721853    ( 0.0000,  0.0000,  0.0000)
  30 Li     3.488927    0.000000   20.452360    ( 0.0000,  0.0000,  0.0000)
  31 Li     5.232526    1.747473   22.226510    ( 0.0000,  0.0000,  0.0000)
  32 Li     3.490000    3.490000   10.000000    ( 0.0000,  0.0000,  0.0000)
  33 Li     5.235000    5.235000   11.745000    ( 0.0000,  0.0000,  0.0000)
  34 Li     3.490000    3.490000   13.490000    ( 0.0000,  0.0000,  0.0000)
  35 Li     5.235000    5.235000   15.235000    ( 0.0000,  0.0000,  0.0000)
  36 Li     3.490249    3.489751   16.978088    ( 0.0000,  0.0000,  0.0000)
  37 Li     5.234860    5.235000   18.723715    ( 0.0000,  0.0000,  0.0000)
  38 Li     3.491162    3.488837   20.465234    ( 0.0000,  0.0000,  0.0000)
  39 Li     5.209342    5.235000   22.241717    ( 0.0000,  0.0000,  0.0000)
  40 Li     3.490000    6.980000   10.000000    ( 0.0000,  0.0000,  0.0000)
  41 Li     5.235000    8.725000   11.745000    ( 0.0000,  0.0000,  0.0000)
  42 Li     3.490000    6.980000   13.490000    ( 0.0000,  0.0000,  0.0000)
  43 Li     5.235000    8.725000   15.235000    ( 0.0000,  0.0000,  0.0000)
  44 Li     3.490249    6.980249   16.978088    ( 0.0000,  0.0000,  0.0000)
  45 Li     5.234988    8.724988   18.721853    ( 0.0000,  0.0000,  0.0000)
  46 Li     3.491162    6.981163   20.465234    ( 0.0000,  0.0000,  0.0000)
  47 Li     5.232526    8.722527   22.226510    ( 0.0000,  0.0000,  0.0000)
  48 Li     6.980000    0.000000   10.000000    ( 0.0000,  0.0000,  0.0000)
  49 Li     8.725000    1.745000   11.745000    ( 0.0000,  0.0000,  0.0000)
  50 Li     6.980000    0.000000   13.490000    ( 0.0000,  0.0000,  0.0000)
  51 Li     8.725000    1.745000   15.235000    ( 0.0000,  0.0000,  0.0000)
  52 Li     6.980000    0.000000   16.978880    ( 0.0000,  0.0000,  0.0000)
  53 Li     8.725012    1.745012   18.721853    ( 0.0000,  0.0000,  0.0000)
  54 Li     6.980000    0.000000   20.459230    ( 0.0000,  0.0000,  0.0000)
  55 Li     8.727473    1.747473   22.226510    ( 0.0000,  0.0000,  0.0000)
  56 Li     6.980000    3.490000   10.000000    ( 0.0000,  0.0000,  0.0000)
  57 Li     8.725000    5.235000   11.745000    ( 0.0000,  0.0000,  0.0000)
  58 Li     6.980000    3.490000   13.490000    ( 0.0000,  0.0000,  0.0000)
  59 Li     8.725000    5.235000   15.235000    ( 0.0000,  0.0000,  0.0000)
  60 Li     6.980000    3.490992   16.979469    ( 0.0000,  0.0000,  0.0000)
  61 Li     8.725139    5.235000   18.723715    ( 0.0000,  0.0000,  0.0000)
  62 Li     6.980000    3.491073   20.452360    ( 0.0000,  0.0000,  0.0000)
  63 Li     8.750659    5.235000   22.241718    ( 0.0000,  0.0000,  0.0000)
  64 Li     6.980000    6.980000   10.000000    ( 0.0000,  0.0000,  0.0000)
  65 Li     8.725000    8.725000   11.745000    ( 0.0000,  0.0000,  0.0000)
  66 Li     6.980000    6.980000   13.490000    ( 0.0000,  0.0000,  0.0000)
  67 Li     8.725000    8.725000   15.235000    ( 0.0000,  0.0000,  0.0000)
  68 Li     6.980000    6.979008   16.979469    ( 0.0000,  0.0000,  0.0000)
  69 Li     8.725012    8.724988   18.721853    ( 0.0000,  0.0000,  0.0000)
  70 Li     6.980000    6.978927   20.452360    ( 0.0000,  0.0000,  0.0000)
  71 Li     8.727473    8.722527   22.226510    ( 0.0000,  0.0000,  0.0000)
  72 Li     1.744999    5.235000   24.479094    ( 0.0000,  0.0000,  0.0000)

Unit cell:
           periodic     x           y           z      points  spacing
  1. axis:    yes   10.470000    0.000000    0.000000    35     0.2991
  2. axis:    yes    0.000000   10.470000    0.000000    35     0.2991
  3. axis:    no     0.000000    0.000000   32.215000   108     0.2983

  Lengths:  10.470000  10.470000  32.215000
  Angles:   90.000000  90.000000  90.000000

Effective grid spacing dv^(1/3) = 0.2989

     iter     time        total  log10-change:
                         energy   eigst   dens
iter:   1 23:54:47  -131.333010   -2.37
iter:   2 23:54:49  -131.591714   -1.98  -1.39
iter:   3 23:54:52  -131.162369   -2.92  -1.16
iter:   4 23:54:55  -131.159705   -3.60  -2.12
iter:   5 23:54:57  -131.156380c  -3.94  -2.37
iter:   6 23:55:00  -131.157300c  -4.35  -2.60
iter:   7 23:55:02  -131.157003c  -5.05  -2.61
iter:   8 23:55:05  -131.156635c  -5.35c -2.96
iter:   9 23:55:07  -131.156631c  -5.64c -3.08
iter:  10 23:55:10  -131.156779c  -5.71c -3.20
iter:  11 23:55:12  -131.156694c  -5.86c -3.33
iter:  12 23:55:15  -131.156753c  -6.17c -3.42
iter:  13 23:55:17  -131.156750c  -6.36c -3.52
iter:  14 23:55:19  -131.156674c  -6.31c -3.57
iter:  15 23:55:22  -131.156650c  -6.67c -3.82
iter:  16 23:55:24  -131.156666c  -6.67c -3.90
iter:  17 23:55:27  -131.156679c  -6.78c -3.94
iter:  18 23:55:29  -131.156684c  -7.03c -4.06c

Converged after 18 iterations.

Dipole moment: (-0.666431, 0.000000, 0.406234) |e|*Ang

Energy contributions relative to reference atoms: (reference = -14803.510878)

Kinetic:       +101.751327
Potential:      -91.615887
External:        +0.000000
XC:            -140.186940
Entropy (-ST):   -1.237608
Local:           -0.486380
SIC:             +0.000000
--------------------------
Free energy:   -131.775488
Extrapolated:  -131.156684

 Band  Eigenvalues  Occupancy
    0     -4.71850    2.00000
    1     -4.40526    2.00000
    2     -4.20150    2.00000
    3     -4.19566    2.00000
    4     -3.89366    2.00000
    5     -3.88023    2.00000
    6     -3.82874    2.00000
    7     -3.68241    2.00000
    8     -3.36919    2.00000
    9     -3.32201    2.00000
   10     -3.30409    2.00000
   11     -3.15269    2.00000
   12     -3.14568    2.00000
   13     -3.07625    2.00000
   14     -2.85436    2.00000
   15     -2.84013    2.00000
   16     -2.78991    2.00000
   17     -2.65506    1.99999
   18     -2.65260    1.99999
   19     -2.59187    1.99998
   20     -2.54033    1.99997
   21     -2.34074    1.99978
   22     -2.33859    1.99978
   23     -2.31224    1.99971
   24     -2.29228    1.99965
   25     -2.22282    1.99930
   26     -2.02603    1.99498
   27     -1.78736    1.94676
   28     -1.76958    1.93672
   29     -1.74453    1.91944
   30     -1.73835    1.91452
   31     -1.65326    1.81068
   32     -1.63709    1.78110
   33     -1.62324    1.75261
   34     -1.55023    1.54686
   35     -1.54632    1.53300
   36     -1.39186    0.82387
   37     -1.35011    0.63148
   38     -1.30542    0.45577
   39     -1.30277    0.44650
   40     -1.15683    0.12521
   41     -1.14565    0.11271
   42     -1.13753    0.10438
   43     -1.04937    0.04459
   44     -1.04382    0.04223
   45     -1.01736    0.03257
   46     -1.00296    0.02827
   47     -0.95492    0.01758

Fermi level: -1.42745

Gap: 0.154 eV
Transition (v -> c):
  (s=0, k=0, n=35, [0.25, 0.25, 0.00]) -> (s=0, k=0, n=36, [0.25, 0.25, 0.00])
No difference between direct/indirect transitions

Forces in eV/Ang:
  0 Li    0.00359    0.00000   -0.02878
  1 Li    0.00000   -0.00168    0.05762
  2 Li    0.00321    0.00000    0.02107
  3 Li    0.00000    0.00153    0.00665
  4 Li    0.00579    0.00000    0.00191
  5 Li   -0.00000    0.01314   -0.00127
  6 Li    0.01030    0.00000   -0.03013
  7 Li   -0.00000    0.07449    0.07363
  8 Li   -0.00006   -0.00006   -0.03275
  9 Li    0.00000    0.00000    0.06675
 10 Li    0.00001    0.00000    0.00539
 11 Li    0.00000    0.00000    0.01636
 12 Li   -0.00289   -0.00289   -0.01501
 13 Li    0.00000    0.00000   -0.06775
 14 Li   -0.06301   -0.06301   -0.08158
 15 Li    0.00000    0.00000   -0.05029
 16 Li   -0.00006    0.00006   -0.03275
 17 Li    0.00000    0.00168    0.05762
 18 Li    0.00001   -0.00000    0.00539
 19 Li    0.00000   -0.00153    0.00665
 20 Li   -0.00289    0.00289   -0.01501
 21 Li   -0.00000   -0.01314   -0.00127
 22 Li   -0.06301    0.06301   -0.08158
 23 Li   -0.00000   -0.07449    0.07363
 24 Li   -0.00358    0.00000   -0.02879
 25 Li   -0.00078    0.00078    0.05695
 26 Li   -0.00322    0.00000    0.02107
 27 Li    0.00129   -0.00129   -0.00230
 28 Li   -0.00579    0.00000    0.00191
 29 Li    0.00308   -0.00308   -0.01899
 30 Li   -0.01030    0.00000   -0.03013
 31 Li   -0.00134    0.00133    0.03023
 32 Li    0.00006   -0.00006   -0.03275
 33 Li    0.00168    0.00000    0.05763
 34 Li   -0.00001    0.00001    0.00539
 35 Li   -0.00153    0.00000    0.00665
 36 Li    0.00289   -0.00289   -0.01501
 37 Li   -0.01314    0.00000   -0.00127
 38 Li    0.06301   -0.06301   -0.08158
 39 Li   -0.07449    0.00000    0.07363
 40 Li    0.00006    0.00006   -0.03275
 41 Li   -0.00078   -0.00078    0.05695
 42 Li   -0.00001   -0.00001    0.00539
 43 Li    0.00129    0.00129   -0.00230
 44 Li    0.00289    0.00289   -0.01501
 45 Li    0.00308    0.00308   -0.01899
 46 Li    0.06301    0.06301   -0.08158
 47 Li   -0.00134   -0.00133    0.03023
 48 Li   -0.00000    0.00000   -0.03208
 49 Li    0.00078    0.00078    0.05695
 50 Li    0.00000    0.00000    0.01726
 51 Li   -0.00129   -0.00129   -0.00230
 52 Li    0.00000    0.00000   -0.00456
 53 Li   -0.00308   -0.00309   -0.01899
 54 Li    0.00000    0.00000   -0.02781
 55 Li    0.00134    0.00133    0.03023
 56 Li    0.00000    0.00359   -0.02879
 57 Li   -0.00168    0.00000    0.05762
 58 Li   -0.00000    0.00322    0.02107
 59 Li    0.00153    0.00000    0.00665
 60 Li   -0.00000    0.00579    0.00191
 61 Li    0.01313    0.00000   -0.00127
 62 Li   -0.00000    0.01030   -0.03013
 63 Li    0.07449    0.00000    0.07363
 64 Li    0.00000   -0.00359   -0.02879
 65 Li    0.00078   -0.00078    0.05695
 66 Li   -0.00000   -0.00322    0.02107
 67 Li   -0.00129    0.00129   -0.00230
 68 Li   -0.00000   -0.00579    0.00191
 69 Li   -0.00308    0.00309   -0.01899
 70 Li   -0.00000   -0.01030   -0.03013
 71 Li    0.00134   -0.00133    0.03023
 72 Li    0.00000    0.00000   -0.08981

System changes: positions 

Initializing position-dependent things.

Density initialized from wave functions
       .-------------------------.  
      /|                         |  
     / |                         |  
    /  |                         |  
   /   |                         |  
  /    |                         |  
 *     |                         |  
 |     |                         |  
 |     |                         |  
 |     |                         |  
 |     |                         |  
 |     |                         |  
 |     |                         |  
 |     |LiLi       Li       Li   |  
 |     |                         |  
 |     |         Li       Li     |  
 |     |Li                       |  
 |    Li      LLi     LiLi     Li|  
 |     |  Li       Li       Li   |  
 |     |    Li      Li       Li  |  
 |     |Li       Li       Li     |  
 Li    |  Li  Li  Li  Li       Li|  
 |    Li  Li   Li  Li   Li  Li   |  
 |     |    Li      Li       Li  |  
 |     |Li       Li       Li     |  
 Li  Li|  Li  Li  Li  Li         |  
 |    Li  Li   Li  Li   Li  Li   |  
 | Li  |    Li      Li           |  
 |     |Li       Li       Li     |  
 Li    |  Li      Li             |  
 |   LLi      LLi     LiLi       |  
 |     |                         |  
 | Li  |    Li      Li           |  
 |     |                         |  
 Li    |  Li      Li             |  
 |     |                         |  
 |     |                         |  
 |     |                         |  
 |     |                         |  
 |     |                         |  
 |     .-------------------------.  
 |    /                         /   
 |   /                         /    
 |  /                         /     
 | /                         /      
 |/                         /       
 *-------------------------*        

Atomic positions and initial magnetic moments

Positions:
   0 Li     0.000000    0.000000   10.000000    ( 0.0000,  0.0000,  0.0000)
   1 Li     1.745000    1.745000   11.745000    ( 0.0000,  0.0000,  0.0000)
   2 Li     0.000000    0.000000   13.490000    ( 0.0000,  0.0000,  0.0000)
   3 Li     1.745000    1.745000   15.235000    ( 0.0000,  0.0000,  0.0000)
   4 Li     0.001176   -0.000000   16.979487    ( 0.0000,  0.0000,  0.0000)
   5 Li     1.745000    1.745448   18.723623    ( 0.0000,  0.0000,  0.0000)
   6 Li     0.001365   -0.000000   20.450760    ( 0.0000,  0.0000,  0.0000)
   7 Li     1.745000    1.773678   22.244781    ( 0.0000,  0.0000,  0.0000)
   8 Li     0.000000    3.490000   10.000000    ( 0.0000,  0.0000,  0.0000)
   9 Li     1.745000    5.235000   11.745000    ( 0.0000,  0.0000,  0.0000)
  10 Li     0.000000    3.490000   13.490000    ( 0.0000,  0.0000,  0.0000)
  11 Li     1.745000    5.235000   15.235000    ( 0.0000,  0.0000,  0.0000)
  12 Li    -0.000328    3.489672   16.977643    ( 0.0000,  0.0000,  0.0000)
  13 Li     1.745000    5.235000   18.711070    ( 0.0000,  0.0000,  0.0000)
  14 Li    -0.002666    3.487334   20.463107    ( 0.0000,  0.0000,  0.0000)
  15 Li     1.745000    5.235000   21.817358    ( 0.0000,  0.0000,  0.0000)
  16 Li     0.000000    6.980000   10.000000    ( 0.0000,  0.0000,  0.0000)
  17 Li     1.745000    8.725000   11.745000    ( 0.0000,  0.0000,  0.0000)
  18 Li     0.000000    6.980000   13.490000    ( 0.0000,  0.0000,  0.0000)
  19 Li     1.745000    8.725000   15.235000    ( 0.0000,  0.0000,  0.0000)
  20 Li    -0.000328    6.980328   16.977643    ( 0.0000,  0.0000,  0.0000)
  21 Li     1.745000    8.724552   18.723623    ( 0.0000,  0.0000,  0.0000)
  22 Li    -0.002666    6.982666   20.463107    ( 0.0000,  0.0000,  0.0000)
  23 Li     1.745000    8.696322   22.244781    ( 0.0000,  0.0000,  0.0000)
  24 Li     3.490000    0.000000   10.000000    ( 0.0000,  0.0000,  0.0000)
  25 Li     5.235000    1.745000   11.745000    ( 0.0000,  0.0000,  0.0000)
  26 Li     3.490000    0.000000   13.490000    ( 0.0000,  0.0000,  0.0000)
  27 Li     5.235000    1.745000   15.235000    ( 0.0000,  0.0000,  0.0000)
  28 Li     3.488824   -0.000000   16.979487    ( 0.0000,  0.0000,  0.0000)
  29 Li     5.235058    1.744943   18.721258    ( 0.0000,  0.0000,  0.0000)
  30 Li     3.488636    0.000000   20.450760    ( 0.0000,  0.0000,  0.0000)
  31 Li     5.232369    1.747631   22.227796    ( 0.0000,  0.0000,  0.0000)
  32 Li     3.490000    3.490000   10.000000    ( 0.0000,  0.0000,  0.0000)
  33 Li     5.235000    5.235000   11.745000    ( 0.0000,  0.0000,  0.0000)
  34 Li     3.490000    3.490000   13.490000    ( 0.0000,  0.0000,  0.0000)
  35 Li     5.235000    5.235000   15.235000    ( 0.0000,  0.0000,  0.0000)
  36 Li     3.490328    3.489672   16.977643    ( 0.0000,  0.0000,  0.0000)
  37 Li     5.234553    5.235000   18.723623    ( 0.0000,  0.0000,  0.0000)
  38 Li     3.492666    3.487334   20.463107    ( 0.0000,  0.0000,  0.0000)
  39 Li     5.206322    5.235000   22.244781    ( 0.0000,  0.0000,  0.0000)
  40 Li     3.490000    6.980000   10.000000    ( 0.0000,  0.0000,  0.0000)
  41 Li     5.235000    8.725000   11.745000    ( 0.0000,  0.0000,  0.0000)
  42 Li     3.490000    6.980000   13.490000    ( 0.0000,  0.0000,  0.0000)
  43 Li     5.235000    8.725000   15.235000    ( 0.0000,  0.0000,  0.0000)
  44 Li     3.490328    6.980328   16.977643    ( 0.0000,  0.0000,  0.0000)
  45 Li     5.235058    8.725057   18.721258    ( 0.0000,  0.0000,  0.0000)
  46 Li     3.492666    6.982666   20.463107    ( 0.0000,  0.0000,  0.0000)
  47 Li     5.232369    8.722369   22.227796    ( 0.0000,  0.0000,  0.0000)
  48 Li     6.980000    0.000000   10.000000    ( 0.0000,  0.0000,  0.0000)
[...]
 34 Li   -0.00154    0.00155    0.00632
 35 Li   -0.00924    0.00000   -0.03290
 36 Li    0.00375   -0.00376    0.01093
 37 Li    0.00628    0.00000    0.00973
 38 Li    0.00205   -0.00206   -0.01916
 39 Li    0.00257    0.00000   -0.02128
 40 Li    0.00076    0.00074   -0.03389
 41 Li   -0.00194   -0.00196    0.05839
 42 Li   -0.00154   -0.00155    0.00632
 43 Li   -0.00493   -0.00492   -0.04895
 44 Li    0.00375    0.00376    0.01093
 45 Li    0.00476    0.00477    0.00610
 46 Li    0.00205    0.00206   -0.01916
 47 Li   -0.00709   -0.00708   -0.00619
 48 Li   -0.00002    0.00000   -0.02995
 49 Li    0.00195    0.00195    0.05839
 50 Li    0.00001    0.00000    0.00168
 51 Li    0.00494    0.00492   -0.04895
 52 Li    0.00001    0.00000    0.05705
 53 Li   -0.00476   -0.00477    0.00610
 54 Li    0.00000    0.00000    0.01288
 55 Li    0.00707    0.00708   -0.00619
 56 Li   -0.00001    0.00427   -0.02937
 57 Li   -0.00138    0.00000    0.06017
 58 Li   -0.00000   -0.00011    0.03057
 59 Li    0.00924    0.00000   -0.03290
 60 Li    0.00000   -0.01482    0.00994
 61 Li   -0.00629    0.00000    0.00974
 62 Li    0.00000   -0.00269   -0.00903
 63 Li   -0.00257    0.00000   -0.02127
 64 Li   -0.00001   -0.00427   -0.02937
 65 Li    0.00195   -0.00195    0.05839
 66 Li   -0.00000    0.00011    0.03057
 67 Li    0.00494   -0.00492   -0.04895
 68 Li    0.00000    0.01482    0.00994
 69 Li   -0.00476    0.00477    0.00610
 70 Li    0.00000    0.00269   -0.00903
 71 Li    0.00707   -0.00708   -0.00619
 72 Li   -0.00000    0.00000   -0.01044

System changes: positions 

Initializing position-dependent things.

Density initialized from wave functions
       .-------------------------.  
      /|                         |  
     / |                         |  
    /  |                         |  
   /   |                         |  
  /    |                         |  
 *     |                         |  
 |     |                         |  
 |     |                         |  
 |     |                         |  
 |     |                         |  
 |     |                         |  
 |     |                         |  
 |     |LiLi       Li       Li   |  
 |     |                         |  
 |     |        Li         Li    |  
 |     |Li                       |  
 |     Li     LLi     LiLi     Li|  
 |     |  Li       Li       Li   |  
 |     |    Li      Li       Li  |  
 |     |Li       Li       Li     |  
 Li    | Li   Li  Li  Li       Li|  
 |    Li  Li   Li  Li  Li   Li   |  
 |     |    Li      Li       Li  |  
 |     |Li       Li       Li     |  
 Li  Li|  Li  Li  Li  Li         |  
 |    Li  Li   Li  Li   Li  Li   |  
 | Li  |    Li      Li           |  
 |     |Li       Li       Li     |  
 Li    |  Li      Li             |  
 |   LLi      LLi     LiLi       |  
 |     |                         |  
 | Li  |    Li      Li           |  
 |     |                         |  
 Li    |  Li      Li             |  
 |     |                         |  
 |     |                         |  
 |     |                         |  
 |     |                         |  
 |     |                         |  
 |     .-------------------------.  
 |    /                         /   
 |   /                         /    
 |  /                         /     
 | /                         /      
 |/                         /       
 *-------------------------*        

Atomic positions and initial magnetic moments

Positions:
   0 Li     0.000000    0.000000   10.000000    ( 0.0000,  0.0000,  0.0000)
   1 Li     1.745000    1.745000   11.745000    ( 0.0000,  0.0000,  0.0000)
   2 Li     0.000000    0.000000   13.490000    ( 0.0000,  0.0000,  0.0000)
   3 Li     1.745000    1.745000   15.235000    ( 0.0000,  0.0000,  0.0000)
   4 Li     0.025947   -0.000000   16.946278    ( 0.0000,  0.0000,  0.0000)
   5 Li     1.744996    1.773280   18.642998    ( 0.0000,  0.0000,  0.0000)
   6 Li     0.070637   -0.000000   20.485721    ( 0.0000,  0.0000,  0.0000)
   7 Li     1.744990    2.137614   22.334148    ( 0.0000,  0.0000,  0.0000)
   8 Li     0.000000    3.490000   10.000000    ( 0.0000,  0.0000,  0.0000)
   9 Li     1.745000    5.235000   11.745000    ( 0.0000,  0.0000,  0.0000)
  10 Li     0.000000    3.490000   13.490000    ( 0.0000,  0.0000,  0.0000)
  11 Li     1.745000    5.235000   15.235000    ( 0.0000,  0.0000,  0.0000)
  12 Li    -0.027438    3.462550   16.914394    ( 0.0000,  0.0000,  0.0000)
  13 Li     1.744999    5.235000   18.521760    ( 0.0000,  0.0000,  0.0000)
  14 Li    -0.125187    3.364812   20.323139    ( 0.0000,  0.0000,  0.0000)
  15 Li     1.745007    5.235000   21.396958    ( 0.0000,  0.0000,  0.0000)
  16 Li     0.000000    6.980000   10.000000    ( 0.0000,  0.0000,  0.0000)
  17 Li     1.745000    8.725000   11.745000    ( 0.0000,  0.0000,  0.0000)
  18 Li     0.000000    6.980000   13.490000    ( 0.0000,  0.0000,  0.0000)
  19 Li     1.745000    8.725000   15.235000    ( 0.0000,  0.0000,  0.0000)
  20 Li    -0.027438    7.007450   16.914394    ( 0.0000,  0.0000,  0.0000)
  21 Li     1.744996    8.696720   18.642998    ( 0.0000,  0.0000,  0.0000)
  22 Li    -0.125187    7.105188   20.323139    ( 0.0000,  0.0000,  0.0000)
  23 Li     1.744990    8.332386   22.334148    ( 0.0000,  0.0000,  0.0000)
  24 Li     3.490000    0.000000   10.000000    ( 0.0000,  0.0000,  0.0000)
  25 Li     5.235000    1.745000   11.745000    ( 0.0000,  0.0000,  0.0000)
  26 Li     3.490000    0.000000   13.490000    ( 0.0000,  0.0000,  0.0000)
  27 Li     5.235000    1.745000   15.235000    ( 0.0000,  0.0000,  0.0000)
  28 Li     3.464057   -0.000000   16.946291    ( 0.0000,  0.0000,  0.0000)
  29 Li     5.307227    1.672778   18.619905    ( 0.0000,  0.0000,  0.0000)
  30 Li     3.419359   -0.000000   20.485723    ( 0.0000,  0.0000,  0.0000)
  31 Li     5.245340    1.734651   22.286368    ( 0.0000,  0.0000,  0.0000)
  32 Li     3.490000    3.490000   10.000000    ( 0.0000,  0.0000,  0.0000)
  33 Li     5.235000    5.235000   11.745000    ( 0.0000,  0.0000,  0.0000)
  34 Li     3.490000    3.490000   13.490000    ( 0.0000,  0.0000,  0.0000)
  35 Li     5.235000    5.235000   15.235000    ( 0.0000,  0.0000,  0.0000)
  36 Li     3.517430    3.462554   16.914394    ( 0.0000,  0.0000,  0.0000)
  37 Li     5.206706    5.235000   18.642977    ( 0.0000,  0.0000,  0.0000)
  38 Li     3.615179    3.364810   20.323135    ( 0.0000,  0.0000,  0.0000)
  39 Li     4.842394    5.235000   22.334151    ( 0.0000,  0.0000,  0.0000)
  40 Li     3.490000    6.980000   10.000000    ( 0.0000,  0.0000,  0.0000)
  41 Li     5.235000    8.725000   11.745000    ( 0.0000,  0.0000,  0.0000)
  42 Li     3.490000    6.980000   13.490000    ( 0.0000,  0.0000,  0.0000)
  43 Li     5.235000    8.725000   15.235000    ( 0.0000,  0.0000,  0.0000)
  44 Li     3.517430    7.007446   16.914394    ( 0.0000,  0.0000,  0.0000)
  45 Li     5.307227    8.797222   18.619905    ( 0.0000,  0.0000,  0.0000)
  46 Li     3.615179    7.105190   20.323135    ( 0.0000,  0.0000,  0.0000)
  47 Li     5.245340    8.735349   22.286368    ( 0.0000,  0.0000,  0.0000)
  48 Li     6.980000    0.000000   10.000000    ( 0.0000,  0.0000,  0.0000)
  49 Li     8.725000    1.745000   11.745000    ( 0.0000,  0.0000,  0.0000)
  50 Li     6.980000    0.000000   13.490000    ( 0.0000,  0.0000,  0.0000)
  51 Li     8.725000    1.745000   15.235000    ( 0.0000,  0.0000,  0.0000)
  52 Li     6.980005   -0.000000   16.810676    ( 0.0000,  0.0000,  0.0000)
  53 Li     8.652783    1.672766   18.619902    ( 0.0000,  0.0000,  0.0000)
  54 Li     6.980001   -0.000000   20.483372    ( 0.0000,  0.0000,  0.0000)
  55 Li     8.714647    1.734653   22.286370    ( 0.0000,  0.0000,  0.0000)
  56 Li     6.980000    3.490000   10.000000    ( 0.0000,  0.0000,  0.0000)
  57 Li     8.725000    5.235000   11.745000    ( 0.0000,  0.0000,  0.0000)
  58 Li     6.980000    3.490000   13.490000    ( 0.0000,  0.0000,  0.0000)
  59 Li     8.725000    5.235000   15.235000    ( 0.0000,  0.0000,  0.0000)
  60 Li     6.980003    3.515937   16.946283    ( 0.0000,  0.0000,  0.0000)
  61 Li     8.753282    5.235000   18.642982    ( 0.0000,  0.0000,  0.0000)
  62 Li     6.980002    3.560630   20.485711    ( 0.0000,  0.0000,  0.0000)
  63 Li     9.117621    5.235000   22.334155    ( 0.0000,  0.0000,  0.0000)
  64 Li     6.980000    6.980000   10.000000    ( 0.0000,  0.0000,  0.0000)
  65 Li     8.725000    8.725000   11.745000    ( 0.0000,  0.0000,  0.0000)
  66 Li     6.980000    6.980000   13.490000    ( 0.0000,  0.0000,  0.0000)
  67 Li     8.725000    8.725000   15.235000    ( 0.0000,  0.0000,  0.0000)
  68 Li     6.980003    6.954063   16.946283    ( 0.0000,  0.0000,  0.0000)
  69 Li     8.652783    8.797234   18.619902    ( 0.0000,  0.0000,  0.0000)
  70 Li     6.980002    6.909370   20.485711    ( 0.0000,  0.0000,  0.0000)
  71 Li     8.714647    8.735347   22.286370    ( 0.0000,  0.0000,  0.0000)
  72 Li     1.744999    5.235000   23.980654    ( 0.0000,  0.0000,  0.0000)

Unit cell:
           periodic     x           y           z      points  spacing
  1. axis:    yes   10.470000    0.000000    0.000000    35     0.2991
  2. axis:    yes    0.000000   10.470000    0.000000    35     0.2991
  3. axis:    no     0.000000    0.000000   32.215000   108     0.2983

  Lengths:  10.470000  10.470000  32.215000
  Angles:   90.000000  90.000000  90.000000

Effective grid spacing dv^(1/3) = 0.2989

     iter     time        total  log10-change:
                         energy   eigst   dens
iter:   1 00:13:54  -131.422080   -2.98
iter:   2 00:13:56  -131.564982   -2.23  -1.55
iter:   3 00:13:59  -131.351828   -3.25  -1.32
iter:   4 00:14:02  -131.354025   -3.46  -2.38
iter:   5 00:14:04  -131.352199c  -4.34  -2.32
iter:   6 00:14:07  -131.351934c  -5.10  -2.83
iter:   7 00:14:10  -131.351720c  -5.42c -3.05
iter:   8 00:14:12  -131.351718c  -5.99c -3.41
iter:   9 00:14:14  -131.351750c  -6.04c -3.49
iter:  10 00:14:17  -131.351768c  -6.42c -3.54
iter:  11 00:14:20  -131.351836c  -6.58c -3.63
iter:  12 00:14:23  -131.351840c  -6.89c -3.86
iter:  13 00:14:26  -131.351823c  -6.78c -3.92
iter:  14 00:14:29  -131.351832c  -7.17c -4.01c

Converged after 14 iterations.

Dipole moment: (2.864548, 0.000000, 0.277839) |e|*Ang

Energy contributions relative to reference atoms: (reference = -14803.510878)

Kinetic:       +102.309714
Potential:      -91.986283
External:        +0.000000
XC:            -140.578628
Entropy (-ST):   -1.215592
Local:           -0.488839
SIC:             +0.000000
--------------------------
Free energy:   -131.959628
Extrapolated:  -131.351832

 Band  Eigenvalues  Occupancy
    0     -4.74366    2.00000
    1     -4.41343    2.00000
    2     -4.23191    2.00000
    3     -4.21811    2.00000
    4     -3.91528    2.00000
    5     -3.87625    2.00000
    6     -3.85080    2.00000
    7     -3.70941    2.00000
    8     -3.38838    2.00000
    9     -3.35147    2.00000
   10     -3.31195    2.00000
   11     -3.18639    2.00000
   12     -3.16829    2.00000
   13     -3.11315    2.00000
   14     -2.86780    2.00000
   15     -2.83192    2.00000
   16     -2.81302    2.00000
   17     -2.68855    1.99999
   18     -2.67959    1.99999
   19     -2.64061    1.99999
   20     -2.55526    1.99997
   21     -2.36483    1.99981
   22     -2.34972    1.99977
   23     -2.32216    1.99970
   24     -2.28676    1.99957
   25     -2.24657    1.99936
   26     -2.05257    1.99558
   27     -1.81289    1.95250
   28     -1.80906    1.95070
   29     -1.77411    1.93078
   30     -1.75178    1.91421
   31     -1.67909    1.83030
   32     -1.67633    1.82597
   33     -1.61914    1.71109
   34     -1.58324    1.61059
   35     -1.56752    1.55892
   36     -1.38631    0.73194
   37     -1.34482    0.55198
   38     -1.31242    0.43222
   39     -1.30499    0.40757
   40     -1.19586    0.15828
   41     -1.17099    0.12562
   42     -1.16985    0.12428
   43     -1.08394    0.05460
   44     -1.07324    0.04919
   45     -1.06621    0.04593
   46     -0.99571    0.02296
   47     -0.96315    0.01663

Fermi level: -1.44127

Gap: 0.181 eV
Transition (v -> c):
  (s=0, k=0, n=35, [0.25, 0.25, 0.00]) -> (s=0, k=0, n=36, [0.25, 0.25, 0.00])
No difference between direct/indirect transitions

Forces in eV/Ang:
  0 Li    0.00416    0.00000   -0.02939
  1 Li   -0.00001   -0.00129    0.06020
  2 Li   -0.00004    0.00000    0.02999
  3 Li   -0.00001    0.00826   -0.03099
  4 Li   -0.01209    0.00000    0.00630
  5 Li   -0.00001   -0.00629    0.01107
  6 Li   -0.00303    0.00000   -0.01292
  7 Li    0.00000   -0.00280   -0.01756
  8 Li   -0.00077   -0.00077   -0.03377
  9 Li    0.00002    0.00000    0.06272
 10 Li    0.00156    0.00153    0.00608
 11 Li   -0.00001    0.00000   -0.00610
 12 Li   -0.00308   -0.00309    0.01011
 13 Li   -0.00001    0.00000   -0.01806
 14 Li   -0.00453   -0.00452   -0.02288
 15 Li    0.00000    0.00000   -0.04653
 16 Li   -0.00077    0.00077   -0.03377
 17 Li   -0.00001    0.00129    0.06020
 18 Li    0.00156   -0.00153    0.00608
 19 Li   -0.00001   -0.00826   -0.03099
 20 Li   -0.00308    0.00309    0.01011
 21 Li   -0.00001    0.00629    0.01107
 22 Li   -0.00453    0.00452   -0.02288
 23 Li    0.00000    0.00280   -0.01756
 24 Li   -0.00415    0.00000   -0.02939
 25 Li   -0.00189    0.00191    0.05856
 26 Li    0.00004    0.00000    0.02998
 27 Li   -0.00312    0.00311   -0.04736
 28 Li    0.01209    0.00000    0.00632
 29 Li    0.00076   -0.00076    0.01317
 30 Li    0.00303    0.00000   -0.01293
 31 Li   -0.00735    0.00734   -0.00439
 32 Li    0.00079   -0.00077   -0.03378
 33 Li    0.00128    0.00000    0.06022
 34 Li   -0.00154    0.00156    0.00609
 35 Li   -0.00827    0.00000   -0.03098
 36 Li    0.00308   -0.00309    0.01011
 37 Li    0.00628    0.00000    0.01105
 38 Li    0.00451   -0.00453   -0.02288
 39 Li    0.00280    0.00000   -0.01757
 40 Li    0.00079    0.00077   -0.03378
 41 Li   -0.00189   -0.00191    0.05856
 42 Li   -0.00154   -0.00156    0.00609
 43 Li   -0.00312   -0.00311   -0.04736
 44 Li    0.00308    0.00309    0.01011
 45 Li    0.00076    0.00076    0.01317
 46 Li    0.00451    0.00453   -0.02288
 47 Li   -0.00735   -0.00734   -0.00439
 48 Li   -0.00002    0.00000   -0.03017
 49 Li    0.00189    0.00190    0.05856
 50 Li    0.00001    0.00000    0.00275
 51 Li    0.00313    0.00311   -0.04736
 52 Li    0.00001    0.00000    0.04000
 53 Li   -0.00075   -0.00076    0.01317
 54 Li    0.00000    0.00000    0.00813
 55 Li    0.00733    0.00734   -0.00439
 56 Li   -0.00001    0.00414   -0.02940
 57 Li   -0.00129    0.00000    0.06020
 58 Li   -0.00000   -0.00003    0.03000
 59 Li    0.00827    0.00000   -0.03098
 60 Li    0.00000   -0.01210    0.00631
 61 Li   -0.00628    0.00000    0.01106
 62 Li   -0.00000   -0.00304   -0.01293
 63 Li   -0.00280    0.00000   -0.01755
 64 Li   -0.00001   -0.00414   -0.02940
 65 Li    0.00189   -0.00190    0.05856
 66 Li   -0.00000    0.00003    0.03000
 67 Li    0.00313   -0.00311   -0.04736
 68 Li    0.00000    0.01210    0.00631
 69 Li   -0.00075    0.00076    0.01317
 70 Li   -0.00000    0.00304   -0.01293
 71 Li    0.00733   -0.00734   -0.00439
 72 Li   -0.00000    0.00000    0.00050

Timing:                                      incl.     excl.
-------------------------------------------------------------------
Density initialized from wave functions:    15.553    15.497   1.1% |
 Symmetrize density:                         0.056     0.056   0.0% |
Forces:                                     81.309    81.309   5.5% |-|
Hamiltonian:                                34.853     0.066   0.0% |
 Atomic:                                    18.717     0.072   0.0% |
  XC Correction:                            18.645    18.645   1.3% ||
 Calculate atomic Hamiltonians:             11.285    11.285   0.8% |
 Communicate:                                0.000     0.000   0.0% |
 Initialize Hamiltonian:                     0.001     0.001   0.0% |
 Poisson:                                    0.068     0.068   0.0% |
 XC 3D grid:                                 4.718     4.718   0.3% |
LCAO initialization:                         7.032     0.011   0.0% |
 LCAO eigensolver:                           0.392     0.000   0.0% |
  Calculate projections:                     0.002     0.002   0.0% |
  DenseAtomicCorrection:                     0.023     0.023   0.0% |
  Distribute overlap matrix:                 0.000     0.000   0.0% |
  Orbital Layouts:                           0.042     0.042   0.0% |
  Potential matrix:                          0.320     0.320   0.0% |
  Sum over cells:                            0.004     0.004   0.0% |
 LCAO to grid:                               6.014     6.014   0.4% |
 Set positions (LCAO WFS):                   0.615     0.159   0.0% |
  Basic WFS set positions:                   0.002     0.002   0.0% |
  Basis functions set positions:             0.000     0.000   0.0% |
  P tci:                                     0.272     0.272   0.0% |
  ST tci:                                    0.142     0.142   0.0% |
  mktci:                                     0.040     0.040   0.0% |
PWDescriptor:                                0.007     0.007   0.0% |
Redistribute:                                0.045     0.045   0.0% |
SCF-cycle:                                1299.342     0.251   0.0% |
 Davidson:                                 506.619   104.495   7.1% |--|
  Apply H:                                  85.703    84.718   5.8% |-|
   HMM T:                                    0.985     0.985   0.1% |
  Subspace diag:                            97.636     0.113   0.0% |
   calc_h_matrix:                           89.682     6.033   0.4% |
    Apply H:                                83.650    82.586   5.6% |-|
     HMM T:                                  1.064     1.064   0.1% |
   diagonalize:                              0.380     0.380   0.0% |
   rotate_psi:                               7.461     7.461   0.5% |
  calc. matrices:                          200.860    29.552   2.0% ||
   Apply H:                                171.308   169.389  11.5% |----|
    HMM T:                                   1.919     1.919   0.1% |
  diagonalize:                               2.829     2.829   0.2% |
  rotate_psi:                               15.095    15.095   1.0% |
 Density:                                  214.443     0.006   0.0% |
  Atomic density matrices:                   1.117     1.117   0.1% |
  Mix:                                     169.515   169.515  11.5% |----|
  Multipole moments:                         0.297     0.297   0.0% |
  Pseudo density:                           43.508    42.581   2.9% ||
   Symmetrize density:                       0.928     0.928   0.1% |
 Hamiltonian:                              575.872     0.933   0.1% |
  Atomic:                                  311.053     1.169   0.1% |
   XC Correction:                          309.884   309.884  21.0% |-------|
  Calculate atomic Hamiltonians:           189.208   189.208  12.8% |----|
  Communicate:                               0.002     0.002   0.0% |
  Poisson:                                   0.620     0.620   0.0% |
  XC 3D grid:                               74.055    74.055   5.0% |-|
 Orthonormalize:                             2.157     0.004   0.0% |
  calc_s_matrix:                             0.205     0.205   0.0% |
  inverse-cholesky:                          0.017     0.017   0.0% |
  projections:                               1.619     1.619   0.1% |
  rotate_psi_s:                              0.311     0.311   0.0% |
Set symmetry:                                0.001     0.001   0.0% |
Other:                                      34.452    34.452   2.3% ||
-------------------------------------------------------------------
Total:                                              1472.594 100.0%

Memory usage: 4.13 GiB
Date: Tue Nov 25 00:14:31 2025
