
  ___ ___ ___ _ _ _  
 |   |   |_  | | | | 
 | | | | | . | | | | 
 |__ |  _|___|_____|  25.7.0
 |___|_|             

User:   tew@Mathuss-MacBook-Air-357.local
Date:   Mon Nov 24 15:23:11 2025
Arch:   arm64
Pid:    76608
CWD:    /Users/tew/Documents/Project/GitHub/chem-com
Python: 3.13.5
gpaw:   /Users/tew/Documents/Project/GitHub/chem-com/.venv/lib/python3.13/site-packages/gpaw
_gpaw:  /Users/tew/Documents/Project/GitHub/chem-com/.venv/lib/python3.13/site-packages/
        _gpaw.cpython-313-darwin.so
ase:    /Users/tew/Documents/Project/GitHub/chem-com/.venv/lib/python3.13/site-packages/ase (version 3.26.0)
numpy:  /Users/tew/Documents/Project/GitHub/chem-com/.venv/lib/python3.13/site-packages/numpy (version 2.3.5)
scipy:  /Users/tew/Documents/Project/GitHub/chem-com/.venv/lib/python3.13/site-packages/scipy (version 1.16.3)
libxc:  2.x.y
units:  Angstrom and eV
cores: 1
OpenMP: False
OMP_NUM_THREADS: 1

Input parameters:
  convergence: {density: 0.0001,
                eigenstates: 5e-06}
  kpts: [2 2 1]
  mode: {ecut: 200.0,
         name: pw}
  xc: PBE

System changes: positions, numbers, cell, pbc, initial_charges, initial_magmoms 

Initialize ...

species:
  Li:
    name: Lithium
    id: 830b4218f175192f93f959cfc0aad614
    Z: 3.0
    valence: 1
    core: 2
    charge: 0.0
    file: /Users/tew/Documents/Project/GitHub/chem-com/.venv/lib/python3.13/site-packages/gpaw_data/setups/Li.PBE.gz
    compensation charges: {type: gauss,
                           rc: 0.33,
                           lmax: 2}
    cutoffs: {filter: 1.91,
              core: 2.55}
    projectors:
      #              energy  rcut
      - 2s(1.00)    -2.874   1.058
      - 2p(0.00)    -1.090   1.058
      -  s          24.337   1.058
  
    # Using partial waves for Li as LCAO basis

Reference energy: -14803.510878  # eV

Spin-paired calculation

Convergence criteria:
 Maximum [total energy] change in last 3 cyles: 0.0005 eV / valence electron
 Maximum integral of absolute [dens]ity change: 0.0001 electrons / valence electron
 Maximum integral of absolute [eigenst]ate change: 5e-06 eV^2 / valence electron
 Maximum number of scf [iter]ations: 333
 (Square brackets indicate name in SCF output, whereas a 'c' in
 the SCF output indicates the quantity has converged.)

Symmetries present (total): 2

  ( 1  0  0)  ( 1 -1  0)
  ( 0  1  0)  ( 0 -1  0)
  ( 0  0  1)  ( 0  0  1)
Note: your k-points are not as symmetric as your crystal!

4 k-points: 2 x 2 x 1 Monkhorst-Pack grid
2 k-points in the irreducible part of the Brillouin zone
       k-points in crystal coordinates                weights
   0:     0.25000000   -0.25000000    0.00000000          2/4
   1:     0.25000000    0.25000000    0.00000000          2/4

Wave functions: Plane wave expansion
  Cutoff energy: 200.000 eV
  Number of coefficients (min, max): 33010, 33019
  Pulay-stress correction: 0.000000 eV/Ang^3 (de/decut=0.000000)
  Using Numpy's FFT
  ScaLapack parameters: grid=1x1, blocksize=None
  Wavefunction extrapolation:
    Improved wavefunction reuse through dual PAW basis 

Occupation numbers: Fermi-Dirac:
  width: 0.1000  # eV
 

Eigensolver
   Davidson(niter=2) 

Densities:
  Coarse grid: 49*49*90 grid
  Fine grid: 98*98*180 grid
  Total Charge: 0.000000 

Density mixing:
  Method: separate
  Backend: pulay
  Linear mixing parameter: 0.05
  old densities: 5
  Damping of long wavelength oscillations: 50 

Hamiltonian:
  XC and Coulomb potentials evaluated on a 98*98*180 grid
  Using the PBE Exchange-Correlation functional
  External potential:
    NoExternalPotential
 

XC parameters: PBE with 2 nearest neighbor stencil

Memory estimate:
  Process memory now: 2373.62 MiB
  Calculator: 211.72 MiB
    Density: 94.25 MiB
      Arrays: 42.86 MiB
      Localized functions: 34.90 MiB
      Mixer: 16.49 MiB
    Hamiltonian: 28.74 MiB
      Arrays: 28.03 MiB
      XC: 0.00 MiB
      Poisson: 0.00 MiB
      vbar: 0.71 MiB
    Wavefunctions: 88.74 MiB
      Arrays psit_nG: 48.37 MiB
      Eigensolver: 27.06 MiB
      Projections: 0.53 MiB
      Projectors: 3.53 MiB
      PW-descriptor: 9.25 MiB

Total number of cores used: 1

Number of atoms: 73
Number of atomic orbitals: 292
Number of bands in calculation: 48
Number of valence electrons: 73
Bands to converge: occupied

... initialized

Initializing position-dependent things.

Density initialized from atomic densities
Creating initial wave functions:
  48 bands from LCAO basis set

                                                                       
                                                                       
                                                                       
                                                                       
                                                                       
                                                                       
                                                                       
                      Li       Li          Li          Li              
                                                                       
                      LiLi         LiiLi       LiiLi          Li       
                                                                       
                Li          LiiLi       LiiLi        LiLi              
              Li          Li          Li          Li          Li       
                      LiLi         Lii         Lii                     
       Li          LiLi        LiLi        LiLi        Li              
                Li          Lii         Lii          Li                
              Li        LiLi        LiLi        Li                     
                     Lii         LiLi        LiLi                      
       Li          Li          Li                                      
              LiLi        LiLi        LiLi                             
                                                                       
       Li          Li          Li                                      
                                                                       
                                                                       
                                                                       
                                                                       

Atomic positions and initial magnetic moments

Positions:
   0 Li     0.000000    0.000000   10.000000    ( 0.0000,  0.0000,  0.0000)
   1 Li     2.467803    1.424787   11.007476    ( 0.0000,  0.0000,  0.0000)
   2 Li     4.935605    2.849573   12.014952    ( 0.0000,  0.0000,  0.0000)
   3 Li     0.000000    0.000000   13.022429    ( 0.0000,  0.0000,  0.0000)
   4 Li     2.467803    1.424787   14.029905    ( 0.0000,  0.0000,  0.0000)
   5 Li     4.935605    2.849573   15.037381    ( 0.0000,  0.0000,  0.0000)
   6 Li     0.000000    0.000000   16.044857    ( 0.0000,  0.0000,  0.0000)
   7 Li     2.467803    1.424787   17.052334    ( 0.0000,  0.0000,  0.0000)
   8 Li     2.467803    4.274360   10.000000    ( 0.0000,  0.0000,  0.0000)
   9 Li     4.935605    5.699146   11.007476    ( 0.0000,  0.0000,  0.0000)
  10 Li     7.403408    7.123933   12.014952    ( 0.0000,  0.0000,  0.0000)
  11 Li     2.467803    4.274360   13.022429    ( 0.0000,  0.0000,  0.0000)
  12 Li     4.935605    5.699146   14.029905    ( 0.0000,  0.0000,  0.0000)
  13 Li     7.403408    7.123933   15.037381    ( 0.0000,  0.0000,  0.0000)
  14 Li     2.467803    4.274360   16.044857    ( 0.0000,  0.0000,  0.0000)
  15 Li     4.935605    5.699146   17.052334    ( 0.0000,  0.0000,  0.0000)
  16 Li     4.935605    8.548719   10.000000    ( 0.0000,  0.0000,  0.0000)
  17 Li     7.403408    9.973506   11.007476    ( 0.0000,  0.0000,  0.0000)
  18 Li     9.871211   11.398292   12.014952    ( 0.0000,  0.0000,  0.0000)
  19 Li     4.935605    8.548719   13.022429    ( 0.0000,  0.0000,  0.0000)
  20 Li     7.403408    9.973506   14.029905    ( 0.0000,  0.0000,  0.0000)
  21 Li     9.871211   11.398292   15.037381    ( 0.0000,  0.0000,  0.0000)
  22 Li     4.935605    8.548719   16.044857    ( 0.0000,  0.0000,  0.0000)
  23 Li     7.403408    9.973506   17.052334    ( 0.0000,  0.0000,  0.0000)
  24 Li     4.935605    0.000000   10.000000    ( 0.0000,  0.0000,  0.0000)
  25 Li     7.403408    1.424787   11.007476    ( 0.0000,  0.0000,  0.0000)
  26 Li     9.871211    2.849573   12.014952    ( 0.0000,  0.0000,  0.0000)
  27 Li     4.935605    0.000000   13.022429    ( 0.0000,  0.0000,  0.0000)
  28 Li     7.403408    1.424787   14.029905    ( 0.0000,  0.0000,  0.0000)
  29 Li     9.871211    2.849573   15.037381    ( 0.0000,  0.0000,  0.0000)
  30 Li     4.935605    0.000000   16.044857    ( 0.0000,  0.0000,  0.0000)
  31 Li     7.403408    1.424787   17.052334    ( 0.0000,  0.0000,  0.0000)
  32 Li     7.403408    4.274360   10.000000    ( 0.0000,  0.0000,  0.0000)
  33 Li     9.871211    5.699146   11.007476    ( 0.0000,  0.0000,  0.0000)
  34 Li    12.339013    7.123933   12.014952    ( 0.0000,  0.0000,  0.0000)
  35 Li     7.403408    4.274360   13.022429    ( 0.0000,  0.0000,  0.0000)
  36 Li     9.871211    5.699146   14.029905    ( 0.0000,  0.0000,  0.0000)
  37 Li    12.339013    7.123933   15.037381    ( 0.0000,  0.0000,  0.0000)
  38 Li     7.403408    4.274360   16.044857    ( 0.0000,  0.0000,  0.0000)
  39 Li     9.871211    5.699146   17.052334    ( 0.0000,  0.0000,  0.0000)
  40 Li     9.871211    8.548719   10.000000    ( 0.0000,  0.0000,  0.0000)
  41 Li    12.339013    9.973506   11.007476    ( 0.0000,  0.0000,  0.0000)
  42 Li    14.806816   11.398292   12.014952    ( 0.0000,  0.0000,  0.0000)
  43 Li     9.871211    8.548719   13.022429    ( 0.0000,  0.0000,  0.0000)
  44 Li    12.339013    9.973506   14.029905    ( 0.0000,  0.0000,  0.0000)
  45 Li    14.806816   11.398292   15.037381    ( 0.0000,  0.0000,  0.0000)
  46 Li     9.871211    8.548719   16.044857    ( 0.0000,  0.0000,  0.0000)
  47 Li    12.339013    9.973506   17.052334    ( 0.0000,  0.0000,  0.0000)
  48 Li     9.871211    0.000000   10.000000    ( 0.0000,  0.0000,  0.0000)
  49 Li    12.339013    1.424787   11.007476    ( 0.0000,  0.0000,  0.0000)
  50 Li    14.806816    2.849573   12.014952    ( 0.0000,  0.0000,  0.0000)
  51 Li     9.871211    0.000000   13.022429    ( 0.0000,  0.0000,  0.0000)
  52 Li    12.339013    1.424787   14.029905    ( 0.0000,  0.0000,  0.0000)
  53 Li    14.806816    2.849573   15.037381    ( 0.0000,  0.0000,  0.0000)
  54 Li     9.871211    0.000000   16.044857    ( 0.0000,  0.0000,  0.0000)
  55 Li    12.339013    1.424787   17.052334    ( 0.0000,  0.0000,  0.0000)
  56 Li    12.339013    4.274360   10.000000    ( 0.0000,  0.0000,  0.0000)
  57 Li    14.806816    5.699146   11.007476    ( 0.0000,  0.0000,  0.0000)
  58 Li    17.274619    7.123933   12.014952    ( 0.0000,  0.0000,  0.0000)
  59 Li    12.339013    4.274360   13.022429    ( 0.0000,  0.0000,  0.0000)
  60 Li    14.806816    5.699146   14.029905    ( 0.0000,  0.0000,  0.0000)
  61 Li    17.274619    7.123933   15.037381    ( 0.0000,  0.0000,  0.0000)
  62 Li    12.339013    4.274360   16.044857    ( 0.0000,  0.0000,  0.0000)
  63 Li    14.806816    5.699146   17.052334    ( 0.0000,  0.0000,  0.0000)
  64 Li    14.806816    8.548719   10.000000    ( 0.0000,  0.0000,  0.0000)
  65 Li    17.274619    9.973506   11.007476    ( 0.0000,  0.0000,  0.0000)
  66 Li    19.742421   11.398292   12.014952    ( 0.0000,  0.0000,  0.0000)
  67 Li    14.806816    8.548719   13.022429    ( 0.0000,  0.0000,  0.0000)
  68 Li    17.274619    9.973506   14.029905    ( 0.0000,  0.0000,  0.0000)
  69 Li    19.742421   11.398292   15.037381    ( 0.0000,  0.0000,  0.0000)
  70 Li    14.806816    8.548719   16.044857    ( 0.0000,  0.0000,  0.0000)
  71 Li    17.274619    9.973506   17.052334    ( 0.0000,  0.0000,  0.0000)
  72 Li     4.935605    5.699146   19.052334    ( 0.0000,  0.0000,  0.0000)

Unit cell:
           periodic     x           y           z      points  spacing
  1. axis:    yes   14.806816    0.000000    0.000000    49     0.2617
  2. axis:    yes    7.403408   12.823079    0.000000    49     0.2617
  3. axis:    no     0.000000    0.000000   27.052334    90     0.3006

  Lengths:  14.806816  14.806816  27.052334
  Angles:   90.000000  90.000000  60.000000

Effective grid spacing dv^(1/3) = 0.2875

     iter     time        total  log10-change:
                         energy   eigst   dens
iter:   1 15:23:53  -132.946117
iter:   2 15:24:03  -128.708131   -0.96  -0.53
iter:   3 15:24:12  -125.044523   -0.81  -0.64
iter:   4 15:24:22  -125.588675   -1.53  -0.90
iter:   5 15:24:32  -125.489629   -1.98  -0.90
iter:   6 15:24:41  -124.803272   -1.24  -0.90
iter:   7 15:24:54  -124.307911   -2.32  -1.09
iter:   8 15:25:10  -124.352420   -2.11  -1.31
iter:   9 15:25:22  -124.512134   -2.05  -1.44
iter:  10 15:25:33  -124.298196   -2.40  -1.27
iter:  11 15:25:46  -124.335441   -3.09  -1.73
iter:  12 15:25:56  -124.303767   -3.19  -1.65
iter:  13 15:26:05  -124.305606c  -3.59  -2.11
iter:  14 15:26:14  -124.301344c  -3.93  -2.20
iter:  15 15:26:24  -124.302096c  -4.23  -2.36
iter:  16 15:26:33  -124.301460c  -4.52  -2.46
iter:  17 15:26:42  -124.301216c  -4.14  -2.59
iter:  18 15:26:51  -124.301524c  -4.36  -2.40
iter:  19 15:27:05  -124.301435c  -5.03  -2.89
iter:  20 15:27:14  -124.301218c  -5.13  -2.99
iter:  21 15:27:24  -124.301527c  -5.04  -3.12
iter:  22 15:27:33  -124.301108c  -5.09  -3.07
iter:  23 15:27:42  -124.301092c  -5.55c -3.31
iter:  24 15:27:51  -124.301202c  -5.31c -3.37
iter:  25 15:28:05  -124.301009c  -5.30  -3.48
iter:  26 15:28:17  -124.301061c  -5.43c -3.59
iter:  27 15:28:31  -124.300941c  -5.51c -3.66
iter:  28 15:28:44  -124.300888c  -5.53c -3.81
iter:  29 15:28:59  -124.300868c  -5.74c -3.91
iter:  30 15:29:11  -124.300836c  -5.65c -4.09c

Converged after 30 iterations.

Dipole moment: (-10.130671, -4.942510, 0.209525) |e|*Ang

Energy contributions relative to reference atoms: (reference = -14803.510878)

Kinetic:        +92.269008
Potential:      -83.882231
External:        +0.000000
XC:            -131.655593
Entropy (-ST):   -1.176493
Local:           -0.443774
SIC:             +0.000000
--------------------------
Free energy:   -124.889083
Extrapolated:  -124.300836

Showing all kpts
 Kpt  Band  Eigenvalues  Occupancy
  0    34     -1.89226    1.32950
  0    35     -1.78515    0.80907
  0    36     -1.74048    0.60591
  0    37     -1.73861    0.59805

  1    34     -1.91878    1.44213
  1    35     -1.91796    1.43879
  1    36     -1.88561    1.29951
  1    37     -1.80738    0.91804


Fermi level: -1.82381

No gap
No difference between direct/indirect transitions

Forces in eV/Ang:
  0 Li    0.00078   -0.00045    0.03802
  1 Li   -0.00023    0.00328    0.19133
  2 Li    0.00127   -0.00658   -0.09706
  3 Li    0.00075   -0.00044   -0.07399
  4 Li   -0.00151    0.00056    0.06921
  5 Li   -0.00079   -0.00518    0.10050
  6 Li    0.00281   -0.00163   -0.19652
  7 Li    0.01117    0.02872   -0.01569
  8 Li   -0.00471   -0.00190    0.04452
  9 Li   -0.00035    0.00020    0.16630
 10 Li    0.00633    0.00219   -0.09706
 11 Li    0.00670    0.00399   -0.03958
 12 Li   -0.00130    0.00075   -0.03282
 13 Li    0.00409    0.00327    0.10050
 14 Li    0.06551    0.03905   -0.04844
 15 Li   -0.00055    0.00032   -2.16306
 16 Li   -0.00071    0.00503    0.04452
 17 Li   -0.00296   -0.00144    0.19133
 18 Li    0.00103   -0.00059   -0.09337
 19 Li   -0.00010   -0.00779   -0.03958
 20 Li   -0.00124    0.00103    0.06921
 21 Li   -0.00551    0.00318    0.09719
 22 Li   -0.00107   -0.07626   -0.04844
 23 Li   -0.01928   -0.02403   -0.01569
 24 Li   -0.00020    0.00662    0.03664
 25 Li    0.00068    0.00333    0.19168
 26 Li    0.00061   -0.00035   -0.09647
 27 Li    0.00083    0.00097   -0.06804
 28 Li    0.00143    0.00069    0.06931
 29 Li   -0.00023    0.00013    0.08369
 30 Li    0.00006   -0.01064   -0.20058
 31 Li   -0.01096    0.02944   -0.01675
 32 Li    0.00455   -0.00263    0.04368
 33 Li   -0.00255   -0.00226    0.19168
 34 Li    0.00186   -0.00154   -0.09307
 35 Li   -0.00617    0.00356   -0.03943
 36 Li    0.00012   -0.00159    0.06931
 37 Li   -0.00094   -0.00417    0.09677
 38 Li   -0.06466    0.03733   -0.04862
 39 Li   -0.03098   -0.00522   -0.01675
 40 Li   -0.00584   -0.00313    0.03664
 41 Li    0.00049   -0.00028    0.20040
 42 Li    0.00226   -0.00084   -0.09307
 43 Li   -0.00042   -0.00121   -0.06804
 44 Li    0.00021   -0.00012    0.06925
 45 Li    0.00314    0.00290    0.09677
 46 Li    0.00925    0.00527   -0.20058
 47 Li   -0.00011    0.00006   -0.04069
 48 Li   -0.00099   -0.00013    0.03812
 49 Li   -0.00055    0.00032    0.19401
 50 Li    0.00178    0.00017   -0.09610
 51 Li   -0.00040   -0.00083   -0.07476
 52 Li   -0.00071    0.00041    0.07346
 53 Li   -0.00297    0.00057    0.08484
 54 Li   -0.00278   -0.00174   -0.19585
 55 Li    0.00018   -0.00010   -0.04168
 56 Li   -0.00039    0.00092    0.03812
 57 Li    0.00256   -0.00096    0.19159
 58 Li   -0.00421    0.00243   -0.09806
 59 Li    0.00052    0.00076   -0.07476
 60 Li   -0.00068   -0.00103    0.06925
 61 Li   -0.00650    0.00375    0.10016
 62 Li    0.00012    0.00328   -0.19585
 63 Li    0.03156   -0.00497   -0.01665
 64 Li    0.00610   -0.00352    0.03550
 65 Li    0.00211   -0.00174    0.19159
 66 Li    0.00075   -0.00162   -0.09610
 67 Li    0.00150   -0.00086   -0.06775
 68 Li    0.00055    0.00110    0.06925
 69 Li   -0.00198    0.00229    0.08484
 70 Li   -0.00860    0.00496   -0.20084
 71 Li    0.02009   -0.02484   -0.01665
 72 Li    0.00044   -0.00025    1.64844

System changes: positions 

Initializing position-dependent things.

Density initialized from wave functions
                                                                       
                                                                       
                                                                       
                                                                       
                                                                       
                                                                       
                                                                       
                      Li       Li          Li          Li              
                                                                       
                      LiLi        LiLiLi       LiiLi          Li       
                                                                       
                Li          LiiLi       LiiLi        LiLi              
              Li          Li          Li          Li          Li       
                      LiLi         Lii         Lii                     
       Li          LiLi        LiLi        LiLi        Li              
                Li          Lii         Lii          Li                
              Li        LiLi        LiLi        Li                     
                     Lii         LiLi        LiLi                      
       Li          Li          Li                                      
              LiLi        LiLi        LiLi                             
                                                                       
       Li          Li          Li                                      
                                                                       
                                                                       
                                                                       
                                                                       

Atomic positions and initial magnetic moments

Positions:
   0 Li     0.000000    0.000000   10.000000    ( 0.0000,  0.0000,  0.0000)
   1 Li     2.467803    1.424787   11.007476    ( 0.0000,  0.0000,  0.0000)
   2 Li     4.935605    2.849573   12.014952    ( 0.0000,  0.0000,  0.0000)
   3 Li     0.000000    0.000000   13.022429    ( 0.0000,  0.0000,  0.0000)
   4 Li     2.467781    1.424794   14.030894    ( 0.0000,  0.0000,  0.0000)
   5 Li     4.935594    2.849499   15.038817    ( 0.0000,  0.0000,  0.0000)
   6 Li     0.000040   -0.000023   16.042050    ( 0.0000,  0.0000,  0.0000)
   7 Li     2.467962    1.425197   17.052109    ( 0.0000,  0.0000,  0.0000)
   8 Li     2.467803    4.274360   10.000000    ( 0.0000,  0.0000,  0.0000)
   9 Li     4.935605    5.699146   11.007476    ( 0.0000,  0.0000,  0.0000)
  10 Li     7.403408    7.123933   12.014952    ( 0.0000,  0.0000,  0.0000)
  11 Li     2.467803    4.274360   13.022429    ( 0.0000,  0.0000,  0.0000)
  12 Li     4.935587    5.699157   14.029436    ( 0.0000,  0.0000,  0.0000)
  13 Li     7.403466    7.123979   15.038817    ( 0.0000,  0.0000,  0.0000)
  14 Li     2.468739    4.274918   16.044165    ( 0.0000,  0.0000,  0.0000)
  15 Li     4.935597    5.699151   17.021433    ( 0.0000,  0.0000,  0.0000)
  16 Li     4.935605    8.548719   10.000000    ( 0.0000,  0.0000,  0.0000)
  17 Li     7.403408    9.973506   11.007476    ( 0.0000,  0.0000,  0.0000)
  18 Li     9.871211   11.398292   12.014952    ( 0.0000,  0.0000,  0.0000)
  19 Li     4.935605    8.548719   13.022429    ( 0.0000,  0.0000,  0.0000)
  20 Li     7.403390    9.973520   14.030894    ( 0.0000,  0.0000,  0.0000)
  21 Li     9.871132   11.398338   15.038770    ( 0.0000,  0.0000,  0.0000)
  22 Li     4.935590    8.547630   16.044165    ( 0.0000,  0.0000,  0.0000)
  23 Li     7.403133    9.973162   17.052109    ( 0.0000,  0.0000,  0.0000)
  24 Li     4.935605    0.000000   10.000000    ( 0.0000,  0.0000,  0.0000)
  25 Li     7.403408    1.424787   11.007476    ( 0.0000,  0.0000,  0.0000)
  26 Li     9.871211    2.849573   12.014952    ( 0.0000,  0.0000,  0.0000)
  27 Li     4.935605    0.000000   13.022429    ( 0.0000,  0.0000,  0.0000)
  28 Li     7.403428    1.424796   14.030895    ( 0.0000,  0.0000,  0.0000)
  29 Li     9.871207    2.849575   15.038577    ( 0.0000,  0.0000,  0.0000)
  30 Li     4.935606   -0.000152   16.041992    ( 0.0000,  0.0000,  0.0000)
  31 Li     7.403251    1.425207   17.052094    ( 0.0000,  0.0000,  0.0000)
  32 Li     7.403408    4.274360   10.000000    ( 0.0000,  0.0000,  0.0000)
  33 Li     9.871211    5.699146   11.007476    ( 0.0000,  0.0000,  0.0000)
  34 Li    12.339013    7.123933   12.014952    ( 0.0000,  0.0000,  0.0000)
  35 Li     7.403408    4.274360   13.022429    ( 0.0000,  0.0000,  0.0000)
  36 Li     9.871212    5.699123   14.030895    ( 0.0000,  0.0000,  0.0000)
  37 Li    12.339000    7.123873   15.038764    ( 0.0000,  0.0000,  0.0000)
  38 Li     7.402484    4.274893   16.044163    ( 0.0000,  0.0000,  0.0000)
  39 Li     9.870768    5.699071   17.052094    ( 0.0000,  0.0000,  0.0000)
  40 Li     9.871211    8.548719   10.000000    ( 0.0000,  0.0000,  0.0000)
  41 Li    12.339013    9.973506   11.007476    ( 0.0000,  0.0000,  0.0000)
  42 Li    14.806816   11.398292   12.014952    ( 0.0000,  0.0000,  0.0000)
  43 Li     9.871211    8.548719   13.022429    ( 0.0000,  0.0000,  0.0000)
  44 Li    12.339016    9.973504   14.030894    ( 0.0000,  0.0000,  0.0000)
  45 Li    14.806861   11.398334   15.038764    ( 0.0000,  0.0000,  0.0000)
  46 Li     9.871343    8.548794   16.041992    ( 0.0000,  0.0000,  0.0000)
  47 Li    12.339012    9.973507   17.051752    ( 0.0000,  0.0000,  0.0000)
  48 Li     9.871211    0.000000   10.000000    ( 0.0000,  0.0000,  0.0000)
  49 Li    12.339013    1.424787   11.007476    ( 0.0000,  0.0000,  0.0000)
  50 Li    14.806816    2.849573   12.014952    ( 0.0000,  0.0000,  0.0000)
  51 Li     9.871211    0.000000   13.022429    ( 0.0000,  0.0000,  0.0000)
  52 Li    12.339003    1.424792   14.030954    ( 0.0000,  0.0000,  0.0000)
  53 Li    14.806774    2.849581   15.038593    ( 0.0000,  0.0000,  0.0000)
  54 Li     9.871171   -0.000025   16.042059    ( 0.0000,  0.0000,  0.0000)
  55 Li    12.339016    1.424785   17.051738    ( 0.0000,  0.0000,  0.0000)
  56 Li    12.339013    4.274360   10.000000    ( 0.0000,  0.0000,  0.0000)
  57 Li    14.806816    5.699146   11.007476    ( 0.0000,  0.0000,  0.0000)
  58 Li    17.274619    7.123933   12.014952    ( 0.0000,  0.0000,  0.0000)
  59 Li    12.339013    4.274360   13.022429    ( 0.0000,  0.0000,  0.0000)
  60 Li    14.806806    5.699131   14.030894    ( 0.0000,  0.0000,  0.0000)
  61 Li    17.274526    7.123986   15.038812    ( 0.0000,  0.0000,  0.0000)
  62 Li    12.339015    4.274406   16.042059    ( 0.0000,  0.0000,  0.0000)
  63 Li    14.807267    5.699075   17.052096    ( 0.0000,  0.0000,  0.0000)
  64 Li    14.806816    8.548719   10.000000    ( 0.0000,  0.0000,  0.0000)
  65 Li    17.274619    9.973506   11.007476    ( 0.0000,  0.0000,  0.0000)
  66 Li    19.742421   11.398292   12.014952    ( 0.0000,  0.0000,  0.0000)
  67 Li    14.806816    8.548719   13.022429    ( 0.0000,  0.0000,  0.0000)
  68 Li    17.274627    9.973521   14.030894    ( 0.0000,  0.0000,  0.0000)
  69 Li    19.742393   11.398325   15.038593    ( 0.0000,  0.0000,  0.0000)
  70 Li    14.806693    8.548790   16.041988    ( 0.0000,  0.0000,  0.0000)
  71 Li    17.274906    9.973151   17.052096    ( 0.0000,  0.0000,  0.0000)
  72 Li     4.935612    5.699142   19.075883    ( 0.0000,  0.0000,  0.0000)

Unit cell:
           periodic     x           y           z      points  spacing
  1. axis:    yes   14.806816    0.000000    0.000000    49     0.2617
  2. axis:    yes    7.403408   12.823079    0.000000    49     0.2617
  3. axis:    no     0.000000    0.000000   27.052334    90     0.3006

  Lengths:  14.806816  14.806816  27.052334
  Angles:   90.000000  90.000000  60.000000

Effective grid spacing dv^(1/3) = 0.2875

     iter     time        total  log10-change:
                         energy   eigst   dens
iter:   1 15:29:38  -124.410291   -3.73
iter:   2 15:29:48  -124.407803   -4.97  -2.23
iter:   3 15:30:00  -124.407518c  -4.13  -2.40
iter:   4 15:30:11  -124.406747c  -5.37c -2.73
iter:   5 15:30:22  -124.406552c  -5.37c -2.93
iter:   6 15:30:34  -124.406705c  -5.43c -3.23
iter:   7 15:30:45  -124.406386c  -5.72c -3.19
iter:   8 15:30:57  -124.406461c  -6.23c -3.43
iter:   9 15:31:09  -124.406597c  -5.93c -3.52
iter:  10 15:31:20  -124.406468c  -6.06c -3.51
iter:  11 15:31:30  -124.406457c  -6.40c -3.76
iter:  12 15:31:41  -124.406439c  -6.24c -3.85
iter:  13 15:31:52  -124.406438c  -6.41c -4.15c

Converged after 13 iterations.

Dipole moment: (-10.150145, -4.935506, 0.226703) |e|*Ang

Energy contributions relative to reference atoms: (reference = -14803.510878)

Kinetic:        +92.203770
Potential:      -83.928939
External:        +0.000000
XC:            -131.653663
Entropy (-ST):   -1.175565
Local:           -0.439824
SIC:             +0.000000
--------------------------
Free energy:   -124.994220
Extrapolated:  -124.406438

Showing all kpts
 Kpt  Band  Eigenvalues  Occupancy
  0    34     -1.89123    1.33569
  0    35     -1.78249    0.80791
  0    36     -1.73828    0.60684
  0    37     -1.73636    0.59876

  1    34     -1.91650    1.44267
  1    35     -1.91575    1.43968
  1    36     -1.88372    1.30194
  1    37     -1.80534    0.91991


Fermi level: -1.82139

No gap
No difference between direct/indirect transitions

Forces in eV/Ang:
  0 Li    0.00084   -0.00049    0.03775
  1 Li   -0.00004    0.00372    0.19178
  2 Li    0.00124   -0.00653   -0.09730
  3 Li    0.00073   -0.00042   -0.07449
  4 Li   -0.00148    0.00071    0.06817
  5 Li   -0.00085   -0.00577    0.09559
  6 Li    0.00261   -0.00151   -0.19360
  7 Li    0.01044    0.02694   -0.01621
  8 Li   -0.00434   -0.00173    0.04472
  9 Li   -0.00038    0.00022    0.16547
 10 Li    0.00628    0.00219   -0.09730
 11 Li    0.00732    0.00429   -0.03869
 12 Li   -0.00126    0.00073   -0.04566
 13 Li    0.00457    0.00362    0.09559
 14 Li    0.05985    0.03565   -0.05082
 15 Li   -0.00059    0.00034   -1.92282
 16 Li   -0.00067    0.00462    0.04472
 17 Li   -0.00324   -0.00182    0.19178
 18 Li    0.00090   -0.00052   -0.09192
 19 Li   -0.00006   -0.00848   -0.03869
 20 Li   -0.00135    0.00093    0.06817
 21 Li   -0.00522    0.00301    0.09514
 22 Li   -0.00095   -0.06966   -0.05082
 23 Li   -0.01811   -0.02251   -0.01621
 24 Li   -0.00028    0.00728    0.03628
 25 Li    0.00043    0.00381    0.19211
 26 Li    0.00047   -0.00027   -0.09558
 27 Li    0.00077    0.00101   -0.06933
 28 Li    0.00131    0.00082    0.06834
 29 Li   -0.00071    0.00041    0.08286
 30 Li    0.00007   -0.01035   -0.19777
 31 Li   -0.01026    0.02762   -0.01727
 32 Li    0.00417   -0.00241    0.04386
 33 Li   -0.00308   -0.00228    0.19211
 34 Li    0.00190   -0.00159   -0.09169
 35 Li   -0.00680    0.00393   -0.03855
 36 Li   -0.00005   -0.00154    0.06834
 37 Li   -0.00096   -0.00382    0.09483
 38 Li   -0.05902    0.03408   -0.05102
 39 Li   -0.02905   -0.00492   -0.01727
 40 Li   -0.00644   -0.00340    0.03628
 41 Li    0.00044   -0.00026    0.20075
 42 Li    0.00233   -0.00085   -0.09169
 43 Li   -0.00050   -0.00117   -0.06933
 44 Li    0.00017   -0.00010    0.06850
 45 Li    0.00283    0.00275    0.09483
 46 Li    0.00900    0.00511   -0.19777
 47 Li   -0.00014    0.00008   -0.04025
 48 Li   -0.00097   -0.00011    0.03786
 49 Li   -0.00054    0.00031    0.19420
 50 Li    0.00202    0.00023   -0.09513
 51 Li   -0.00026   -0.00079   -0.07528
 52 Li   -0.00068    0.00039    0.07220
 53 Li   -0.00242    0.00083    0.08385
 54 Li   -0.00257   -0.00165   -0.19296
 55 Li    0.00017   -0.00010   -0.04127
 56 Li   -0.00039    0.00089    0.03786
 57 Li    0.00307   -0.00100    0.19206
 58 Li   -0.00418    0.00241   -0.09828
 59 Li    0.00055    0.00062   -0.07528
 60 Li   -0.00053   -0.00104    0.06825
 61 Li   -0.00699    0.00403    0.09521
 62 Li    0.00015    0.00305   -0.19296
 63 Li    0.02961   -0.00469   -0.01719
 64 Li    0.00666   -0.00385    0.03518
 65 Li    0.00241   -0.00216    0.19206
 66 Li    0.00081   -0.00186   -0.09513
 67 Li    0.00157   -0.00090   -0.06915
 68 Li    0.00064    0.00098    0.06825
 69 Li   -0.00193    0.00168    0.08385
 70 Li   -0.00834    0.00481   -0.19799
 71 Li    0.01887   -0.02330   -0.01719
 72 Li    0.00044   -0.00025    1.43990

System changes: positions 

Initializing position-dependent things.

Density initialized from wave functions
                                                                       
                                                                       
                                                                       
                                                                       
                                                                       
                                                                       
                                                                       
                      Li       Li          Li          Li              
                                                                       
                        Li          LiLi        LiLi          Li       
                      Li          Li           Li                      
                             LiLi        LiLi        LiLi              
              LiLi        LiLi        LiLi        Li          Li       
                      LiLi         Lii         Lii                     
       Li          LiLi        LiLi        LiLi        Li              
                Li          Lii         Lii          Li                
              Li        LiLi        LiLi        Li                     
                     Lii         LiLi        LiLi                      
       Li          Li          Li                                      
              LiLi        LiLi        LiLi                             
                                                                       
       Li          Li          Li                                      
                                                                       
                                                                       
                                                                       
                                                                       

Atomic positions and initial magnetic moments

Positions:
   0 Li     0.000000    0.000000   10.000000    ( 0.0000,  0.0000,  0.0000)
   1 Li     2.467803    1.424787   11.007476    ( 0.0000,  0.0000,  0.0000)
   2 Li     4.935605    2.849573   12.014952    ( 0.0000,  0.0000,  0.0000)
   3 Li     0.000000    0.000000   13.022429    ( 0.0000,  0.0000,  0.0000)
   4 Li     2.467628    1.424868   14.037980    ( 0.0000,  0.0000,  0.0000)
   5 Li     4.935506    2.848900   15.048756    ( 0.0000,  0.0000,  0.0000)
   6 Li     0.000312   -0.000180   16.021924    ( 0.0000,  0.0000,  0.0000)
   7 Li     2.469048    1.427998   17.050425    ( 0.0000,  0.0000,  0.0000)
   8 Li     2.467803    4.274360   10.000000    ( 0.0000,  0.0000,  0.0000)
   9 Li     4.935605    5.699146   11.007476    ( 0.0000,  0.0000,  0.0000)
  10 Li     7.403408    7.123933   12.014952    ( 0.0000,  0.0000,  0.0000)
  11 Li     2.467803    4.274360   13.022429    ( 0.0000,  0.0000,  0.0000)
  12 Li     4.935455    5.699233   14.024696    ( 0.0000,  0.0000,  0.0000)
  13 Li     7.403941    7.124355   15.048756    ( 0.0000,  0.0000,  0.0000)
  14 Li     2.474963    4.278625   16.038883    ( 0.0000,  0.0000,  0.0000)
  15 Li     4.935536    5.699186   16.821433    ( 0.0000,  0.0000,  0.0000)
  16 Li     4.935605    8.548719   10.000000    ( 0.0000,  0.0000,  0.0000)
  17 Li     7.403408    9.973506   11.007476    ( 0.0000,  0.0000,  0.0000)
  18 Li     9.871211   11.398292   12.014952    ( 0.0000,  0.0000,  0.0000)
  19 Li     4.935605    8.548719   13.022429    ( 0.0000,  0.0000,  0.0000)
  20 Li     7.403250    9.973617   14.037980    ( 0.0000,  0.0000,  0.0000)
  21 Li     9.870589   11.398651   15.048660    ( 0.0000,  0.0000,  0.0000)
  22 Li     4.935491    8.540385   16.038883    ( 0.0000,  0.0000,  0.0000)
  23 Li     7.401250    9.970821   17.050425    ( 0.0000,  0.0000,  0.0000)
  24 Li     4.935605    0.000000   10.000000    ( 0.0000,  0.0000,  0.0000)
  25 Li     7.403408    1.424787   11.007476    ( 0.0000,  0.0000,  0.0000)
  26 Li     9.871211    2.849573   12.014952    ( 0.0000,  0.0000,  0.0000)
  27 Li     4.935605    0.000000   13.022429    ( 0.0000,  0.0000,  0.0000)
  28 Li     7.403565    1.424881   14.037999    ( 0.0000,  0.0000,  0.0000)
  29 Li     9.871134    2.849617   15.047191    ( 0.0000,  0.0000,  0.0000)
  30 Li     4.935613   -0.001228   16.021432    ( 0.0000,  0.0000,  0.0000)
  31 Li     7.402185    1.428079   17.050299    ( 0.0000,  0.0000,  0.0000)
  32 Li     7.403408    4.274360   10.000000    ( 0.0000,  0.0000,  0.0000)
  33 Li     9.871211    5.699146   11.007476    ( 0.0000,  0.0000,  0.0000)
  34 Li    12.339013    7.123933   12.014952    ( 0.0000,  0.0000,  0.0000)
  35 Li     7.403408    4.274360   13.022429    ( 0.0000,  0.0000,  0.0000)
  36 Li     9.871207    5.698963   14.037999    ( 0.0000,  0.0000,  0.0000)
  37 Li    12.338900    7.123476   15.048622    ( 0.0000,  0.0000,  0.0000)
  38 Li     7.396346    4.278437   16.038860    ( 0.0000,  0.0000,  0.0000)
  39 Li     9.867748    5.698559   17.050299    ( 0.0000,  0.0000,  0.0000)
  40 Li     9.871211    8.548719   10.000000    ( 0.0000,  0.0000,  0.0000)
  41 Li    12.339013    9.973506   11.007476    ( 0.0000,  0.0000,  0.0000)
  42 Li    14.806816   11.398292   12.014952    ( 0.0000,  0.0000,  0.0000)
  43 Li     9.871211    8.548719   13.022429    ( 0.0000,  0.0000,  0.0000)
  44 Li    12.339034    9.973494   14.038015    ( 0.0000,  0.0000,  0.0000)
  45 Li    14.807155   11.398619   15.048622    ( 0.0000,  0.0000,  0.0000)
  46 Li     9.872278    8.549326   16.021432    ( 0.0000,  0.0000,  0.0000)
  47 Li    12.338997    9.973515   17.047568    ( 0.0000,  0.0000,  0.0000)
  48 Li     9.871211    0.000000   10.000000    ( 0.0000,  0.0000,  0.0000)
  49 Li    12.339013    1.424787   11.007476    ( 0.0000,  0.0000,  0.0000)
  50 Li    14.806816    2.849573   12.014952    ( 0.0000,  0.0000,  0.0000)
  51 Li     9.871211    0.000000   13.022429    ( 0.0000,  0.0000,  0.0000)
  52 Li    12.338933    1.424833   14.038460    ( 0.0000,  0.0000,  0.0000)
  53 Li    14.806521    2.849667   15.047310    ( 0.0000,  0.0000,  0.0000)
  54 Li     9.870904   -0.000197   16.022000    ( 0.0000,  0.0000,  0.0000)
  55 Li    12.339034    1.424775   17.047448    ( 0.0000,  0.0000,  0.0000)
  56 Li    12.339013    4.274360   10.000000    ( 0.0000,  0.0000,  0.0000)
  57 Li    14.806816    5.699146   11.007476    ( 0.0000,  0.0000,  0.0000)
  58 Li    17.274619    7.123933   12.014952    ( 0.0000,  0.0000,  0.0000)
  59 Li    12.339013    4.274360   13.022429    ( 0.0000,  0.0000,  0.0000)
  60 Li    14.806751    5.699023   14.037989    ( 0.0000,  0.0000,  0.0000)
  61 Li    17.273800    7.124405   15.048711    ( 0.0000,  0.0000,  0.0000)
  62 Li    12.339030    4.274724   16.022000    ( 0.0000,  0.0000,  0.0000)
  63 Li    14.810346    5.698588   17.050309    ( 0.0000,  0.0000,  0.0000)
  64 Li    14.806816    8.548719   10.000000    ( 0.0000,  0.0000,  0.0000)
  65 Li    17.274619    9.973506   11.007476    ( 0.0000,  0.0000,  0.0000)
  66 Li    19.742421   11.398292   12.014952    ( 0.0000,  0.0000,  0.0000)
  67 Li    14.806816    8.548719   13.022429    ( 0.0000,  0.0000,  0.0000)
  68 Li    17.274693    9.973623   14.037989    ( 0.0000,  0.0000,  0.0000)
  69 Li    19.742192   11.398500   15.047310    ( 0.0000,  0.0000,  0.0000)
  70 Li    14.805826    8.549291   16.021405    ( 0.0000,  0.0000,  0.0000)
  71 Li    17.276867    9.970728   17.050309    ( 0.0000,  0.0000,  0.0000)
  72 Li     4.935657    5.699116   19.225668    ( 0.0000,  0.0000,  0.0000)

Unit cell:
           periodic     x           y           z      points  spacing
  1. axis:    yes   14.806816    0.000000    0.000000    49     0.2617
  2. axis:    yes    7.403408   12.823079    0.000000    49     0.2617
  3. axis:    no     0.000000    0.000000   27.052334    90     0.3006

  Lengths:  14.806816  14.806816  27.052334
  Angles:   90.000000  90.000000  60.000000

Effective grid spacing dv^(1/3) = 0.2875

     iter     time        total  log10-change:
                         energy   eigst   dens
iter:   1 15:32:20  -125.062023   -2.11
iter:   2 15:32:31  -124.933349   -3.48  -1.42
iter:   3 15:32:43  -124.859715   -2.42  -1.57
iter:   4 15:32:53  -124.851888   -3.20  -1.86
iter:   5 15:33:05  -124.833983c  -3.79  -2.00
iter:   6 15:33:15  -124.836427c  -3.63  -2.34
iter:   7 15:33:26  -124.832570c  -4.42  -2.37
iter:   8 15:33:37  -124.833115c  -5.21  -2.67
iter:   9 15:33:47  -124.833260c  -5.30c -2.81
iter:  10 15:33:59  -124.833075c  -5.81c -2.98
iter:  11 15:34:11  -124.833090c  -5.94c -3.03
iter:  12 15:34:24  -124.833029c  -6.22c -3.19
iter:  13 15:34:35  -124.833072c  -6.37c -3.36
iter:  14 15:34:44  -124.833028c  -6.37c -3.49
iter:  15 15:34:55  -124.832984c  -6.61c -3.50
iter:  16 15:35:05  -124.832982c  -6.81c -3.65
iter:  17 15:35:15  -124.833031c  -6.53c -3.73
iter:  18 15:35:27  -124.832993c  -6.63c -3.89
iter:  19 15:35:38  -124.833004c  -6.64c -3.92
iter:  20 15:35:47  -124.832995c  -6.98c -4.03c

Converged after 20 iterations.

Dipole moment: (-10.284384, -4.883305, 0.305568) |e|*Ang

Energy contributions relative to reference atoms: (reference = -14803.510878)

Kinetic:        +91.732281
Potential:      -83.903700
External:        +0.000000
XC:            -131.636430
Entropy (-ST):   -1.168002
Local:           -0.441144
SIC:             +0.000000
--------------------------
Free energy:   -125.416996
Extrapolated:  -124.832995

Showing all kpts
 Kpt  Band  Eigenvalues  Occupancy
  0    34     -1.88285    1.35344
  0    35     -1.76854    0.80053
  0    36     -1.72956    0.62259
  0    37     -1.72522    0.60413

  1    34     -1.90598    1.45028
  1    35     -1.90582    1.44962
  1    36     -1.87397    1.31402
  1    37     -1.79273    0.91895


Fermi level: -1.80897

No gap
No difference between direct/indirect transitions

Forces in eV/Ang:
  0 Li    0.00072   -0.00042    0.03728
  1 Li    0.00023    0.00456    0.19435
  2 Li    0.00128   -0.00841   -0.09536
  3 Li    0.00010   -0.00006   -0.08118
  4 Li   -0.00112    0.00054    0.06057
  5 Li   -0.00077   -0.01023    0.06480
  6 Li    0.00248   -0.00143   -0.17232
  7 Li    0.00716    0.01703   -0.01802
  8 Li   -0.00439   -0.00181    0.04508
  9 Li   -0.00036    0.00021    0.15790
 10 Li    0.00792    0.00310   -0.09536
 11 Li    0.01070    0.00624   -0.03055
 12 Li   -0.00107    0.00062   -0.15389
 13 Li    0.00847    0.00578    0.06480
 14 Li    0.02443    0.01492   -0.06234
 15 Li   -0.00054    0.00031   -0.69864
 16 Li   -0.00063    0.00471    0.04508
 17 Li   -0.00384   -0.00248    0.19435
 18 Li    0.00113   -0.00065   -0.08394
 19 Li   -0.00005   -0.01239   -0.03055
 20 Li   -0.00103    0.00069    0.06057
 21 Li   -0.00391    0.00226    0.08160
 22 Li   -0.00071   -0.02862   -0.06234
 23 Li   -0.01117   -0.01471   -0.01802
 24 Li   -0.00028    0.00887    0.03592
 25 Li    0.00020    0.00470    0.19464
 26 Li    0.00063   -0.00036   -0.09011
 27 Li    0.00067    0.00026   -0.07876
 28 Li    0.00089    0.00048    0.06071
 29 Li   -0.00400    0.00231    0.07538
 30 Li    0.00012   -0.00813   -0.17794
 31 Li   -0.00689    0.01739   -0.01895
 32 Li    0.00424   -0.00245    0.04422
 33 Li   -0.00397   -0.00253    0.19464
 34 Li    0.00204   -0.00116   -0.08388
 35 Li   -0.01027    0.00593   -0.03035
 36 Li    0.00003   -0.00100    0.06071
 37 Li   -0.00083   -0.00260    0.08153
 38 Li   -0.02387    0.01378   -0.06259
 39 Li   -0.01851   -0.00273   -0.01895
 40 Li   -0.00782   -0.00420    0.03592
 41 Li    0.00057   -0.00033    0.20300
 42 Li    0.00203   -0.00118   -0.08388
 43 Li    0.00011   -0.00071   -0.07876
 44 Li    0.00011   -0.00006    0.05908
 45 Li    0.00183    0.00202    0.08153
 46 Li    0.00711    0.00396   -0.17794
 47 Li   -0.00015    0.00009   -0.03597
 48 Li   -0.00085    0.00004    0.03761
 49 Li   -0.00075    0.00043    0.19591
 50 Li    0.00207    0.00030   -0.08951
 51 Li    0.00034   -0.00034   -0.08194
 52 Li   -0.00070    0.00041    0.06066
 53 Li    0.00146    0.00278    0.07610
 54 Li   -0.00255   -0.00157   -0.17167
 55 Li    0.00008   -0.00005   -0.03709
 56 Li   -0.00046    0.00072    0.03761
 57 Li    0.00390   -0.00108    0.19464
 58 Li   -0.00594    0.00343   -0.09637
 59 Li    0.00047   -0.00012   -0.08194
 60 Li   -0.00065   -0.00052    0.06063
 61 Li   -0.01075    0.00621    0.06432
 62 Li    0.00008    0.00300   -0.17167
 63 Li    0.01894   -0.00261   -0.01889
 64 Li    0.00797   -0.00460    0.03516
 65 Li    0.00288   -0.00284    0.19464
 66 Li    0.00077   -0.00194   -0.08951
 67 Li    0.00075   -0.00043   -0.07898
 68 Li    0.00012    0.00082    0.06063
 69 Li   -0.00168   -0.00265    0.07610
 70 Li   -0.00660    0.00381   -0.17826
 71 Li    0.01173   -0.01510   -0.01889
 72 Li    0.00044   -0.00025    0.42762

System changes: positions 

Initializing position-dependent things.

Density initialized from wave functions
                                                                       
                                                                       
                                                                       
                                                                       
                                                                       
                                                                       
                                                                       
                      Li       Li          Li          Li              
                                                                       
                        Li          LiLi        LiLi          Li       
                      Li          Li           Li                      
                             LiLi        LiLi        LiLi              
              LiLi        LiLi        LiLi        Li          Li       
                      LiLi         Lii         Lii                     
       Li          LiLi        LiLi        LiLi        Li              
                Li          Lii         Lii          Li                
              Li        LiLi        LiLi        Li                     
                     Lii         LiLi        LiLi                      
       Li          Li          Li                                      
              LiLi        LiLi        LiLi                             
                                                                       
       Li          Li          Li                                      
                                                                       
                                                                       
                                                                       
                                                                       

Atomic positions and initial magnetic moments

Positions:
   0 Li     0.000000    0.000000   10.000000    ( 0.0000,  0.0000,  0.0000)
   1 Li     2.467803    1.424787   11.007476    ( 0.0000,  0.0000,  0.0000)
   2 Li     4.935605    2.849573   12.014952    ( 0.0000,  0.0000,  0.0000)
   3 Li     0.000000    0.000000   13.022429    ( 0.0000,  0.0000,  0.0000)
   4 Li     2.467523    1.424918   14.043031    ( 0.0000,  0.0000,  0.0000)
   5 Li     4.935443    2.848357   15.055384    ( 0.0000,  0.0000,  0.0000)
   6 Li     0.000510   -0.000294   16.007571    ( 0.0000,  0.0000,  0.0000)
   7 Li     2.469774    1.429838   17.049142    ( 0.0000,  0.0000,  0.0000)
   8 Li     2.467803    4.274360   10.000000    ( 0.0000,  0.0000,  0.0000)
   9 Li     4.935605    5.699146   11.007476    ( 0.0000,  0.0000,  0.0000)
  10 Li     7.403408    7.123933   12.014952    ( 0.0000,  0.0000,  0.0000)
  11 Li     2.467803    4.274360   13.022429    ( 0.0000,  0.0000,  0.0000)
  12 Li     4.935363    5.699286   14.018746    ( 0.0000,  0.0000,  0.0000)
  13 Li     7.404380    7.124681   15.055384    ( 0.0000,  0.0000,  0.0000)
  14 Li     2.478748    4.280888   16.034729    ( 0.0000,  0.0000,  0.0000)
  15 Li     4.935491    5.699212   16.701742    ( 0.0000,  0.0000,  0.0000)
  16 Li     4.935605    8.548719   10.000000    ( 0.0000,  0.0000,  0.0000)
  17 Li     7.403408    9.973506   11.007476    ( 0.0000,  0.0000,  0.0000)
  18 Li     9.871211   11.398292   12.014952    ( 0.0000,  0.0000,  0.0000)
  19 Li     4.935605    8.548719   13.022429    ( 0.0000,  0.0000,  0.0000)
  20 Li     7.403154    9.973683   14.043031    ( 0.0000,  0.0000,  0.0000)
  21 Li     9.870219   11.398865   15.055644    ( 0.0000,  0.0000,  0.0000)
  22 Li     4.935424    8.535975   16.034729    ( 0.0000,  0.0000,  0.0000)
  23 Li     7.400019    9.969272   17.049142    ( 0.0000,  0.0000,  0.0000)
  24 Li     4.935605    0.000000   10.000000    ( 0.0000,  0.0000,  0.0000)
  25 Li     7.403408    1.424787   11.007476    ( 0.0000,  0.0000,  0.0000)
  26 Li     9.871211    2.849573   12.014952    ( 0.0000,  0.0000,  0.0000)
  27 Li     4.935605    0.000000   13.022429    ( 0.0000,  0.0000,  0.0000)
  28 Li     7.403656    1.424936   14.043063    ( 0.0000,  0.0000,  0.0000)
  29 Li     9.871005    2.849692   15.053371    ( 0.0000,  0.0000,  0.0000)
  30 Li     4.935620   -0.001971   16.006726    ( 0.0000,  0.0000,  0.0000)
  31 Li     7.401475    1.429964   17.048938    ( 0.0000,  0.0000,  0.0000)
  32 Li     7.403408    4.274360   10.000000    ( 0.0000,  0.0000,  0.0000)
  33 Li     9.871211    5.699146   11.007476    ( 0.0000,  0.0000,  0.0000)
  34 Li    12.339013    7.123933   12.014952    ( 0.0000,  0.0000,  0.0000)
  35 Li     7.403408    4.274360   13.022429    ( 0.0000,  0.0000,  0.0000)
  36 Li     9.871205    5.698857   14.043063    ( 0.0000,  0.0000,  0.0000)
  37 Li    12.338829    7.123211   15.055587    ( 0.0000,  0.0000,  0.0000)
  38 Li     7.392618    4.280589   16.034690    ( 0.0000,  0.0000,  0.0000)
  39 Li     9.865760    5.698232   17.048938    ( 0.0000,  0.0000,  0.0000)
  40 Li     9.871211    8.548719   10.000000    ( 0.0000,  0.0000,  0.0000)
  41 Li    12.339013    9.973506   11.007476    ( 0.0000,  0.0000,  0.0000)
  42 Li    14.806816   11.398292   12.014952    ( 0.0000,  0.0000,  0.0000)
  43 Li     9.871211    8.548719   13.022429    ( 0.0000,  0.0000,  0.0000)
  44 Li    12.339046    9.973487   14.043050    ( 0.0000,  0.0000,  0.0000)
  45 Li    14.807349   11.398813   15.055587    ( 0.0000,  0.0000,  0.0000)
  46 Li     9.872925    8.549692   16.006726    ( 0.0000,  0.0000,  0.0000)
  47 Li    12.338986    9.973522   17.044581    ( 0.0000,  0.0000,  0.0000)
  48 Li     9.871211    0.000000   10.000000    ( 0.0000,  0.0000,  0.0000)
  49 Li    12.339013    1.424787   11.007476    ( 0.0000,  0.0000,  0.0000)
  50 Li    14.806816    2.849573   12.014952    ( 0.0000,  0.0000,  0.0000)
  51 Li     9.871211    0.000000   13.022429    ( 0.0000,  0.0000,  0.0000)
  52 Li    12.338880    1.424863   14.043731    ( 0.0000,  0.0000,  0.0000)
  53 Li    14.806424    2.849775   15.053560    ( 0.0000,  0.0000,  0.0000)
  54 Li     9.870707   -0.000322   16.007696    ( 0.0000,  0.0000,  0.0000)
  55 Li    12.339045    1.424768   17.044380    ( 0.0000,  0.0000,  0.0000)
  56 Li    12.339013    4.274360   10.000000    ( 0.0000,  0.0000,  0.0000)
  57 Li    14.806816    5.699146   11.007476    ( 0.0000,  0.0000,  0.0000)
  58 Li    17.274619    7.123933   12.014952    ( 0.0000,  0.0000,  0.0000)
  59 Li    12.339013    4.274360   13.022429    ( 0.0000,  0.0000,  0.0000)
  60 Li    14.806708    5.698955   14.043047    ( 0.0000,  0.0000,  0.0000)
  61 Li    17.273179    7.124764   15.055308    ( 0.0000,  0.0000,  0.0000)
  62 Li    12.339040    4.274956   16.007696    ( 0.0000,  0.0000,  0.0000)
  63 Li    14.812374    5.698276   17.048954    ( 0.0000,  0.0000,  0.0000)
  64 Li    14.806816    8.548719   10.000000    ( 0.0000,  0.0000,  0.0000)
  65 Li    17.274619    9.973506   11.007476    ( 0.0000,  0.0000,  0.0000)
  66 Li    19.742421   11.398292   12.014952    ( 0.0000,  0.0000,  0.0000)
  67 Li    14.806816    8.548719   13.022429    ( 0.0000,  0.0000,  0.0000)
  68 Li    17.274730    9.973695   14.043047    ( 0.0000,  0.0000,  0.0000)
  69 Li    19.742050   11.398531   15.053560    ( 0.0000,  0.0000,  0.0000)
  70 Li    14.805227    8.549637   16.006681    ( 0.0000,  0.0000,  0.0000)
  71 Li    17.278151    9.969128   17.048954    ( 0.0000,  0.0000,  0.0000)
  72 Li     4.935691    5.699097   19.313149    ( 0.0000,  0.0000,  0.0000)

Unit cell:
           periodic     x           y           z      points  spacing
  1. axis:    yes   14.806816    0.000000    0.000000    49     0.2617
  2. axis:    yes    7.403408   12.823079    0.000000    49     0.2617
  3. axis:    no     0.000000    0.000000   27.052334    90     0.3006

  Lengths:  14.806816  14.806816  27.052334
  Angles:   90.000000  90.000000  60.000000

Effective grid spacing dv^(1/3) = 0.2875

     iter     time        total  log10-change:
                         energy   eigst   dens
iter:   1 15:36:22  -125.031640   -2.46
iter:   2 15:36:34  -124.975342   -3.84  -1.59
iter:   3 15:36:44  -124.944084   -2.78  -1.74
iter:   4 15:36:56  -124.938662   -3.58  -2.03
iter:   5 15:37:08  -124.930777c  -4.04  -2.20
iter:   6 15:37:23  -124.930922c  -4.76  -2.64
iter:   7 15:37:35  -124.930874c  -5.03  -2.79
iter:   8 15:37:47  -124.930767c  -5.25  -2.87
iter:   9 15:37:58  -124.930847c  -5.56c -2.88
iter:  10 15:38:10  -124.930948c  -6.17c -3.12
iter:  11 15:38:20  -124.931041c  -5.95c -3.20
iter:  12 15:38:32  -124.931019c  -6.28c -3.28
iter:  13 15:38:46  -124.930975c  -6.62c -3.37
iter:  14 15:39:03  -124.930932c  -6.82c -3.54
iter:  15 15:39:14  -124.930915c  -6.90c -3.69
iter:  16 15:39:26  -124.930941c  -6.86c -3.79
iter:  17 15:39:37  -124.930943c  -7.13c -3.93
iter:  18 15:39:47  -124.930916c  -6.97c -4.01c

Converged after 18 iterations.

Dipole moment: (-10.368619, -4.846225, 0.335354) |e|*Ang

Energy contributions relative to reference atoms: (reference = -14803.510878)

Kinetic:        +91.656607
Potential:      -83.905871
External:        +0.000000
XC:            -131.657154
Entropy (-ST):   -1.165174
Local:           -0.441911
SIC:             +0.000000
--------------------------
Free energy:   -125.513503
Extrapolated:  -124.930916

Showing all kpts
 Kpt  Band  Eigenvalues  Occupancy
  0    34     -1.87733    1.35143
  0    35     -1.76224    0.79456
  0    36     -1.72795    0.63741
  0    37     -1.72118    0.60841

  1    34     -1.90299    1.45847
  1    35     -1.90251    1.45658
  1    36     -1.86936    1.31599
  1    37     -1.78604    0.91085


Fermi level: -1.80392

No gap
No difference between direct/indirect transitions

Forces in eV/Ang:
  0 Li    0.00054   -0.00031    0.03652
  1 Li    0.00022    0.00468    0.19592
  2 Li    0.00135   -0.00875   -0.09248
  3 Li   -0.00033    0.00019   -0.08647
  4 Li   -0.00120    0.00016    0.05453
  5 Li   -0.00068   -0.01370    0.04728
  6 Li    0.00244   -0.00141   -0.15733
  7 Li    0.00589    0.01190   -0.01774
  8 Li   -0.00442   -0.00186    0.04584
  9 Li   -0.00033    0.00019    0.15360
 10 Li    0.00825    0.00321   -0.09248
 11 Li    0.01259    0.00739   -0.02657
 12 Li   -0.00093    0.00054   -0.24236
 13 Li    0.01153    0.00744    0.04728
 14 Li    0.00507    0.00369   -0.06471
 15 Li   -0.00044    0.00025   -0.20000
 16 Li   -0.00060    0.00475    0.04584
 17 Li   -0.00394   -0.00253    0.19592
 18 Li    0.00120   -0.00069   -0.07907
 19 Li   -0.00010   -0.01460   -0.02657
 20 Li   -0.00074    0.00096    0.05453
 21 Li   -0.00329    0.00190    0.07246
 22 Li   -0.00066   -0.00624   -0.06471
 23 Li   -0.00736   -0.01105   -0.01774
 24 Li   -0.00022    0.00930    0.03523
 25 Li    0.00040    0.00478    0.19621
 26 Li    0.00075   -0.00043   -0.08612
 27 Li    0.00069    0.00008   -0.08475
 28 Li    0.00101   -0.00006    0.05452
 29 Li   -0.00573    0.00331    0.06928
 30 Li    0.00015   -0.00704   -0.16355
 31 Li   -0.00562    0.01208   -0.01855
 32 Li    0.00432   -0.00250    0.04504
 33 Li   -0.00394   -0.00273    0.19621
 34 Li    0.00213   -0.00108   -0.07912
 35 Li   -0.01218    0.00703   -0.02637
 36 Li    0.00055   -0.00084    0.05452
 37 Li   -0.00072   -0.00206    0.07244
 38 Li   -0.00480    0.00277   -0.06503
 39 Li   -0.01327   -0.00117   -0.01855
 40 Li   -0.00816   -0.00446    0.03523
 41 Li    0.00073   -0.00042    0.20434
 42 Li    0.00200   -0.00130   -0.07912
 43 Li    0.00028   -0.00064   -0.08475
 44 Li    0.00012   -0.00007    0.05212
 45 Li    0.00143    0.00165    0.07244
 46 Li    0.00617    0.00339   -0.16355
 47 Li   -0.00013    0.00008   -0.03302
 48 Li   -0.00078    0.00021    0.03712
 49 Li   -0.00099    0.00057    0.19673
 50 Li    0.00200    0.00040   -0.08534
 51 Li    0.00068   -0.00006   -0.08734
 52 Li   -0.00075    0.00043    0.05236
 53 Li    0.00358    0.00384    0.06990
 54 Li   -0.00258   -0.00155   -0.15677
 55 Li    0.00006   -0.00003   -0.03411
 56 Li   -0.00057    0.00057    0.03712
 57 Li    0.00381   -0.00106    0.19625
 58 Li   -0.00639    0.00369   -0.09346
 59 Li    0.00039   -0.00056   -0.08734
 60 Li   -0.00118   -0.00031    0.05452
 61 Li   -0.01367    0.00789    0.04685
 62 Li    0.00005    0.00301   -0.15677
 63 Li    0.01365   -0.00110   -0.01854
 64 Li    0.00823   -0.00475    0.03477
 65 Li    0.00282   -0.00277    0.19625
 66 Li    0.00065   -0.00193   -0.08534
 67 Li    0.00046   -0.00026   -0.08521
 68 Li   -0.00032    0.00117    0.05452
 69 Li   -0.00154   -0.00502    0.06990
 70 Li   -0.00578    0.00334   -0.16394
 71 Li    0.00778   -0.01127   -0.01854
 72 Li    0.00040   -0.00023    0.06236

System changes: positions 

Initializing position-dependent things.

Density initialized from wave functions
                                                                       
                                                                       
                                                                       
                                                                       
                                                                       
                                                                       
                                                                       
                      Li       Li          Li          Li              
                                                                       
                        Li          LiLi        LiLi          Li       
                      Li          Li           Li                      
                             LiLi        LiLi        LiLi              
              LiLi        LiLi        LiLi        Li          Li       
                      LiLi         Lii         Lii                     
       Li          LiLi        LiLi        LiLi        Li              
                Li          Lii         Lii          Li                
              Li        LiLi        LiLi        Li                     
                     Lii         LiLi        LiLi                      
       Li          Li          Li                                      
              LiLi        LiLi        LiLi                             
                                                                       
       Li          Li          Li                                      
                                                                       
                                                                       
                                                                       
                                                                       

Atomic positions and initial magnetic moments

Positions:
   0 Li     0.000000    0.000000   10.000000    ( 0.0000,  0.0000,  0.0000)
   1 Li     2.467803    1.424787   11.007476    ( 0.0000,  0.0000,  0.0000)
   2 Li     4.935605    2.849573   12.014952    ( 0.0000,  0.0000,  0.0000)
   3 Li     0.000000    0.000000   13.022429    ( 0.0000,  0.0000,  0.0000)
   4 Li     2.467445    1.424946   14.046651    ( 0.0000,  0.0000,  0.0000)
   5 Li     4.935398    2.847823   15.059710    ( 0.0000,  0.0000,  0.0000)
   6 Li     0.000657   -0.000379   15.997234    ( 0.0000,  0.0000,  0.0000)
   7 Li     2.470264    1.431020   17.048157    ( 0.0000,  0.0000,  0.0000)
   8 Li     2.467803    4.274360   10.000000    ( 0.0000,  0.0000,  0.0000)
   9 Li     4.935605    5.699146   11.007476    ( 0.0000,  0.0000,  0.0000)
  10 Li     7.403408    7.123933   12.014952    ( 0.0000,  0.0000,  0.0000)
  11 Li     2.467803    4.274360   13.022429    ( 0.0000,  0.0000,  0.0000)
  12 Li     4.935298    5.699324   14.011170    ( 0.0000,  0.0000,  0.0000)
  13 Li     7.404820    7.124987   15.059710    ( 0.0000,  0.0000,  0.0000)
  14 Li     2.480831    4.282146   16.031409    ( 0.0000,  0.0000,  0.0000)
  15 Li     4.935461    5.699230   16.634396    ( 0.0000,  0.0000,  0.0000)
  16 Li     4.935605    8.548719   10.000000    ( 0.0000,  0.0000,  0.0000)
  17 Li     7.403408    9.973506   11.007476    ( 0.0000,  0.0000,  0.0000)
  18 Li     9.871211   11.398292   12.014952    ( 0.0000,  0.0000,  0.0000)
  19 Li     4.935605    8.548719   13.022429    ( 0.0000,  0.0000,  0.0000)
  20 Li     7.403091    9.973736   14.046651    ( 0.0000,  0.0000,  0.0000)
  21 Li     9.869965   11.399012   15.060601    ( 0.0000,  0.0000,  0.0000)
  22 Li     4.935377    8.533543   16.031409    ( 0.0000,  0.0000,  0.0000)
  23 Li     7.399240    9.968258   17.048157    ( 0.0000,  0.0000,  0.0000)
  24 Li     4.935605    0.000000   10.000000    ( 0.0000,  0.0000,  0.0000)
  25 Li     7.403408    1.424787   11.007476    ( 0.0000,  0.0000,  0.0000)
  26 Li     9.871211    2.849573   12.014952    ( 0.0000,  0.0000,  0.0000)
  27 Li     4.935605    0.000000   13.022429    ( 0.0000,  0.0000,  0.0000)
  28 Li     7.403723    1.424962   14.046688    ( 0.0000,  0.0000,  0.0000)
  29 Li     9.870836    2.849789   15.057846    ( 0.0000,  0.0000,  0.0000)
  30 Li     4.935626   -0.002487   15.996094    ( 0.0000,  0.0000,  0.0000)
  31 Li     7.400998    1.431172   17.047898    ( 0.0000,  0.0000,  0.0000)
  32 Li     7.403408    4.274360   10.000000    ( 0.0000,  0.0000,  0.0000)
  33 Li     9.871211    5.699146   11.007476    ( 0.0000,  0.0000,  0.0000)
  34 Li    12.339013    7.123933   12.014952    ( 0.0000,  0.0000,  0.0000)
  35 Li     7.403408    4.274360   13.022429    ( 0.0000,  0.0000,  0.0000)
  36 Li     9.871216    5.698785   14.046688    ( 0.0000,  0.0000,  0.0000)
  37 Li    12.338779    7.123034   15.060533    ( 0.0000,  0.0000,  0.0000)
  38 Li     7.390570    4.281771   16.031356    ( 0.0000,  0.0000,  0.0000)
  39 Li     9.864475    5.698040   17.047898    ( 0.0000,  0.0000,  0.0000)
  40 Li     9.871211    8.548719   10.000000    ( 0.0000,  0.0000,  0.0000)
  41 Li    12.339013    9.973506   11.007476    ( 0.0000,  0.0000,  0.0000)
  42 Li    14.806816   11.398292   12.014952    ( 0.0000,  0.0000,  0.0000)
  43 Li     9.871211    8.548719   13.022429    ( 0.0000,  0.0000,  0.0000)
  44 Li    12.339055    9.973482   14.046619    ( 0.0000,  0.0000,  0.0000)
  45 Li    14.807477   11.398945   15.060533    ( 0.0000,  0.0000,  0.0000)
  46 Li     9.873375    8.549945   15.996094    ( 0.0000,  0.0000,  0.0000)
  47 Li    12.338978    9.973526   17.042424    ( 0.0000,  0.0000,  0.0000)
  48 Li     9.871211    0.000000   10.000000    ( 0.0000,  0.0000,  0.0000)
  49 Li    12.339013    1.424787   11.007476    ( 0.0000,  0.0000,  0.0000)
  50 Li    14.806816    2.849573   12.014952    ( 0.0000,  0.0000,  0.0000)
  51 Li     9.871211    0.000000   13.022429    ( 0.0000,  0.0000,  0.0000)
  52 Li    12.338839    1.424887   14.047427    ( 0.0000,  0.0000,  0.0000)
  53 Li    14.806436    2.849900   15.058083    ( 0.0000,  0.0000,  0.0000)
  54 Li     9.870558   -0.000415   15.997394    ( 0.0000,  0.0000,  0.0000)
  55 Li    12.339052    1.424764   17.042162    ( 0.0000,  0.0000,  0.0000)
  56 Li    12.339013    4.274360   10.000000    ( 0.0000,  0.0000,  0.0000)
  57 Li    14.806816    5.699146   11.007476    ( 0.0000,  0.0000,  0.0000)
  58 Li    17.274619    7.123933   12.014952    ( 0.0000,  0.0000,  0.0000)
  59 Li    12.339013    4.274360   13.022429    ( 0.0000,  0.0000,  0.0000)
  60 Li    14.806662    5.698913   14.046669    ( 0.0000,  0.0000,  0.0000)
  61 Li    17.272606    7.125095   15.059611    ( 0.0000,  0.0000,  0.0000)
  62 Li    12.339046    4.275133   15.997394    ( 0.0000,  0.0000,  0.0000)
  63 Li    14.813687    5.698094   17.047917    ( 0.0000,  0.0000,  0.0000)
  64 Li    14.806816    8.548719   10.000000    ( 0.0000,  0.0000,  0.0000)
  65 Li    17.274619    9.973506   11.007476    ( 0.0000,  0.0000,  0.0000)
  66 Li    19.742421   11.398292   12.014952    ( 0.0000,  0.0000,  0.0000)
  67 Li    14.806816    8.548719   13.022429    ( 0.0000,  0.0000,  0.0000)
  68 Li    17.274743    9.973755   14.046669    ( 0.0000,  0.0000,  0.0000)
  69 Li    19.741948   11.398458   15.058083    ( 0.0000,  0.0000,  0.0000)
  70 Li    14.804808    8.549879   15.996031    ( 0.0000,  0.0000,  0.0000)
  71 Li    17.278966    9.968082   17.047917    ( 0.0000,  0.0000,  0.0000)
  72 Li     4.935715    5.699083   19.361173    ( 0.0000,  0.0000,  0.0000)

Unit cell:
           periodic     x           y           z      points  spacing
  1. axis:    yes   14.806816    0.000000    0.000000    49     0.2617
  2. axis:    yes    7.403408   12.823079    0.000000    49     0.2617
  3. axis:    no     0.000000    0.000000   27.052334    90     0.3006

  Lengths:  14.806816  14.806816  27.052334
  Angles:   90.000000  90.000000  60.000000

Effective grid spacing dv^(1/3) = 0.2875

     iter     time        total  log10-change:
                         energy   eigst   dens
iter:   1 15:40:10  -124.991130   -2.87
iter:   2 15:40:22  -124.969791   -4.27  -1.79
iter:   3 15:40:32  -124.959289c  -3.18  -1.93
iter:   4 15:40:42  -124.955454c  -4.08  -2.23
iter:   5 15:40:53  -124.953033c  -4.41  -2.43
iter:   6 15:41:04  -124.953100c  -5.47c -2.91
iter:   7 15:41:14  -124.953231c  -5.37c -2.95
iter:   8 15:41:25  -124.953094c  -5.32c -3.09
iter:   9 15:41:36  -124.953175c  -6.11c -2.93
iter:  10 15:41:46  -124.953368c  -5.86c -3.15
iter:  11 15:41:56  -124.953293c  -6.67c -3.42
iter:  12 15:42:07  -124.953257c  -6.64c -3.54
iter:  13 15:42:17  -124.953254c  -6.95c -3.73
iter:  14 15:42:28  -124.953220c  -6.80c -3.81
iter:  15 15:42:38  -124.953233c  -7.10c -3.94
iter:  16 15:42:48  -124.953242c  -6.71c -3.99
iter:  17 15:43:00  -124.953228c  -6.76c -4.14c

Converged after 17 iterations.

Dipole moment: (-10.412732, -4.820832, 0.348509) |e|*Ang

Energy contributions relative to reference atoms: (reference = -14803.510878)

Kinetic:        +91.733130
Potential:      -83.966632
External:        +0.000000
XC:            -131.695374
Entropy (-ST):   -1.163914
Local:           -0.442394
SIC:             +0.000000
--------------------------
Free energy:   -125.535185
Extrapolated:  -124.953228

Showing all kpts
 Kpt  Band  Eigenvalues  Occupancy
  0    34     -1.87386    1.34687
  0    35     -1.75880    0.78977
  0    36     -1.72800    0.64825
  0    37     -1.71955    0.61182

  1    34     -1.90211    1.46458
  1    35     -1.90133    1.46150
  1    36     -1.86663    1.31469
  1    37     -1.78219    0.90382


Fermi level: -1.80149

No gap
No difference between direct/indirect transitions

Forces in eV/Ang:
  0 Li    0.00063   -0.00036    0.03616
  1 Li    0.00020    0.00475    0.19688
  2 Li    0.00136   -0.00913   -0.09061
  3 Li   -0.00054    0.00031   -0.09046
  4 Li   -0.00144   -0.00043    0.04987
  5 Li   -0.00057   -0.01522    0.03643
  6 Li    0.00248   -0.00143   -0.14666
  7 Li    0.00522    0.00889   -0.01703
  8 Li   -0.00430   -0.00183    0.04629
  9 Li   -0.00029    0.00017    0.14806
 10 Li    0.00858    0.00339   -0.09061
 11 Li    0.01341    0.00789   -0.02452
 12 Li   -0.00085    0.00049   -0.29472
 13 Li    0.01290    0.00811    0.03643
 14 Li   -0.00560   -0.00249   -0.06492
 15 Li   -0.00036    0.00021    0.02618
 16 Li   -0.00056    0.00464    0.04629
 17 Li   -0.00402   -0.00255    0.19688
 18 Li    0.00115   -0.00067   -0.07554
 19 Li   -0.00013   -0.01556   -0.02452
 20 Li   -0.00035    0.00147    0.04987
 21 Li   -0.00300    0.00173    0.06573
 22 Li   -0.00064    0.00609   -0.06492
 23 Li   -0.00509   -0.00897   -0.01703
 24 Li   -0.00023    0.00969    0.03498
 25 Li    0.00049    0.00482    0.19721
 26 Li    0.00083   -0.00048   -0.08320
 27 Li    0.00069   -0.00016   -0.08931
 28 Li    0.00127   -0.00072    0.04981
 29 Li   -0.00651    0.00376    0.06456
 30 Li    0.00018   -0.00628   -0.15312
 31 Li   -0.00497    0.00897   -0.01777
 32 Li    0.00420   -0.00242    0.04548
 33 Li   -0.00393   -0.00284    0.19721
 34 Li    0.00217   -0.00112   -0.07557
 35 Li   -0.01305    0.00753   -0.02424
 36 Li    0.00126   -0.00074    0.04981
 37 Li   -0.00063   -0.00189    0.06577
 38 Li    0.00570   -0.00329   -0.06523
 39 Li   -0.01026   -0.00018   -0.01777
 40 Li   -0.00851   -0.00465    0.03498
 41 Li    0.00081   -0.00047    0.20529
 42 Li    0.00205   -0.00132   -0.07557
 43 Li    0.00048   -0.00052   -0.08931
 44 Li    0.00012   -0.00007    0.04691
 45 Li    0.00132    0.00149    0.06577
 46 Li    0.00553    0.00299   -0.15312
 47 Li   -0.00010    0.00006   -0.03076
 48 Li   -0.00085    0.00017    0.03684
 49 Li   -0.00108    0.00062    0.19751
 50 Li    0.00198    0.00043   -0.08239
 51 Li    0.00080    0.00005   -0.09129
 52 Li   -0.00078    0.00045    0.04659
 53 Li    0.00460    0.00433    0.06511
 54 Li   -0.00270   -0.00153   -0.14615
 55 Li    0.00002   -0.00001   -0.03187
 56 Li   -0.00057    0.00065    0.03684
 57 Li    0.00377   -0.00109    0.19726
 58 Li   -0.00678    0.00392   -0.09157
 59 Li    0.00036   -0.00072   -0.09129
 60 Li   -0.00192   -0.00018    0.04983
 61 Li   -0.01489    0.00860    0.03605
 62 Li   -0.00002    0.00310   -0.14615
 63 Li    0.01058   -0.00015   -0.01777
 64 Li    0.00851   -0.00491    0.03464
 65 Li    0.00283   -0.00273    0.19726
 66 Li    0.00061   -0.00193   -0.08239
 67 Li    0.00015   -0.00009   -0.08990
 68 Li   -0.00080    0.00175    0.04983
 69 Li   -0.00145   -0.00615    0.06511
 70 Li   -0.00525    0.00303   -0.15357
 71 Li    0.00542   -0.00909   -0.01777
 72 Li    0.00036   -0.00021   -0.08675

System changes: positions 

Initializing position-dependent things.

Density initialized from wave functions
                                                                       
                                                                       
                                                                       
                                                                       
                                                                       
                                                                       
                                                                       
                      Li       Li          Li          Li              
                                                                       
                        Li          LiLi        LiLi          Li       
                      Li          Li           Li                      
                             LiLi        LiLi        LiLi              
              LiLi        LiLi        LiLi        Li          Li       
                      LiLi         Lii         Lii                     
       Li          LiLi        LiLi        LiLi        Li              
                Li          Lii         Lii          Li                
              Li        LiLi        LiLi        Li                     
                     Lii         LiLi        LiLi                      
       Li          Li          Li                                      
              LiLi        LiLi        LiLi                             
                                                                       
       Li          Li          Li                                      
                                                                       
                                                                       
                                                                       
                                                                       

Atomic positions and initial magnetic moments

Positions:
   0 Li     0.000000    0.000000   10.000000    ( 0.0000,  0.0000,  0.0000)
   1 Li     2.467803    1.424787   11.007476    ( 0.0000,  0.0000,  0.0000)
   2 Li     4.935605    2.849573   12.014952    ( 0.0000,  0.0000,  0.0000)
   3 Li     0.000000    0.000000   13.022429    ( 0.0000,  0.0000,  0.0000)
   4 Li     2.467383    1.424950   14.049159    ( 0.0000,  0.0000,  0.0000)
   5 Li     4.935368    2.847317   15.062312    ( 0.0000,  0.0000,  0.0000)
   6 Li     0.000768   -0.000443   15.989993    ( 0.0000,  0.0000,  0.0000)
   7 Li     2.470578    1.431713   17.047417    ( 0.0000,  0.0000,  0.0000)
   8 Li     2.467803    4.274360   10.000000    ( 0.0000,  0.0000,  0.0000)
   9 Li     4.935605    5.699146   11.007476    ( 0.0000,  0.0000,  0.0000)
  10 Li     7.403408    7.123933   12.014952    ( 0.0000,  0.0000,  0.0000)
  11 Li     2.467803    4.274360   13.022429    ( 0.0000,  0.0000,  0.0000)
  12 Li     4.935253    5.699349   14.002592    ( 0.0000,  0.0000,  0.0000)
  13 Li     7.405243    7.125266   15.062312    ( 0.0000,  0.0000,  0.0000)
  14 Li     2.481688    4.282679   16.028782    ( 0.0000,  0.0000,  0.0000)
  15 Li     4.935441    5.699241   16.603638    ( 0.0000,  0.0000,  0.0000)
  16 Li     4.935605    8.548719   10.000000    ( 0.0000,  0.0000,  0.0000)
  17 Li     7.403408    9.973506   11.007476    ( 0.0000,  0.0000,  0.0000)
  18 Li     9.871211   11.398292   12.014952    ( 0.0000,  0.0000,  0.0000)
  19 Li     4.935605    8.548719   13.022429    ( 0.0000,  0.0000,  0.0000)
  20 Li     7.403057    9.973787   14.049159    ( 0.0000,  0.0000,  0.0000)
  21 Li     9.869796   11.399109   15.063992    ( 0.0000,  0.0000,  0.0000)
  22 Li     4.935344    8.532534   16.028782    ( 0.0000,  0.0000,  0.0000)
  23 Li     7.398797    9.967638   17.047417    ( 0.0000,  0.0000,  0.0000)
  24 Li     4.935605    0.000000   10.000000    ( 0.0000,  0.0000,  0.0000)
  25 Li     7.403408    1.424787   11.007476    ( 0.0000,  0.0000,  0.0000)
  26 Li     9.871211    2.849573   12.014952    ( 0.0000,  0.0000,  0.0000)
  27 Li     4.935605    0.000000   13.022429    ( 0.0000,  0.0000,  0.0000)
  28 Li     7.403777    1.424960   14.049197    ( 0.0000,  0.0000,  0.0000)
  29 Li     9.870647    2.849898   15.060997    ( 0.0000,  0.0000,  0.0000)
  30 Li     4.935632   -0.002831   15.988607    ( 0.0000,  0.0000,  0.0000)
  31 Li     7.400694    1.431880   17.047120    ( 0.0000,  0.0000,  0.0000)
  32 Li     7.403408    4.274360   10.000000    ( 0.0000,  0.0000,  0.0000)
  33 Li     9.871211    5.699146   11.007476    ( 0.0000,  0.0000,  0.0000)
  34 Li    12.339013    7.123933   12.014952    ( 0.0000,  0.0000,  0.0000)
  35 Li     7.403408    4.274360   13.022429    ( 0.0000,  0.0000,  0.0000)
  36 Li     9.871245    5.698740   14.049197    ( 0.0000,  0.0000,  0.0000)
  37 Li    12.338745    7.122920   15.063920    ( 0.0000,  0.0000,  0.0000)
  38 Li     7.389730    4.282256   16.028717    ( 0.0000,  0.0000,  0.0000)
  39 Li     9.863711    5.697950   17.047120    ( 0.0000,  0.0000,  0.0000)
  40 Li     9.871211    8.548719   10.000000    ( 0.0000,  0.0000,  0.0000)
  41 Li    12.339013    9.973506   11.007476    ( 0.0000,  0.0000,  0.0000)
  42 Li    14.806816   11.398292   12.014952    ( 0.0000,  0.0000,  0.0000)
  43 Li     9.871211    8.548719   13.022429    ( 0.0000,  0.0000,  0.0000)
  44 Li    12.339061    9.973478   14.049051    ( 0.0000,  0.0000,  0.0000)
  45 Li    14.807559   11.399031   15.063920    ( 0.0000,  0.0000,  0.0000)
  46 Li     9.873676    8.550112   15.988607    ( 0.0000,  0.0000,  0.0000)
  47 Li    12.338973    9.973529   17.040911    ( 0.0000,  0.0000,  0.0000)
  48 Li     9.871211    0.000000   10.000000    ( 0.0000,  0.0000,  0.0000)
  49 Li    12.339013    1.424787   11.007476    ( 0.0000,  0.0000,  0.0000)
  50 Li    14.806816    2.849573   12.014952    ( 0.0000,  0.0000,  0.0000)
  51 Li     9.871211    0.000000   13.022429    ( 0.0000,  0.0000,  0.0000)
  52 Li    12.338807    1.424906   14.049913    ( 0.0000,  0.0000,  0.0000)
  53 Li    14.806520    2.850032   15.061266    ( 0.0000,  0.0000,  0.0000)
  54 Li     9.870442   -0.000484   15.990179    ( 0.0000,  0.0000,  0.0000)
  55 Li    12.339056    1.424762   17.040602    ( 0.0000,  0.0000,  0.0000)
  56 Li    12.339013    4.274360   10.000000    ( 0.0000,  0.0000,  0.0000)
  57 Li    14.806816    5.699146   11.007476    ( 0.0000,  0.0000,  0.0000)
  58 Li    17.274619    7.123933   12.014952    ( 0.0000,  0.0000,  0.0000)
  59 Li    12.339013    4.274360   13.022429    ( 0.0000,  0.0000,  0.0000)
  60 Li    14.806606    5.698891   14.049177    ( 0.0000,  0.0000,  0.0000)
  61 Li    17.272087    7.125394   15.062196    ( 0.0000,  0.0000,  0.0000)
  62 Li    12.339049    4.275267   15.990179    ( 0.0000,  0.0000,  0.0000)
  63 Li    14.814470    5.698008   17.047140    ( 0.0000,  0.0000,  0.0000)
  64 Li    14.806816    8.548719   10.000000    ( 0.0000,  0.0000,  0.0000)
  65 Li    17.274619    9.973506   11.007476    ( 0.0000,  0.0000,  0.0000)
  66 Li    19.742421   11.398292   12.014952    ( 0.0000,  0.0000,  0.0000)
  67 Li    14.806816    8.548719   13.022429    ( 0.0000,  0.0000,  0.0000)
  68 Li    17.274734    9.973815   14.049177    ( 0.0000,  0.0000,  0.0000)
  69 Li    19.741876   11.398319   15.061266    ( 0.0000,  0.0000,  0.0000)
  70 Li    14.804526    8.550041   15.988529    ( 0.0000,  0.0000,  0.0000)
  71 Li    17.279431    9.967446   17.047140    ( 0.0000,  0.0000,  0.0000)
  72 Li     4.935733    5.699073   19.382076    ( 0.0000,  0.0000,  0.0000)

Unit cell:
           periodic     x           y           z      points  spacing
  1. axis:    yes   14.806816    0.000000    0.000000    49     0.2617
  2. axis:    yes    7.403408   12.823079    0.000000    49     0.2617
  3. axis:    no     0.000000    0.000000   27.052334    90     0.3006

  Lengths:  14.806816  14.806816  27.052334
  Angles:   90.000000  90.000000  60.000000

Effective grid spacing dv^(1/3) = 0.2875

     iter     time        total  log10-change:
                         energy   eigst   dens
iter:   1 15:43:23  -124.971669   -3.41
iter:   2 15:43:33  -124.965682   -4.82  -2.02
iter:   3 15:43:43  -124.963872c  -3.67  -2.17
iter:   4 15:43:54  -124.962151c  -4.28  -2.47
iter:   5 15:44:05  -124.960927c  -5.07  -2.47
iter:   6 15:44:16  -124.961082c  -5.26  -2.79
iter:   7 15:44:27  -124.961348c  -5.54c -3.19
iter:   8 15:44:36  -124.961264c  -5.98c -3.30
iter:   9 15:44:47  -124.961190c  -6.12c -3.33
iter:  10 15:44:58  -124.961300c  -6.39c -3.52
iter:  11 15:45:07  -124.961281c  -6.50c -3.66
iter:  12 15:45:18  -124.961244c  -6.46c -3.81
iter:  13 15:45:28  -124.961220c  -6.47c -3.94
iter:  14 15:45:39  -124.961222c  -6.46c -4.07c

Converged after 14 iterations.

Dipole moment: (-10.428860, -4.804440, 0.354957) |e|*Ang

Energy contributions relative to reference atoms: (reference = -14803.510878)

Kinetic:        +91.824293
Potential:      -84.028777
External:        +0.000000
XC:            -131.732317
Entropy (-ST):   -1.163391
Local:           -0.442725
SIC:             +0.000000
--------------------------
Free energy:   -125.542917
Extrapolated:  -124.961222

Showing all kpts
 Kpt  Band  Eigenvalues  Occupancy
  0    34     -1.87185    1.34407
  0    35     -1.75679    0.78674
  0    36     -1.72800    0.65432
  0    37     -1.71870    0.61405

  1    34     -1.90160    1.46797
  1    35     -1.90069    1.46438
  1    36     -1.86491    1.31313
  1    37     -1.77997    0.89963


Fermi level: -1.80011

No gap
No difference between direct/indirect transitions

Forces in eV/Ang:
  0 Li    0.00049   -0.00028    0.03601
  1 Li    0.00009    0.00449    0.19755
  2 Li    0.00138   -0.00934   -0.08938
  3 Li   -0.00067    0.00039   -0.09356
  4 Li   -0.00168   -0.00075    0.04653
  5 Li   -0.00053   -0.01477    0.03096
  6 Li    0.00235   -0.00136   -0.13925
  7 Li    0.00509    0.00736   -0.01641
  8 Li   -0.00437   -0.00190    0.04703
  9 Li   -0.00028    0.00016    0.14356
 10 Li    0.00878    0.00348   -0.08938
 11 Li    0.01301    0.00766   -0.02423
 12 Li   -0.00077    0.00045   -0.30935
 13 Li    0.01252    0.00784    0.03096
 14 Li   -0.00982   -0.00498   -0.06376
 15 Li   -0.00027    0.00016    0.11261
 16 Li   -0.00054    0.00473    0.04703
 17 Li   -0.00384   -0.00233    0.19755
 18 Li    0.00121   -0.00070   -0.07344
 19 Li   -0.00013   -0.01510   -0.02423
 20 Li   -0.00019    0.00183    0.04653
 21 Li   -0.00283    0.00164    0.06114
 22 Li   -0.00060    0.01099   -0.06376
 23 Li   -0.00383   -0.00809   -0.01641
 24 Li   -0.00027    0.00934    0.03487
 25 Li    0.00061    0.00453    0.19790
 26 Li    0.00109   -0.00063   -0.08117
 27 Li    0.00067   -0.00030   -0.09264
 28 Li    0.00152   -0.00105    0.04645
 29 Li   -0.00682    0.00394    0.06103
 30 Li    0.00021   -0.00575   -0.14569
 31 Li   -0.00482    0.00737   -0.01710
 32 Li    0.00420   -0.00242    0.04621
 33 Li   -0.00362   -0.00280    0.19790
 34 Li    0.00217   -0.00102   -0.07345
 35 Li   -0.01267    0.00731   -0.02388
 36 Li    0.00167   -0.00079    0.04645
 37 Li   -0.00060   -0.00176    0.06125
 38 Li    0.00982   -0.00567   -0.06407
 39 Li   -0.00879    0.00049   -0.01710
 40 Li   -0.00823   -0.00443    0.03487
 41 Li    0.00080   -0.00046    0.20564
 42 Li    0.00197   -0.00137   -0.07345
 43 Li    0.00060   -0.00043   -0.09264
 44 Li    0.00012   -0.00007    0.04320
 45 Li    0.00123    0.00140    0.06125
 46 Li    0.00509    0.00270   -0.14569
 47 Li   -0.00007    0.00004   -0.02942
 48 Li   -0.00070    0.00026    0.03675
[...]
  2 Li    0.00171   -0.01944   -0.08652
  3 Li   -0.00641    0.00370   -0.17738
  4 Li   -0.00698   -0.00016    0.03109
  5 Li   -0.00062   -0.00324    0.00241
  6 Li    0.01387   -0.00801    0.00165
  7 Li   -0.01285    0.01211   -0.00502
  8 Li   -0.00484   -0.00211    0.08071
  9 Li    0.00060   -0.00035   -0.21087
 10 Li    0.01769    0.00824   -0.08652
 11 Li   -0.01280   -0.00490   -0.07341
 12 Li    0.00049   -0.00028    0.00713
 13 Li    0.00250    0.00215    0.00241
 14 Li   -0.01291   -0.00744    0.03648
 15 Li   -0.00021    0.00012   -0.02440
 16 Li   -0.00059    0.00525    0.08071
 17 Li   -0.00019    0.00293    0.18216
 18 Li    0.00118   -0.00068   -0.05760
 19 Li   -0.00216    0.01354   -0.07341
 20 Li   -0.00335    0.00612    0.03109
 21 Li    0.00623   -0.00360   -0.00003
 22 Li   -0.00002    0.01490    0.03648
 23 Li   -0.01691    0.00507   -0.00502
 24 Li   -0.00095    0.00523    0.03811
 25 Li    0.00423   -0.00141    0.18298
 26 Li    0.00661   -0.00382   -0.06052
 27 Li   -0.00004    0.00185   -0.21196
 28 Li    0.00767   -0.00040    0.03076
 29 Li   -0.01004    0.00580   -0.00827
 30 Li   -0.00013   -0.04923    0.00404
 31 Li    0.01313    0.01195   -0.00451
 32 Li    0.00382   -0.00221    0.08059
 33 Li    0.00334   -0.00296    0.18298
 34 Li    0.00255   -0.00082   -0.05604
 35 Li    0.01064   -0.00614   -0.07229
 36 Li    0.00418   -0.00644    0.03076
 37 Li    0.00097    0.00797   -0.00109
 38 Li    0.01165   -0.00673    0.03681
 39 Li   -0.00378   -0.01735   -0.00451
 40 Li   -0.00500   -0.00180    0.03811
 41 Li    0.00133   -0.00077    0.17905
 42 Li    0.00198   -0.00180   -0.05604
 43 Li   -0.00162   -0.00089   -0.21196
 44 Li    0.00016   -0.00009    0.03319
 45 Li   -0.00642   -0.00483   -0.00109
 46 Li    0.04257    0.02473    0.00404
 47 Li    0.00064   -0.00037   -0.00292
 48 Li   -0.00011    0.00025    0.03946
 49 Li   -0.00172    0.00100    0.17585
 50 Li   -0.00388   -0.00177   -0.06027
 51 Li    0.00537    0.00359   -0.17813
 52 Li   -0.00110    0.00064    0.02749
 53 Li    0.01103    0.00588   -0.00828
 54 Li   -0.01411   -0.00692    0.00082
 55 Li   -0.00039    0.00023    0.01467
 56 Li   -0.00027   -0.00003    0.03946
 57 Li   -0.00333   -0.00094    0.18295
 58 Li   -0.01687    0.00974   -0.08837
 59 Li   -0.00043   -0.00644   -0.17813
 60 Li   -0.00461   -0.00610    0.03045
 61 Li   -0.00166    0.00096    0.00177
 62 Li   -0.00106    0.01569    0.00082
 63 Li    0.00351   -0.01708   -0.00436
 64 Li    0.00443   -0.00256    0.03963
 65 Li   -0.00085    0.00336    0.18295
 66 Li   -0.00041    0.00424   -0.06027
 67 Li    0.00036   -0.00021   -0.21381
 68 Li    0.00298    0.00704    0.03045
 69 Li    0.00043   -0.01249   -0.00828
 70 Li   -0.04522    0.02611    0.00325
 71 Li    0.01655    0.00550   -0.00436
 72 Li    0.00267   -0.00154   -0.02896

System changes: positions 

Initializing position-dependent things.

Density initialized from wave functions
                                                                       
                                                                       
                                                                       
                                                                       
                                                                       
                                                                       
                                                                       
                      Li       Li          Li          Li              
                                      Li          Li          Li       
                        Li         Lii         Lii                     
                      Li       Li          Li          Li              
                Li          Lii         Lii          Li                
              Li        LiLi        LiLi        LiLi          Li       
                     Lii         LiLi        LiLi                      
       Li          Li          Li          Li          Li              
              LiLi        LiLii       LiLii          Li                
                        Li          Li          Li                     
       Li          LiLii       LiLii         LiLi                      
                                                                       
              LiLi        LiLi        LiLi                             
                                                                       
       Li          Li          Li                                      
                                                                       
                                                                       
                                                                       
                                                                       

Atomic positions and initial magnetic moments

Positions:
   0 Li     0.000000    0.000000   10.000000    ( 0.0000,  0.0000,  0.0000)
   1 Li     2.467803    1.424787   11.007476    ( 0.0000,  0.0000,  0.0000)
   2 Li     4.935605    2.849573   12.014952    ( 0.0000,  0.0000,  0.0000)
   3 Li     0.000000    0.000000   13.022429    ( 0.0000,  0.0000,  0.0000)
   4 Li     2.458880    1.423527   14.030716    ( 0.0000,  0.0000,  0.0000)
   5 Li     4.934622    2.861336   15.035804    ( 0.0000,  0.0000,  0.0000)
   6 Li     0.006441   -0.003719   15.852899    ( 0.0000,  0.0000,  0.0000)
   7 Li     2.524819    1.404921   16.981940    ( 0.0000,  0.0000,  0.0000)
   8 Li     2.467803    4.274360   10.000000    ( 0.0000,  0.0000,  0.0000)
   9 Li     4.935605    5.699146   11.007476    ( 0.0000,  0.0000,  0.0000)
  10 Li     7.403408    7.123933   12.014952    ( 0.0000,  0.0000,  0.0000)
  11 Li     2.467803    4.274360   13.022429    ( 0.0000,  0.0000,  0.0000)
  12 Li     4.933981    5.700084   13.574423    ( 0.0000,  0.0000,  0.0000)
  13 Li     7.392729    7.118903   15.035804    ( 0.0000,  0.0000,  0.0000)
  14 Li     2.466997    4.278289   15.928636    ( 0.0000,  0.0000,  0.0000)
  15 Li     4.932458    5.700963   16.042271    ( 0.0000,  0.0000,  0.0000)
  16 Li     4.935605    8.548719   10.000000    ( 0.0000,  0.0000,  0.0000)
  17 Li     7.403408    9.973506   11.007476    ( 0.0000,  0.0000,  0.0000)
  18 Li     9.871211   11.398292   12.014952    ( 0.0000,  0.0000,  0.0000)
  19 Li     4.935605    8.548719   13.022429    ( 0.0000,  0.0000,  0.0000)
  20 Li     7.400037    9.981863   14.030716    ( 0.0000,  0.0000,  0.0000)
  21 Li     9.871324   11.398227   15.080857    ( 0.0000,  0.0000,  0.0000)
  22 Li     4.931800    8.547452   15.928636    ( 0.0000,  0.0000,  0.0000)
  23 Li     7.449120    9.934061   16.981940    ( 0.0000,  0.0000,  0.0000)
  24 Li     4.935605    0.000000   10.000000    ( 0.0000,  0.0000,  0.0000)
  25 Li     7.403408    1.424787   11.007476    ( 0.0000,  0.0000,  0.0000)
  26 Li     9.871211    2.849573   12.014952    ( 0.0000,  0.0000,  0.0000)
  27 Li     4.935605    0.000000   13.022429    ( 0.0000,  0.0000,  0.0000)
  28 Li     7.411044    1.422080   14.030164    ( 0.0000,  0.0000,  0.0000)
  29 Li     9.876913    2.846281   15.095530    ( 0.0000,  0.0000,  0.0000)
  30 Li     4.935052    0.030160   15.799370    ( 0.0000,  0.0000,  0.0000)
  31 Li     7.345329    1.403680   16.980567    ( 0.0000,  0.0000,  0.0000)
  32 Li     7.403408    4.274360   10.000000    ( 0.0000,  0.0000,  0.0000)
  33 Li     9.871211    5.699146   11.007476    ( 0.0000,  0.0000,  0.0000)
  34 Li    12.339013    7.123933   12.014952    ( 0.0000,  0.0000,  0.0000)
  35 Li     7.403408    4.274360   13.022429    ( 0.0000,  0.0000,  0.0000)
  36 Li     9.877373    5.693886   14.030164    ( 0.0000,  0.0000,  0.0000)
  37 Li    12.337031    7.127572   15.081955    ( 0.0000,  0.0000,  0.0000)
  38 Li     7.400624    4.275967   15.929582    ( 0.0000,  0.0000,  0.0000)
  39 Li     9.860450    5.759997   16.980567    ( 0.0000,  0.0000,  0.0000)
  40 Li     9.871211    8.548719   10.000000    ( 0.0000,  0.0000,  0.0000)
  41 Li    12.339013    9.973506   11.007476    ( 0.0000,  0.0000,  0.0000)
  42 Li    14.806816   11.398292   12.014952    ( 0.0000,  0.0000,  0.0000)
  43 Li     9.871211    8.548719   13.022429    ( 0.0000,  0.0000,  0.0000)
  44 Li    12.339674    9.973124   14.001218    ( 0.0000,  0.0000,  0.0000)
  45 Li    14.802674   11.398189   15.081955    ( 0.0000,  0.0000,  0.0000)
  46 Li     9.844814    8.534118   15.799370    ( 0.0000,  0.0000,  0.0000)
  47 Li    12.338910    9.973566   16.924062    ( 0.0000,  0.0000,  0.0000)
  48 Li     9.871211    0.000000   10.000000    ( 0.0000,  0.0000,  0.0000)
  49 Li    12.339013    1.424787   11.007476    ( 0.0000,  0.0000,  0.0000)
  50 Li    14.806816    2.849573   12.014952    ( 0.0000,  0.0000,  0.0000)
  51 Li     9.871211    0.000000   13.022429    ( 0.0000,  0.0000,  0.0000)
  52 Li    12.337207    1.425829   14.020218    ( 0.0000,  0.0000,  0.0000)
  53 Li    14.795587    2.848113   15.096440    ( 0.0000,  0.0000,  0.0000)
  54 Li     9.859952   -0.004265   15.852795    ( 0.0000,  0.0000,  0.0000)
  55 Li    12.334788    1.427226   16.935526    ( 0.0000,  0.0000,  0.0000)
  56 Li    12.339013    4.274360   10.000000    ( 0.0000,  0.0000,  0.0000)
  57 Li    14.806816    5.699146   11.007476    ( 0.0000,  0.0000,  0.0000)
  58 Li    17.274619    7.123933   12.014952    ( 0.0000,  0.0000,  0.0000)
  59 Li    12.339013    4.274360   13.022429    ( 0.0000,  0.0000,  0.0000)
  60 Li    14.798585    5.695140   14.029492    ( 0.0000,  0.0000,  0.0000)
  61 Li    17.279422    7.121159   15.033239    ( 0.0000,  0.0000,  0.0000)
  62 Li    12.337077    4.286243   15.852795    ( 0.0000,  0.0000,  0.0000)
  63 Li    14.814254    5.761628   16.979327    ( 0.0000,  0.0000,  0.0000)
  64 Li    14.806816    8.548719   10.000000    ( 0.0000,  0.0000,  0.0000)
  65 Li    17.274619    9.973506   11.007476    ( 0.0000,  0.0000,  0.0000)
  66 Li    19.742421   11.398292   12.014952    ( 0.0000,  0.0000,  0.0000)
  67 Li    14.806816    8.548719   13.022429    ( 0.0000,  0.0000,  0.0000)
  68 Li    17.273973    9.982638   14.029492    ( 0.0000,  0.0000,  0.0000)
  69 Li    19.738072   11.408747   15.096440    ( 0.0000,  0.0000,  0.0000)
  70 Li    14.831606    8.534407   15.798035    ( 0.0000,  0.0000,  0.0000)
  71 Li    17.224227    9.935824   16.979327    ( 0.0000,  0.0000,  0.0000)
  72 Li     4.941077    5.695987   18.619008    ( 0.0000,  0.0000,  0.0000)

Unit cell:
           periodic     x           y           z      points  spacing
  1. axis:    yes   14.806816    0.000000    0.000000    49     0.2617
  2. axis:    yes    7.403408   12.823079    0.000000    49     0.2617
  3. axis:    no     0.000000    0.000000   27.052334    90     0.3006

  Lengths:  14.806816  14.806816  27.052334
  Angles:   90.000000  90.000000  60.000000

Effective grid spacing dv^(1/3) = 0.2875

     iter     time        total  log10-change:
                         energy   eigst   dens
iter:   1 18:21:18  -125.165034   -3.88
iter:   2 18:21:24  -125.160873   -4.47  -2.22
iter:   3 18:21:29  -125.160383c  -4.78  -2.69
iter:   4 18:21:36  -125.159812c  -5.40c -2.90
iter:   5 18:21:41  -125.159788c  -5.47c -3.18
iter:   6 18:21:48  -125.159925c  -5.79c -3.25
iter:   7 18:21:54  -125.159877c  -6.74c -3.34
iter:   8 18:22:00  -125.159841c  -6.33c -3.40
iter:   9 18:22:09  -125.159857c  -7.42c -3.95
iter:  10 18:22:17  -125.159839c  -7.78c -4.08c

Converged after 10 iterations.

Dipole moment: (-10.097295, -5.341357, 0.334171) |e|*Ang

Energy contributions relative to reference atoms: (reference = -14803.510878)

Kinetic:        +98.991888
Potential:      -88.628128
External:        +0.000000
XC:            -134.489693
Entropy (-ST):   -1.152467
Local:           -0.457672
SIC:             +0.000000
--------------------------
Free energy:   -125.736072
Extrapolated:  -125.159839

Showing all kpts
 Kpt  Band  Eigenvalues  Occupancy
  0    34     -1.81130    1.10053
  0    35     -1.77361    0.91263
  0    36     -1.74229    0.76052
  0    37     -1.69343    0.54696

  1    34     -1.93298    1.61020
  1    35     -1.92931    1.59854
  1    36     -1.82450    1.16531
  1    37     -1.72369    0.67500


Fermi level: -1.79113

No gap
No difference between direct/indirect transitions

Forces in eV/Ang:
  0 Li    0.00013   -0.00008    0.03668
  1 Li   -0.00248   -0.00123    0.18285
  2 Li    0.00172   -0.01931   -0.08660
  3 Li   -0.00643    0.00371   -0.17667
  4 Li   -0.00643   -0.00014    0.03034
  5 Li   -0.00060   -0.00418    0.00370
  6 Li    0.01332   -0.00769    0.00051
  7 Li   -0.01226    0.01161   -0.00520
  8 Li   -0.00499   -0.00218    0.08007
  9 Li    0.00058   -0.00033   -0.20178
 10 Li    0.01758    0.00817   -0.08660
 11 Li   -0.01268   -0.00484   -0.07249
 12 Li    0.00048   -0.00028   -0.00489
 13 Li    0.00332    0.00261    0.00370
 14 Li   -0.01145   -0.00657    0.03467
 15 Li   -0.00028    0.00016   -0.02808
 16 Li   -0.00060    0.00541    0.08007
 17 Li   -0.00017    0.00276    0.18285
 18 Li    0.00125   -0.00072   -0.05775
 19 Li   -0.00215    0.01340   -0.07249
 20 Li   -0.00309    0.00564    0.03034
 21 Li    0.00553   -0.00319    0.00056
 22 Li   -0.00003    0.01320    0.03467
 23 Li   -0.01619    0.00482   -0.00520
 24 Li   -0.00095    0.00528    0.03814
 25 Li    0.00405   -0.00134    0.18366
 26 Li    0.00661   -0.00382   -0.06073
 27 Li   -0.00005    0.00228   -0.21073
 28 Li    0.00709   -0.00036    0.03005
 29 Li   -0.00916    0.00529   -0.00726
 30 Li   -0.00010   -0.04696    0.00281
 31 Li    0.01253    0.01146   -0.00471
 32 Li    0.00395   -0.00228    0.07996
 33 Li    0.00318   -0.00284    0.18366
 34 Li    0.00254   -0.00074   -0.05622
 35 Li    0.01052   -0.00607   -0.07137
 36 Li    0.00386   -0.00596    0.03005
 37 Li    0.00087    0.00718   -0.00048
 38 Li    0.01027   -0.00593    0.03499
 39 Li   -0.00366   -0.01658   -0.00471
 40 Li   -0.00504   -0.00182    0.03814
 41 Li    0.00134   -0.00077    0.17985
 42 Li    0.00192   -0.00183   -0.05622
 43 Li   -0.00200   -0.00110   -0.21073
 44 Li    0.00016   -0.00009    0.03229
 45 Li   -0.00579   -0.00435   -0.00048
 46 Li    0.04062    0.02357    0.00281
 47 Li    0.00061   -0.00035   -0.00269
 48 Li    0.00015    0.00040    0.03951
 49 Li   -0.00173    0.00100    0.17634
 50 Li   -0.00387   -0.00178   -0.06044
 51 Li    0.00538    0.00359   -0.17748
 52 Li   -0.00104    0.00060    0.02690
 53 Li    0.01000    0.00534   -0.00728
 54 Li   -0.01353   -0.00667   -0.00031
 55 Li   -0.00037    0.00022    0.01373
 56 Li   -0.00027   -0.00033    0.03951
 57 Li   -0.00317   -0.00083    0.18365
 58 Li   -0.01675    0.00967   -0.08849
 59 Li   -0.00042   -0.00646   -0.17748
 60 Li   -0.00423   -0.00564    0.02973
 61 Li   -0.00261    0.00151    0.00311
 62 Li   -0.00099    0.01505   -0.00031
 63 Li    0.00339   -0.01630   -0.00457
 64 Li    0.00447   -0.00258    0.03967
 65 Li   -0.00087    0.00316    0.18365
 66 Li   -0.00039    0.00424   -0.06044
 67 Li    0.00073   -0.00042   -0.21260
 68 Li    0.00277    0.00648    0.02973
 69 Li    0.00037   -0.01133   -0.00728
 70 Li   -0.04307    0.02487    0.00205
 71 Li    0.01581    0.00521   -0.00457
 72 Li    0.00269   -0.00155   -0.02237

Timing:                                      incl.     excl.
-------------------------------------------------------------------
Density initialized from wave functions:    35.486    35.354   0.3% |
 Symmetrize density:                         0.132     0.132   0.0% |
Forces:                                    183.402   183.402   1.7% ||
Hamiltonian:                                60.127     0.180   0.0% |
 Atomic:                                    25.586     0.104   0.0% |
  XC Correction:                            25.482    25.482   0.2% |
 Calculate atomic Hamiltonians:             24.046    24.046   0.2% |
 Communicate:                                0.000     0.000   0.0% |
 Initialize Hamiltonian:                     0.001     0.001   0.0% |
 Poisson:                                    0.188     0.188   0.0% |
 XC 3D grid:                                10.127    10.127   0.1% |
LCAO initialization:                        27.993     0.014   0.0% |
 LCAO eigensolver:                           0.630     0.002   0.0% |
  Calculate projections:                     0.005     0.005   0.0% |
  DenseAtomicCorrection:                     0.069     0.069   0.0% |
  Distribute overlap matrix:                 0.001     0.001   0.0% |
  Orbital Layouts:                           0.122     0.122   0.0% |
  Potential matrix:                          0.427     0.427   0.0% |
  Sum over cells:                            0.005     0.005   0.0% |
 LCAO to grid:                              26.270    26.270   0.2% |
 Set positions (LCAO WFS):                   1.080     0.259   0.0% |
  Basic WFS set positions:                   0.002     0.002   0.0% |
  Basis functions set positions:             0.000     0.000   0.0% |
  P tci:                                     0.618     0.618   0.0% |
  ST tci:                                    0.148     0.148   0.0% |
  mktci:                                     0.053     0.053   0.0% |
PWDescriptor:                                0.023     0.023   0.0% |
Redistribute:                                0.082     0.082   0.0% |
SCF-cycle:                               10371.862     0.416   0.0% |
 Davidson:                                5263.430  2616.593  24.3% |---------|
  Apply H:                                 369.009   365.879   3.4% ||
   HMM T:                                    3.130     3.130   0.0% |
  Subspace diag:                          1377.994     0.146   0.0% |
   calc_h_matrix:                          395.470    21.842   0.2% |
    Apply H:                               373.628   369.464   3.4% ||
     HMM T:                                  4.164     4.164   0.0% |
   diagonalize:                              0.845     0.845   0.0% |
   rotate_psi:                             981.534   981.534   9.1% |---|
  calc. matrices:                          842.888   105.115   1.0% |
   Apply H:                                737.773   730.792   6.8% |--|
    HMM T:                                   6.981     6.981   0.1% |
  diagonalize:                               6.135     6.135   0.1% |
  rotate_psi:                               50.811    50.811   0.5% |
 Density:                                 1287.905     0.021   0.0% |
  Atomic density matrices:                   1.603     1.603   0.0% |
  Mix:                                     298.943   298.943   2.8% ||
  Multipole moments:                         0.314     0.314   0.0% |
  Pseudo density:                          987.023   985.269   9.2% |---|
   Symmetrize density:                       1.755     1.755   0.0% |
 Hamiltonian:                             3812.502     2.190   0.0% |
  Atomic:                                 2304.106     1.480   0.0% |
   XC Correction:                         2302.627  2302.627  21.4% |--------|
  Calculate atomic Hamiltonians:          1363.415  1363.415  12.7% |----|
  Communicate:                               0.050     0.050   0.0% |
  Poisson:                                   1.296     1.296   0.0% |
  XC 3D grid:                              141.443   141.443   1.3% ||
 Orthonormalize:                             7.610     0.012   0.0% |
  calc_s_matrix:                             0.768     0.768   0.0% |
  inverse-cholesky:                          0.033     0.033   0.0% |
  projections:                               5.797     5.797   0.1% |
  rotate_psi_s:                              1.001     1.001   0.0% |
Set symmetry:                                0.002     0.002   0.0% |
Other:                                      73.796    73.796   0.7% |
-------------------------------------------------------------------
Total:                                             10752.774 100.0%

Memory usage: 2.32 GiB
Date: Mon Nov 24 18:22:24 2025
