
  ___ ___ ___ _ _ _  
 |   |   |_  | | | | 
 | | | | | . | | | | 
 |__ |  _|___|_____|  25.7.0
 |___|_|             

User:   tew@Mathuss-MacBook-Air-357.local
Date:   Tue Nov 25 00:14:31 2025
Arch:   arm64
Pid:    76608
CWD:    /Users/tew/Documents/Project/GitHub/chem-com
Python: 3.13.5
gpaw:   /Users/tew/Documents/Project/GitHub/chem-com/.venv/lib/python3.13/site-packages/gpaw
_gpaw:  /Users/tew/Documents/Project/GitHub/chem-com/.venv/lib/python3.13/site-packages/
        _gpaw.cpython-313-darwin.so
ase:    /Users/tew/Documents/Project/GitHub/chem-com/.venv/lib/python3.13/site-packages/ase (version 3.26.0)
numpy:  /Users/tew/Documents/Project/GitHub/chem-com/.venv/lib/python3.13/site-packages/numpy (version 2.3.5)
scipy:  /Users/tew/Documents/Project/GitHub/chem-com/.venv/lib/python3.13/site-packages/scipy (version 1.16.3)
libxc:  2.x.y
units:  Angstrom and eV
cores: 1
OpenMP: False
OMP_NUM_THREADS: 1

Input parameters:
  convergence: {density: 0.0001,
                eigenstates: 5e-06}
  kpts: [2 2 1]
  mode: {ecut: 200.0,
         name: pw}
  xc: PBE

System changes: positions, numbers, cell, pbc, initial_charges, initial_magmoms 

Initialize ...

species:
  Li:
    name: Lithium
    id: 830b4218f175192f93f959cfc0aad614
    Z: 3.0
    valence: 1
    core: 2
    charge: 0.0
    file: /Users/tew/Documents/Project/GitHub/chem-com/.venv/lib/python3.13/site-packages/gpaw_data/setups/Li.PBE.gz
    compensation charges: {type: gauss,
                           rc: 0.33,
                           lmax: 2}
    cutoffs: {filter: 1.91,
              core: 2.55}
    projectors:
      #              energy  rcut
      - 2s(1.00)    -2.874   1.058
      - 2p(0.00)    -1.090   1.058
      -  s          24.337   1.058
  
    # Using partial waves for Li as LCAO basis

Reference energy: -14803.510878  # eV

Spin-paired calculation

Convergence criteria:
 Maximum [total energy] change in last 3 cyles: 0.0005 eV / valence electron
 Maximum integral of absolute [dens]ity change: 0.0001 electrons / valence electron
 Maximum integral of absolute [eigenst]ate change: 5e-06 eV^2 / valence electron
 Maximum number of scf [iter]ations: 333
 (Square brackets indicate name in SCF output, whereas a 'c' in
 the SCF output indicates the quantity has converged.)

Symmetries present (total): 1

  ( 1  0  0)
  ( 0  1  0)
  ( 0  0  1)

4 k-points: 2 x 2 x 1 Monkhorst-Pack grid
2 k-points in the irreducible part of the Brillouin zone
       k-points in crystal coordinates                weights
   0:     0.25000000   -0.25000000    0.00000000          2/4
   1:     0.25000000    0.25000000    0.00000000          2/4

Wave functions: Plane wave expansion
  Cutoff energy: 200.000 eV
  Number of coefficients (min, max): 22683, 22683
  Pulay-stress correction: 0.000000 eV/Ang^3 (de/decut=0.000000)
  Using Numpy's FFT
  ScaLapack parameters: grid=1x1, blocksize=None
  Wavefunction extrapolation:
    Improved wavefunction reuse through dual PAW basis 

Occupation numbers: Fermi-Dirac:
  width: 0.1000  # eV
 

Eigensolver
   Davidson(niter=2) 

Densities:
  Coarse grid: 35*35*108 grid
  Fine grid: 70*70*216 grid
  Total Charge: 0.000000 

Density mixing:
  Method: separate
  Backend: pulay
  Linear mixing parameter: 0.05
  old densities: 5
  Damping of long wavelength oscillations: 50 

Hamiltonian:
  XC and Coulomb potentials evaluated on a 70*70*216 grid
  Using the PBE Exchange-Correlation functional
  External potential:
    NoExternalPotential
 

XC parameters: PBE with 2 nearest neighbor stencil

Memory estimate:
  Process memory now: 4231.58 MiB
  Calculator: 138.59 MiB
    Density: 60.32 MiB
      Arrays: 26.24 MiB
      Localized functions: 23.99 MiB
      Mixer: 10.09 MiB
    Hamiltonian: 17.65 MiB
      Arrays: 17.16 MiB
      XC: 0.00 MiB
      Poisson: 0.00 MiB
      vbar: 0.49 MiB
    Wavefunctions: 60.62 MiB
      Arrays psit_nG: 33.23 MiB
      Eigensolver: 18.70 MiB
      Projections: 0.53 MiB
      Projectors: 2.42 MiB
      PW-descriptor: 5.74 MiB

Total number of cores used: 1

Number of atoms: 73
Number of atomic orbitals: 292
Number of bands in calculation: 48
Number of valence electrons: 73
Bands to converge: occupied

... initialized

Initializing position-dependent things.

Density initialized from atomic densities
Creating initial wave functions:
  48 bands from LCAO basis set

       .-------------------------.  
      /|                         |  
     / |                         |  
    /  |                         |  
   /   |                         |  
  /    |                         |  
 *     |                         |  
 |     |                         |  
 |     |                         |  
 |     |                         |  
 |     |                         |  
 |     |                         |  
 |     |                         |  
 |     |  Li       Li       Li   |  
 |     |Li                       |  
 |     Li       Li        Li     |  
 |     |Li                       |  
 |     Li     LLi     LiLi     Li|  
 |     |  Li       Li       Li   |  
 |     Li   Li  Li  Li       Li  |  
 |     |Li       Li       Li     |  
 |     |      Li  Li  Li       Li|  
 |    Li  Li   Li  Li  Li   Li   |  
 |     |    Li      Li       Li  |  
 |     |Li       Li       Li     |  
 |   Li|      Li  Li  Li         |  
 |    Li  Li   Li  Li   Li  Li   |  
 | Li  |    Li      Li           |  
 |     |Li       Li       Li     |  
 Li    |  Li      Li             |  
 |   LLi      LLi     LiLi       |  
 |     |                         |  
 | Li  |    Li      Li           |  
 |     |                         |  
 Li    |  Li      Li             |  
 |     |                         |  
 |     |                         |  
 |     |                         |  
 |     |                         |  
 |     |                         |  
 |     .-------------------------.  
 |    /                         /   
 |   /                         /    
 |  /                         /     
 | /                         /      
 |/                         /       
 *-------------------------*        

Atomic positions and initial magnetic moments

Positions:
   0 Li     0.000000    0.000000   10.000000    ( 0.0000,  0.0000,  0.0000)
   1 Li     1.745000    1.745000   11.745000    ( 0.0000,  0.0000,  0.0000)
   2 Li     0.000000    0.000000   13.490000    ( 0.0000,  0.0000,  0.0000)
   3 Li     1.745000    1.745000   15.235000    ( 0.0000,  0.0000,  0.0000)
   4 Li     0.017044   -0.004579   16.940959    ( 0.0000,  0.0000,  0.0000)
   5 Li     1.744996    1.768566   18.622791    ( 0.0000,  0.0000,  0.0000)
   6 Li     0.037982   -0.020882   20.458596    ( 0.0000,  0.0000,  0.0000)
   7 Li     1.744993    2.072180   22.177950    ( 0.0000,  0.0000,  0.0000)
   8 Li     0.000000    3.490000   10.000000    ( 0.0000,  0.0000,  0.0000)
   9 Li     1.745000    5.235000   11.745000    ( 0.0000,  0.0000,  0.0000)
  10 Li     0.000000    3.490000   13.490000    ( 0.0000,  0.0000,  0.0000)
  11 Li     1.745000    5.235000   15.235000    ( 0.0000,  0.0000,  0.0000)
  12 Li    -0.027443    3.471702   16.914389    ( 0.0000,  0.0000,  0.0000)
  13 Li     1.744998    5.230283   18.541955    ( 0.0000,  0.0000,  0.0000)
  14 Li    -0.125205    3.406557   20.323110    ( 0.0000,  0.0000,  0.0000)
  15 Li     1.745004    5.169569   21.553196    ( 0.0000,  0.0000,  0.0000)
  16 Li     0.000000    6.980000   10.000000    ( 0.0000,  0.0000,  0.0000)
  17 Li     1.745000    8.725000   11.745000    ( 0.0000,  0.0000,  0.0000)
  18 Li     0.000000    6.980000   13.490000    ( 0.0000,  0.0000,  0.0000)
  19 Li     1.745000    8.725000   15.235000    ( 0.0000,  0.0000,  0.0000)
  20 Li    -0.018542    7.002875   16.919736    ( 0.0000,  0.0000,  0.0000)
  21 Li     1.744995    8.706148   18.642987    ( 0.0000,  0.0000,  0.0000)
  22 Li    -0.092553    7.084323   20.350230    ( 0.0000,  0.0000,  0.0000)
  23 Li     1.744990    8.463255   22.334188    ( 0.0000,  0.0000,  0.0000)
  24 Li     3.490000    0.000000   10.000000    ( 0.0000,  0.0000,  0.0000)
  25 Li     5.235000    1.745000   11.745000    ( 0.0000,  0.0000,  0.0000)
  26 Li     3.490000    0.000000   13.490000    ( 0.0000,  0.0000,  0.0000)
  27 Li     5.235000    1.745000   15.235000    ( 0.0000,  0.0000,  0.0000)
  28 Li     3.472958   -0.004578   16.940969    ( 0.0000,  0.0000,  0.0000)
  29 Li     5.290472    1.684814   18.623742    ( 0.0000,  0.0000,  0.0000)
  30 Li     3.452013   -0.020883   20.458597    ( 0.0000,  0.0000,  0.0000)
  31 Li     5.178186    1.736374   22.294371    ( 0.0000,  0.0000,  0.0000)
  32 Li     3.490000    3.490000   10.000000    ( 0.0000,  0.0000,  0.0000)
  33 Li     5.235000    5.235000   11.745000    ( 0.0000,  0.0000,  0.0000)
  34 Li     3.490000    3.490000   13.490000    ( 0.0000,  0.0000,  0.0000)
  35 Li     5.235000    5.235000   15.235000    ( 0.0000,  0.0000,  0.0000)
  36 Li     3.517435    3.471705   16.914389    ( 0.0000,  0.0000,  0.0000)
  37 Li     5.223467    5.247045   18.639094    ( 0.0000,  0.0000,  0.0000)
  38 Li     3.615196    3.406556   20.323105    ( 0.0000,  0.0000,  0.0000)
  39 Li     4.909549    5.236721   22.326192    ( 0.0000,  0.0000,  0.0000)
  40 Li     3.490000    6.980000   10.000000    ( 0.0000,  0.0000,  0.0000)
  41 Li     5.235000    8.725000   11.745000    ( 0.0000,  0.0000,  0.0000)
  42 Li     3.490000    6.980000   13.490000    ( 0.0000,  0.0000,  0.0000)
  43 Li     5.235000    8.725000   15.235000    ( 0.0000,  0.0000,  0.0000)
  44 Li     3.508537    7.002872   16.919739    ( 0.0000,  0.0000,  0.0000)
  45 Li     5.307237    8.773143   18.619867    ( 0.0000,  0.0000,  0.0000)
  46 Li     3.582546    7.084325   20.350227    ( 0.0000,  0.0000,  0.0000)
  47 Li     5.245337    8.731900   22.286373    ( 0.0000,  0.0000,  0.0000)
  48 Li     6.980000    0.000000   10.000000    ( 0.0000,  0.0000,  0.0000)
  49 Li     8.725000    1.745000   11.745000    ( 0.0000,  0.0000,  0.0000)
  50 Li     6.980000    0.000000   13.490000    ( 0.0000,  0.0000,  0.0000)
  51 Li     8.725000    1.745000   15.235000    ( 0.0000,  0.0000,  0.0000)
  52 Li     6.980005    0.004323   16.833304    ( 0.0000,  0.0000,  0.0000)
  53 Li     8.669533    1.684803   18.623741    ( 0.0000,  0.0000,  0.0000)
  54 Li     6.980001    0.011769   20.483757    ( 0.0000,  0.0000,  0.0000)
  55 Li     8.781806    1.736376   22.294373    ( 0.0000,  0.0000,  0.0000)
  56 Li     6.980000    3.490000   10.000000    ( 0.0000,  0.0000,  0.0000)
  57 Li     8.725000    5.235000   11.745000    ( 0.0000,  0.0000,  0.0000)
  58 Li     6.980000    3.490000   13.490000    ( 0.0000,  0.0000,  0.0000)
  59 Li     8.725000    5.235000   15.235000    ( 0.0000,  0.0000,  0.0000)
  60 Li     6.980003    3.507292   16.946313    ( 0.0000,  0.0000,  0.0000)
  61 Li     8.736525    5.247048   18.639098    ( 0.0000,  0.0000,  0.0000)
  62 Li     6.980002    3.537088   20.485707    ( 0.0000,  0.0000,  0.0000)
  63 Li     9.050460    5.236720   22.326196    ( 0.0000,  0.0000,  0.0000)
  64 Li     6.980000    6.980000   10.000000    ( 0.0000,  0.0000,  0.0000)
  65 Li     8.725000    8.725000   11.745000    ( 0.0000,  0.0000,  0.0000)
  66 Li     6.980000    6.980000   13.490000    ( 0.0000,  0.0000,  0.0000)
  67 Li     8.725000    8.725000   15.235000    ( 0.0000,  0.0000,  0.0000)
  68 Li     6.980003    6.958387   16.923762    ( 0.0000,  0.0000,  0.0000)
  69 Li     8.652774    8.773150   18.619864    ( 0.0000,  0.0000,  0.0000)
  70 Li     6.980002    6.921142   20.485308    ( 0.0000,  0.0000,  0.0000)
  71 Li     8.714649    8.731899   22.286376    ( 0.0000,  0.0000,  0.0000)
  72 Li     1.744999    4.653334   23.980681    ( 0.0000,  0.0000,  0.0000)

Unit cell:
           periodic     x           y           z      points  spacing
  1. axis:    yes   10.470000    0.000000    0.000000    35     0.2991
  2. axis:    yes    0.000000   10.470000    0.000000    35     0.2991
  3. axis:    no     0.000000    0.000000   32.215000   108     0.2983

  Lengths:  10.470000  10.470000  32.215000
  Angles:   90.000000  90.000000  90.000000

Effective grid spacing dv^(1/3) = 0.2989

     iter     time        total  log10-change:
                         energy   eigst   dens
iter:   1 00:25:19  -137.521712
iter:   2 00:25:23  -133.193622   -0.74  -0.65
iter:   3 00:25:26  -132.794863   -1.24  -0.85
iter:   4 00:25:30  -132.830565   -1.56  -0.90
iter:   5 00:25:33  -131.861569   -1.77  -0.89
iter:   6 00:25:37  -132.174438   -1.35  -1.09
iter:   7 00:25:40  -131.506385   -2.22  -1.06
iter:   8 00:25:45  -131.569241   -1.55  -1.24
iter:   9 00:25:49  -131.344757   -2.59  -1.30
iter:  10 00:25:53  -131.346705   -2.75  -1.54
iter:  11 00:25:56  -131.348150c  -2.95  -1.58
iter:  12 00:26:00  -131.337479c  -3.21  -1.62
iter:  13 00:26:04  -131.363085c  -2.85  -1.71
iter:  14 00:26:08  -131.337797c  -3.58  -1.73
iter:  15 00:26:11  -131.333131c  -3.38  -1.97
iter:  16 00:26:16  -131.332090c  -3.47  -2.19
iter:  17 00:26:19  -131.326591c  -4.21  -2.08
iter:  18 00:26:24  -131.325527c  -3.98  -2.25
iter:  19 00:26:27  -131.326527c  -4.32  -2.70
iter:  20 00:26:31  -131.325282c  -4.64  -2.70
iter:  21 00:26:35  -131.325270c  -5.26  -2.94
iter:  22 00:26:39  -131.325530c  -4.71  -2.99
iter:  23 00:26:42  -131.324663c  -4.65  -2.94
iter:  24 00:26:46  -131.324652c  -5.15  -3.19
iter:  25 00:26:50  -131.324633c  -5.21  -3.35
iter:  26 00:26:53  -131.324578c  -4.90  -3.47
iter:  27 00:26:58  -131.324372c  -5.13  -3.53
iter:  28 00:27:01  -131.324345c  -5.60c -3.65
iter:  29 00:27:05  -131.324297c  -5.51c -3.71
iter:  30 00:27:09  -131.324146c  -5.07  -3.79
iter:  31 00:27:13  -131.324116c  -5.22  -3.80
iter:  32 00:27:17  -131.324088c  -5.40c -3.89
iter:  33 00:27:21  -131.324085c  -5.44c -4.00
iter:  34 00:27:25  -131.324025c  -5.38c -4.13c

Converged after 34 iterations.

Dipole moment: (2.881594, 0.578924, 0.280757) |e|*Ang

Energy contributions relative to reference atoms: (reference = -14803.510878)

Kinetic:       +102.610970
Potential:      -92.188907
External:        +0.000000
XC:            -140.651253
Entropy (-ST):   -1.210430
Local:           -0.489619
SIC:             +0.000000
--------------------------
Free energy:   -131.929240
Extrapolated:  -131.324025

Showing all kpts
 Kpt  Band  Eigenvalues  Occupancy
  0    34     -1.58309    1.61059
  0    35     -1.57072    1.57033
  0    36     -1.38525    0.72771
  0    37     -1.34353    0.54742

  1    34     -1.58309    1.61059
  1    35     -1.57072    1.57033
  1    36     -1.38525    0.72771
  1    37     -1.34353    0.54742


Fermi level: -1.44112

Gap: 0.185 eV
Transition (v -> c):
  (s=0, k=0, n=35, [0.25, -0.25, 0.00]) -> (s=0, k=1, n=36, [0.25, 0.25, 0.00])
Direct/indirect transitions are different
Direct gap: 0.185 eV
Transition at: (s=0, k=1, n=35, [0.25, 0.25, 0.00])

Forces in eV/Ang:
  0 Li    0.00374   -0.00120   -0.02964
  1 Li    0.00000   -0.00086    0.06221
  2 Li    0.00072   -0.00002    0.02736
  3 Li    0.00000    0.00704   -0.02287
  4 Li   -0.01093   -0.00085    0.00536
  5 Li    0.00000   -0.00613    0.04588
  6 Li    0.00950    0.00351   -0.02766
  7 Li    0.00000   -0.09876    0.01616
  8 Li   -0.00158   -0.00009   -0.03440
  9 Li    0.00000   -0.00070    0.06433
 10 Li    0.00060    0.00091    0.00379
 11 Li   -0.00000   -0.00172   -0.00650
 12 Li   -0.00449   -0.00227    0.00691
 13 Li   -0.00000    0.00433    0.03156
 14 Li   -0.00834   -0.00296   -0.02444
 15 Li   -0.00000    0.16224   -0.29240
 16 Li   -0.00005    0.00145   -0.03276
 17 Li    0.00000    0.00160    0.05918
 18 Li    0.00119   -0.00117    0.00988
 19 Li    0.00000   -0.00585   -0.03416
 20 Li   -0.00592    0.00342    0.00726
 21 Li    0.00000    0.00526    0.00455
 22 Li    0.00496   -0.00364   -0.03723
 23 Li    0.00000   -0.03511   -0.01399
 24 Li   -0.00374   -0.00120   -0.02964
 25 Li   -0.00111    0.00230    0.05966
 26 Li   -0.00072   -0.00002    0.02736
 27 Li   -0.00303    0.00234   -0.04432
 28 Li    0.01093   -0.00085    0.00535
 29 Li    0.00637   -0.00402    0.01250
 30 Li   -0.00950    0.00351   -0.02767
 31 Li    0.00603    0.01880    0.00313
 32 Li    0.00158   -0.00009   -0.03441
 33 Li    0.00128   -0.00123    0.06081
 34 Li   -0.00060    0.00091    0.00379
 35 Li   -0.00721   -0.00063   -0.03306
 36 Li    0.00450   -0.00228    0.00691
 37 Li    0.01058    0.00434    0.01049
 38 Li    0.00835   -0.00296   -0.02444
 39 Li   -0.00899   -0.01331   -0.00103
 40 Li    0.00005    0.00145   -0.03277
 41 Li   -0.00229   -0.00127    0.05816
 42 Li   -0.00119   -0.00117    0.00988
 43 Li   -0.00204   -0.00177   -0.04843
 44 Li    0.00593    0.00342    0.00725
 45 Li   -0.00285    0.00019    0.01543
 46 Li   -0.00495   -0.00364   -0.03723
 47 Li    0.00208   -0.00268   -0.01604
 48 Li    0.00000    0.00080   -0.03025
 49 Li    0.00111    0.00230    0.05966
 50 Li    0.00000    0.00067    0.00811
 51 Li    0.00303    0.00234   -0.04433
 52 Li   -0.00001   -0.00118    0.03180
 53 Li   -0.00637   -0.00401    0.01250
 54 Li   -0.00000    0.01036    0.00982
 55 Li   -0.00603    0.01880    0.00313
 56 Li   -0.00000    0.00349   -0.02931
 57 Li   -0.00129   -0.00123    0.06081
 58 Li    0.00000    0.00042    0.03070
 59 Li    0.00721   -0.00063   -0.03306
 60 Li   -0.00000   -0.00784    0.00685
 61 Li   -0.01058    0.00434    0.01048
 62 Li   -0.00000   -0.00273   -0.01844
 63 Li    0.00899   -0.01331   -0.00103
 64 Li   -0.00000   -0.00414   -0.02955
 65 Li    0.00229   -0.00127    0.05816
 66 Li    0.00000   -0.00154    0.02615
 67 Li    0.00203   -0.00177   -0.04844
 68 Li   -0.00000    0.00933    0.00921
 69 Li    0.00285    0.00018    0.01543
 70 Li   -0.00000   -0.00543   -0.00749
 71 Li   -0.00207   -0.00268   -0.01604
 72 Li   -0.00000   -0.03380    0.17718

System changes: positions 

Initializing position-dependent things.

Density initialized from wave functions
       .-------------------------.  
      /|                         |  
     / |                         |  
    /  |                         |  
   /   |                         |  
  /    |                         |  
 *     |                         |  
 |     |                         |  
 |     |                         |  
 |     |                         |  
 |     |                         |  
 |     |                         |  
 |     |                         |  
 |     |  Li       Li       Li   |  
 |     |Li                       |  
 |     Li       Li        Li     |  
 |     |Li                       |  
 |     Li     LLi     LiLi     Li|  
 |     |  Li       Li       Li   |  
 |     Li   Li  Li  Li       Li  |  
 |     |Li       Li       Li     |  
 |     |      Li  Li  Li       Li|  
 |    Li  Li   Li  Li  Li   Li   |  
 |     |    Li      Li       Li  |  
 |     |Li       Li       Li     |  
 |   Li|      Li  Li  Li         |  
 |    Li  Li   Li  Li   Li  Li   |  
 | Li  |    Li      Li           |  
 |     |Li       Li       Li     |  
 Li    |  Li      Li             |  
 |   LLi      LLi     LiLi       |  
 |     |                         |  
 | Li  |    Li      Li           |  
 |     |                         |  
 Li    |  Li      Li             |  
 |     |                         |  
 |     |                         |  
 |     |                         |  
 |     |                         |  
 |     |                         |  
 |     .-------------------------.  
 |    /                         /   
 |   /                         /    
 |  /                         /     
 | /                         /      
 |/                         /       
 *-------------------------*        

Atomic positions and initial magnetic moments

Positions:
   0 Li     0.000000    0.000000   10.000000    ( 0.0000,  0.0000,  0.0000)
   1 Li     1.745000    1.745000   11.745000    ( 0.0000,  0.0000,  0.0000)
   2 Li     0.000000    0.000000   13.490000    ( 0.0000,  0.0000,  0.0000)
   3 Li     1.745000    1.745000   15.235000    ( 0.0000,  0.0000,  0.0000)
   4 Li     0.016927   -0.004591   16.941008    ( 0.0000,  0.0000,  0.0000)
   5 Li     1.744996    1.768501   18.623232    ( 0.0000,  0.0000,  0.0000)
   6 Li     0.038048   -0.020865   20.458296    ( 0.0000,  0.0000,  0.0000)
   7 Li     1.744993    2.071135   22.177975    ( 0.0000,  0.0000,  0.0000)
   8 Li     0.000000    3.490000   10.000000    ( 0.0000,  0.0000,  0.0000)
   9 Li     1.745000    5.235000   11.745000    ( 0.0000,  0.0000,  0.0000)
  10 Li     0.000000    3.490000   13.490000    ( 0.0000,  0.0000,  0.0000)
  11 Li     1.745000    5.235000   15.235000    ( 0.0000,  0.0000,  0.0000)
  12 Li    -0.027488    3.471688   16.914458    ( 0.0000,  0.0000,  0.0000)
  13 Li     1.744998    5.230322   18.542288    ( 0.0000,  0.0000,  0.0000)
  14 Li    -0.125288    3.406564   20.322865    ( 0.0000,  0.0000,  0.0000)
  15 Li     1.745004    5.171134   21.550409    ( 0.0000,  0.0000,  0.0000)
  16 Li     0.000000    6.980000   10.000000    ( 0.0000,  0.0000,  0.0000)
  17 Li     1.745000    8.725000   11.745000    ( 0.0000,  0.0000,  0.0000)
  18 Li     0.000000    6.980000   13.490000    ( 0.0000,  0.0000,  0.0000)
  19 Li     1.745000    8.725000   15.235000    ( 0.0000,  0.0000,  0.0000)
  20 Li    -0.018593    7.002905   16.919814    ( 0.0000,  0.0000,  0.0000)
  21 Li     1.744995    8.706208   18.643033    ( 0.0000,  0.0000,  0.0000)
  22 Li    -0.092475    7.084269   20.349881    ( 0.0000,  0.0000,  0.0000)
  23 Li     1.744990    8.463019   22.334049    ( 0.0000,  0.0000,  0.0000)
  24 Li     3.490000    0.000000   10.000000    ( 0.0000,  0.0000,  0.0000)
  25 Li     5.235000    1.745000   11.745000    ( 0.0000,  0.0000,  0.0000)
  26 Li     3.490000    0.000000   13.490000    ( 0.0000,  0.0000,  0.0000)
  27 Li     5.235000    1.745000   15.235000    ( 0.0000,  0.0000,  0.0000)
  28 Li     3.473075   -0.004590   16.941018    ( 0.0000,  0.0000,  0.0000)
  29 Li     5.290521    1.684784   18.623870    ( 0.0000,  0.0000,  0.0000)
  30 Li     3.451947   -0.020866   20.458296    ( 0.0000,  0.0000,  0.0000)
  31 Li     5.178187    1.736563   22.294409    ( 0.0000,  0.0000,  0.0000)
  32 Li     3.490000    3.490000   10.000000    ( 0.0000,  0.0000,  0.0000)
  33 Li     5.235000    5.235000   11.745000    ( 0.0000,  0.0000,  0.0000)
  34 Li     3.490000    3.490000   13.490000    ( 0.0000,  0.0000,  0.0000)
  35 Li     5.235000    5.235000   15.235000    ( 0.0000,  0.0000,  0.0000)
  36 Li     3.517480    3.471690   16.914459    ( 0.0000,  0.0000,  0.0000)
  37 Li     5.223587    5.247099   18.639196    ( 0.0000,  0.0000,  0.0000)
  38 Li     3.615280    3.406563   20.322861    ( 0.0000,  0.0000,  0.0000)
  39 Li     4.909518    5.236589   22.326175    ( 0.0000,  0.0000,  0.0000)
  40 Li     3.490000    6.980000   10.000000    ( 0.0000,  0.0000,  0.0000)
  41 Li     5.235000    8.725000   11.745000    ( 0.0000,  0.0000,  0.0000)
  42 Li     3.490000    6.980000   13.490000    ( 0.0000,  0.0000,  0.0000)
  43 Li     5.235000    8.725000   15.235000    ( 0.0000,  0.0000,  0.0000)
  44 Li     3.508589    7.002903   16.919817    ( 0.0000,  0.0000,  0.0000)
  45 Li     5.307208    8.773123   18.620021    ( 0.0000,  0.0000,  0.0000)
  46 Li     3.582468    7.084271   20.349878    ( 0.0000,  0.0000,  0.0000)
  47 Li     5.245358    8.731870   22.286213    ( 0.0000,  0.0000,  0.0000)
  48 Li     6.980000    0.000000   10.000000    ( 0.0000,  0.0000,  0.0000)
  49 Li     8.725000    1.745000   11.745000    ( 0.0000,  0.0000,  0.0000)
  50 Li     6.980000    0.000000   13.490000    ( 0.0000,  0.0000,  0.0000)
  51 Li     8.725000    1.745000   15.235000    ( 0.0000,  0.0000,  0.0000)
  52 Li     6.980005    0.004315   16.833642    ( 0.0000,  0.0000,  0.0000)
  53 Li     8.669484    1.684774   18.623869    ( 0.0000,  0.0000,  0.0000)
  54 Li     6.980001    0.011883   20.483856    ( 0.0000,  0.0000,  0.0000)
  55 Li     8.781804    1.736565   22.294411    ( 0.0000,  0.0000,  0.0000)
  56 Li     6.980000    3.490000   10.000000    ( 0.0000,  0.0000,  0.0000)
  57 Li     8.725000    5.235000   11.745000    ( 0.0000,  0.0000,  0.0000)
  58 Li     6.980000    3.490000   13.490000    ( 0.0000,  0.0000,  0.0000)
  59 Li     8.725000    5.235000   15.235000    ( 0.0000,  0.0000,  0.0000)
  60 Li     6.980003    3.507206   16.946382    ( 0.0000,  0.0000,  0.0000)
  61 Li     8.736405    5.247102   18.639199    ( 0.0000,  0.0000,  0.0000)
  62 Li     6.980002    3.537040   20.485523    ( 0.0000,  0.0000,  0.0000)
  63 Li     9.050491    5.236589   22.326179    ( 0.0000,  0.0000,  0.0000)
  64 Li     6.980000    6.980000   10.000000    ( 0.0000,  0.0000,  0.0000)
  65 Li     8.725000    8.725000   11.745000    ( 0.0000,  0.0000,  0.0000)
  66 Li     6.980000    6.980000   13.490000    ( 0.0000,  0.0000,  0.0000)
  67 Li     8.725000    8.725000   15.235000    ( 0.0000,  0.0000,  0.0000)
  68 Li     6.980003    6.958484   16.923834    ( 0.0000,  0.0000,  0.0000)
  69 Li     8.652802    8.773131   18.620018    ( 0.0000,  0.0000,  0.0000)
  70 Li     6.980002    6.921098   20.485232    ( 0.0000,  0.0000,  0.0000)
  71 Li     8.714628    8.731869   22.286215    ( 0.0000,  0.0000,  0.0000)
  72 Li     1.744999    4.652484   23.982453    ( 0.0000,  0.0000,  0.0000)

Unit cell:
           periodic     x           y           z      points  spacing
  1. axis:    yes   10.470000    0.000000    0.000000    35     0.2991
  2. axis:    yes    0.000000   10.470000    0.000000    35     0.2991
  3. axis:    no     0.000000    0.000000   32.215000   108     0.2983

  Lengths:  10.470000  10.470000  32.215000
  Angles:   90.000000  90.000000  90.000000

Effective grid spacing dv^(1/3) = 0.2989

     iter     time        total  log10-change:
                         energy   eigst   dens
iter:   1 00:34:22  -131.325990   -4.80
iter:   2 00:34:26  -131.326851   -4.49  -2.72
iter:   3 00:34:31  -131.325808c  -5.21  -2.48
iter:   4 00:34:35  -131.325625c  -5.58c -3.16
iter:   5 00:34:39  -131.325426c  -5.48c -3.44
iter:   6 00:34:43  -131.325451c  -5.58c -3.75
iter:   7 00:34:47  -131.325420c  -6.01c -3.60
iter:   8 00:34:51  -131.325372c  -5.71c -4.08c

Converged after 8 iterations.

Dipole moment: (2.882680, 0.577513, 0.281306) |e|*Ang

Energy contributions relative to reference atoms: (reference = -14803.510878)

Kinetic:       +102.608722
Potential:      -92.190727
External:        +0.000000
XC:            -140.649621
Entropy (-ST):   -1.211386
Local:           -0.488052
SIC:             +0.000000
--------------------------
Free energy:   -131.931065
Extrapolated:  -131.325372

Showing all kpts
 Kpt  Band  Eigenvalues  Occupancy
  0    34     -1.58298    1.61035
  0    35     -1.57056    1.56992
  0    36     -1.38530    0.72808
  0    37     -1.34348    0.54736

  1    34     -1.58298    1.61035
  1    35     -1.57056    1.56992
  1    36     -1.38530    0.72808
  1    37     -1.34348    0.54736


Fermi level: -1.44108

Gap: 0.185 eV
Transition (v -> c):
  (s=0, k=0, n=35, [0.25, -0.25, 0.00]) -> (s=0, k=1, n=36, [0.25, 0.25, 0.00])
Direct/indirect transitions are different
Direct gap: 0.185 eV
Transition at: (s=0, k=1, n=35, [0.25, 0.25, 0.00])

Forces in eV/Ang:
  0 Li    0.00364   -0.00126   -0.02975
  1 Li    0.00000   -0.00079    0.06201
  2 Li    0.00061   -0.00003    0.02761
  3 Li    0.00000    0.00700   -0.02299
  4 Li   -0.01077   -0.00075    0.00550
  5 Li    0.00000   -0.00611    0.04520
  6 Li    0.00936    0.00377   -0.02683
  7 Li    0.00000   -0.09742    0.01608
  8 Li   -0.00159   -0.00005   -0.03449
  9 Li    0.00000   -0.00065    0.06406
 10 Li    0.00069    0.00096    0.00409
 11 Li   -0.00000   -0.00172   -0.00702
 12 Li   -0.00452   -0.00243    0.00692
 13 Li   -0.00000    0.00435    0.03036
 14 Li   -0.00824   -0.00329   -0.02424
 15 Li   -0.00000    0.15873   -0.28121
 16 Li   -0.00002    0.00145   -0.03290
 17 Li    0.00000    0.00148    0.05889
 18 Li    0.00122   -0.00121    0.01015
 19 Li    0.00000   -0.00585   -0.03423
 20 Li   -0.00602    0.00350    0.00711
 21 Li    0.00000    0.00488    0.00447
 22 Li    0.00415   -0.00312   -0.03743
 23 Li    0.00000   -0.03451   -0.01402
 24 Li   -0.00364   -0.00126   -0.02975
 25 Li   -0.00109    0.00224    0.05942
 26 Li   -0.00061   -0.00003    0.02761
 27 Li   -0.00303    0.00234   -0.04440
 28 Li    0.01077   -0.00075    0.00550
 29 Li    0.00636   -0.00415    0.01213
 30 Li   -0.00936    0.00377   -0.02684
 31 Li    0.00613    0.01849    0.00335
 32 Li    0.00159   -0.00005   -0.03449
 33 Li    0.00121   -0.00118    0.06058
 34 Li   -0.00069    0.00096    0.00409
 35 Li   -0.00720   -0.00064   -0.03314
 36 Li    0.00452   -0.00243    0.00692
 37 Li    0.01026    0.00421    0.01039
 38 Li    0.00824   -0.00330   -0.02424
 39 Li   -0.00863   -0.01298   -0.00100
 40 Li    0.00001    0.00145   -0.03291
 41 Li   -0.00223   -0.00127    0.05806
 42 Li   -0.00122   -0.00121    0.01015
 43 Li   -0.00210   -0.00177   -0.04845
 44 Li    0.00603    0.00351    0.00711
 45 Li   -0.00231    0.00044    0.01479
 46 Li   -0.00415   -0.00311   -0.03743
 47 Li    0.00204   -0.00264   -0.01571
 48 Li    0.00000    0.00087   -0.03037
 49 Li    0.00109    0.00224    0.05942
 50 Li    0.00000    0.00065    0.00823
 51 Li    0.00303    0.00234   -0.04441
 52 Li   -0.00001   -0.00121    0.03168
 53 Li   -0.00636   -0.00414    0.01213
 54 Li   -0.00000    0.01032    0.00973
 55 Li   -0.00613    0.01848    0.00336
 56 Li   -0.00000    0.00336   -0.02948
 57 Li   -0.00121   -0.00118    0.06058
 58 Li    0.00000    0.00034    0.03086
 59 Li    0.00720   -0.00064   -0.03314
 60 Li   -0.00000   -0.00774    0.00696
 61 Li   -0.01026    0.00421    0.01038
 62 Li   -0.00000   -0.00271   -0.01770
 63 Li    0.00864   -0.01298   -0.00100
 64 Li   -0.00000   -0.00411   -0.02955
 65 Li    0.00223   -0.00127    0.05806
 66 Li    0.00000   -0.00140    0.02638
 67 Li    0.00210   -0.00177   -0.04846
 68 Li   -0.00000    0.00927    0.00924
 69 Li    0.00231    0.00043    0.01479
 70 Li   -0.00000   -0.00547   -0.00691
 71 Li   -0.00203   -0.00264   -0.01571
 72 Li   -0.00000   -0.03268    0.16834

System changes: positions 

Initializing position-dependent things.

Density initialized from wave functions
       .-------------------------.  
      /|                         |  
     / |                         |  
    /  |                         |  
   /   |                         |  
  /    |                         |  
 *     |                         |  
 |     |                         |  
 |     |                         |  
 |     |                         |  
 |     |                         |  
 |     |                         |  
 |     |                         |  
 |     |  Li       Li       Li   |  
 |     |Li                       |  
 |     Li       Li        Li     |  
 |     |Li                       |  
 |     Li     LLi     LiLi     Li|  
 |     |  Li       Li       Li   |  
 |     Li   Li  Li  Li       Li  |  
 |     |Li       Li       Li     |  
 |     |      Li  Li  Li       Li|  
 |    Li  Li   Li  Li  Li   Li   |  
 |     |    Li      Li       Li  |  
 |     |Li       Li       Li     |  
 |   Li|      Li  Li  Li         |  
 |    Li  Li   Li  Li   Li  Li   |  
 | Li  |    Li      Li           |  
 |     |Li       Li       Li     |  
 Li    |  Li      Li             |  
 |   LLi      LLi     LiLi       |  
 |     |                         |  
 | Li  |    Li      Li           |  
 |     |                         |  
 Li    |  Li      Li             |  
 |     |                         |  
 |     |                         |  
 |     |                         |  
 |     |                         |  
 |     |                         |  
 |     .-------------------------.  
 |    /                         /   
 |   /                         /    
 |  /                         /     
 | /                         /      
 |/                         /       
 *-------------------------*        

Atomic positions and initial magnetic moments

Positions:
   0 Li     0.000000    0.000000   10.000000    ( 0.0000,  0.0000,  0.0000)
   1 Li     1.745000    1.745000   11.745000    ( 0.0000,  0.0000,  0.0000)
   2 Li     0.000000    0.000000   13.490000    ( 0.0000,  0.0000,  0.0000)
   3 Li     1.745000    1.745000   15.235000    ( 0.0000,  0.0000,  0.0000)
   4 Li     0.016694   -0.004615   16.941108    ( 0.0000,  0.0000,  0.0000)
   5 Li     1.744996    1.768370   18.624109    ( 0.0000,  0.0000,  0.0000)
   6 Li     0.038181   -0.020828   20.457704    ( 0.0000,  0.0000,  0.0000)
   7 Li     1.744993    2.069058   22.178029    ( 0.0000,  0.0000,  0.0000)
   8 Li     0.000000    3.490000   10.000000    ( 0.0000,  0.0000,  0.0000)
   9 Li     1.745000    5.235000   11.745000    ( 0.0000,  0.0000,  0.0000)
  10 Li     0.000000    3.490000   13.490000    ( 0.0000,  0.0000,  0.0000)
  11 Li     1.745000    5.235000   15.235000    ( 0.0000,  0.0000,  0.0000)
  12 Li    -0.027578    3.471656   16.914596    ( 0.0000,  0.0000,  0.0000)
  13 Li     1.744998    5.230401   18.542942    ( 0.0000,  0.0000,  0.0000)
  14 Li    -0.125454    3.406573   20.322378    ( 0.0000,  0.0000,  0.0000)
  15 Li     1.745004    5.174235   21.544943    ( 0.0000,  0.0000,  0.0000)
  16 Li     0.000000    6.980000   10.000000    ( 0.0000,  0.0000,  0.0000)
  17 Li     1.745000    8.725000   11.745000    ( 0.0000,  0.0000,  0.0000)
  18 Li     0.000000    6.980000   13.490000    ( 0.0000,  0.0000,  0.0000)
  19 Li     1.745000    8.725000   15.235000    ( 0.0000,  0.0000,  0.0000)
  20 Li    -0.018698    7.002967   16.919967    ( 0.0000,  0.0000,  0.0000)
  21 Li     1.744995    8.706326   18.643123    ( 0.0000,  0.0000,  0.0000)
  22 Li    -0.092329    7.084166   20.349180    ( 0.0000,  0.0000,  0.0000)
  23 Li     1.744990    8.462547   22.333768    ( 0.0000,  0.0000,  0.0000)
  24 Li     3.490000    0.000000   10.000000    ( 0.0000,  0.0000,  0.0000)
  25 Li     5.235000    1.745000   11.745000    ( 0.0000,  0.0000,  0.0000)
  26 Li     3.490000    0.000000   13.490000    ( 0.0000,  0.0000,  0.0000)
  27 Li     5.235000    1.745000   15.235000    ( 0.0000,  0.0000,  0.0000)
  28 Li     3.473307   -0.004614   16.941117    ( 0.0000,  0.0000,  0.0000)
  29 Li     5.290620    1.684723   18.624123    ( 0.0000,  0.0000,  0.0000)
  30 Li     3.451814   -0.020828   20.457705    ( 0.0000,  0.0000,  0.0000)
  31 Li     5.178194    1.736940   22.294488    ( 0.0000,  0.0000,  0.0000)
  32 Li     3.490000    3.490000   10.000000    ( 0.0000,  0.0000,  0.0000)
  33 Li     5.235000    5.235000   11.745000    ( 0.0000,  0.0000,  0.0000)
  34 Li     3.490000    3.490000   13.490000    ( 0.0000,  0.0000,  0.0000)
  35 Li     5.235000    5.235000   15.235000    ( 0.0000,  0.0000,  0.0000)
  36 Li     3.517570    3.471658   16.914597    ( 0.0000,  0.0000,  0.0000)
  37 Li     5.223824    5.247205   18.639398    ( 0.0000,  0.0000,  0.0000)
  38 Li     3.615446    3.406571   20.322374    ( 0.0000,  0.0000,  0.0000)
  39 Li     4.909457    5.236329   22.326141    ( 0.0000,  0.0000,  0.0000)
  40 Li     3.490000    6.980000   10.000000    ( 0.0000,  0.0000,  0.0000)
  41 Li     5.235000    8.725000   11.745000    ( 0.0000,  0.0000,  0.0000)
  42 Li     3.490000    6.980000   13.490000    ( 0.0000,  0.0000,  0.0000)
  43 Li     5.235000    8.725000   15.235000    ( 0.0000,  0.0000,  0.0000)
  44 Li     3.508693    7.002964   16.919969    ( 0.0000,  0.0000,  0.0000)
  45 Li     5.307157    8.773089   18.620323    ( 0.0000,  0.0000,  0.0000)
  46 Li     3.582321    7.084168   20.349176    ( 0.0000,  0.0000,  0.0000)
  47 Li     5.245399    8.731811   22.285895    ( 0.0000,  0.0000,  0.0000)
  48 Li     6.980000    0.000000   10.000000    ( 0.0000,  0.0000,  0.0000)
  49 Li     8.725000    1.745000   11.745000    ( 0.0000,  0.0000,  0.0000)
  50 Li     6.980000    0.000000   13.490000    ( 0.0000,  0.0000,  0.0000)
  51 Li     8.725000    1.745000   15.235000    ( 0.0000,  0.0000,  0.0000)
  52 Li     6.980004    0.004298   16.834316    ( 0.0000,  0.0000,  0.0000)
  53 Li     8.669385    1.684713   18.624122    ( 0.0000,  0.0000,  0.0000)
  54 Li     6.980001    0.012110   20.484052    ( 0.0000,  0.0000,  0.0000)
  55 Li     8.781798    1.736941   22.294490    ( 0.0000,  0.0000,  0.0000)
  56 Li     6.980000    3.490000   10.000000    ( 0.0000,  0.0000,  0.0000)
  57 Li     8.725000    5.235000   11.745000    ( 0.0000,  0.0000,  0.0000)
  58 Li     6.980000    3.490000   13.490000    ( 0.0000,  0.0000,  0.0000)
  59 Li     8.725000    5.235000   15.235000    ( 0.0000,  0.0000,  0.0000)
  60 Li     6.980003    3.507036   16.946520    ( 0.0000,  0.0000,  0.0000)
  61 Li     8.736168    5.247208   18.639401    ( 0.0000,  0.0000,  0.0000)
  62 Li     6.980002    3.536946   20.485161    ( 0.0000,  0.0000,  0.0000)
  63 Li     9.050552    5.236329   22.326145    ( 0.0000,  0.0000,  0.0000)
  64 Li     6.980000    6.980000   10.000000    ( 0.0000,  0.0000,  0.0000)
  65 Li     8.725000    8.725000   11.745000    ( 0.0000,  0.0000,  0.0000)
  66 Li     6.980000    6.980000   13.490000    ( 0.0000,  0.0000,  0.0000)
  67 Li     8.725000    8.725000   15.235000    ( 0.0000,  0.0000,  0.0000)
  68 Li     6.980003    6.958678   16.923980    ( 0.0000,  0.0000,  0.0000)
  69 Li     8.652853    8.773096   18.620320    ( 0.0000,  0.0000,  0.0000)
  70 Li     6.980002    6.921009   20.485088    ( 0.0000,  0.0000,  0.0000)
  71 Li     8.714587    8.731810   22.285897    ( 0.0000,  0.0000,  0.0000)
  72 Li     1.744999    4.650822   23.985905    ( 0.0000,  0.0000,  0.0000)

Unit cell:
           periodic     x           y           z      points  spacing
  1. axis:    yes   10.470000    0.000000    0.000000    35     0.2991
  2. axis:    yes    0.000000   10.470000    0.000000    35     0.2991
  3. axis:    no     0.000000    0.000000   32.215000   108     0.2983

  Lengths:  10.470000  10.470000  32.215000
  Angles:   90.000000  90.000000  90.000000

Effective grid spacing dv^(1/3) = 0.2989

     iter     time        total  log10-change:
                         energy   eigst   dens
iter:   1 00:38:21  -131.329546   -4.41
iter:   2 00:38:25  -131.329977   -4.61  -2.53
iter:   3 00:38:29  -131.329142c  -5.08  -2.48
iter:   4 00:38:33  -131.328690c  -5.51c -2.82
iter:   5 00:38:37  -131.328244c  -5.51c -3.12
iter:   6 00:38:40  -131.328489c  -5.75c -3.41
iter:   7 00:38:44  -131.328331c  -6.15c -3.33
iter:   8 00:38:48  -131.328235c  -6.01c -3.72
iter:   9 00:38:52  -131.328306c  -6.34c -3.93
iter:  10 00:38:56  -131.328305c  -6.54c -3.97
iter:  11 00:39:00  -131.328271c  -6.36c -4.01c

Converged after 11 iterations.

Dipole moment: (2.885046, 0.572690, 0.282693) |e|*Ang

Energy contributions relative to reference atoms: (reference = -14803.510878)

Kinetic:       +102.588934
Potential:      -92.179145
External:        +0.000000
XC:            -140.644134
Entropy (-ST):   -1.211912
Local:           -0.487970
SIC:             +0.000000
--------------------------
Free energy:   -131.934227
Extrapolated:  -131.328271

Showing all kpts
 Kpt  Band  Eigenvalues  Occupancy
  0    34     -1.58274    1.61025
  0    35     -1.57031    1.56979
  0    36     -1.38520    0.72859
  0    37     -1.34343    0.54799

  1    34     -1.58274    1.61025
  1    35     -1.57031    1.56979
  1    36     -1.38520    0.72859
  1    37     -1.34343    0.54799


Fermi level: -1.44087

Gap: 0.185 eV
Transition (v -> c):
  (s=0, k=0, n=35, [0.25, -0.25, 0.00]) -> (s=0, k=1, n=36, [0.25, 0.25, 0.00])
Direct/indirect transitions are different
Direct gap: 0.185 eV
Transition at: (s=0, k=1, n=35, [0.25, 0.25, 0.00])

Forces in eV/Ang:
  0 Li    0.00352   -0.00123   -0.02957
  1 Li    0.00000   -0.00069    0.06188
  2 Li    0.00052    0.00007    0.02733
  3 Li    0.00000    0.00710   -0.02273
  4 Li   -0.01031   -0.00070    0.00574
  5 Li    0.00000   -0.00599    0.04410
  6 Li    0.00870    0.00340   -0.02601
  7 Li    0.00000   -0.09439    0.01509
  8 Li   -0.00166   -0.00013   -0.03430
  9 Li    0.00000   -0.00073    0.06383
 10 Li    0.00065    0.00094    0.00396
 11 Li   -0.00000   -0.00170   -0.00680
 12 Li   -0.00423   -0.00234    0.00688
 13 Li   -0.00000    0.00422    0.02669
 14 Li   -0.00811   -0.00385   -0.02326
 15 Li   -0.00000    0.15158   -0.26006
 16 Li   -0.00002    0.00147   -0.03279
 17 Li    0.00000    0.00143    0.05858
 18 Li    0.00126   -0.00126    0.01009
 19 Li    0.00000   -0.00593   -0.03395
 20 Li   -0.00578    0.00337    0.00694
 21 Li    0.00000    0.00457    0.00450
 22 Li    0.00197   -0.00125   -0.03768
 23 Li    0.00000   -0.03377   -0.01456
 24 Li   -0.00352   -0.00123   -0.02958
 25 Li   -0.00102    0.00225    0.05922
 26 Li   -0.00052    0.00007    0.02733
 27 Li   -0.00290    0.00231   -0.04450
 28 Li    0.01031   -0.00071    0.00574
 29 Li    0.00633   -0.00426    0.01225
 30 Li   -0.00870    0.00340   -0.02602
 31 Li    0.00603    0.01797    0.00295
 32 Li    0.00166   -0.00013   -0.03430
 33 Li    0.00116   -0.00125    0.06040
 34 Li   -0.00065    0.00095    0.00396
 35 Li   -0.00723   -0.00071   -0.03295
 36 Li    0.00423   -0.00235    0.00688
 37 Li    0.01002    0.00414    0.01039
 38 Li    0.00811   -0.00385   -0.02325
 39 Li   -0.00877   -0.01251   -0.00164
 40 Li    0.00002    0.00147   -0.03280
 41 Li   -0.00217   -0.00118    0.05785
 42 Li   -0.00126   -0.00126    0.01009
 43 Li   -0.00204   -0.00168   -0.04839
 44 Li    0.00579    0.00337    0.00694
 45 Li   -0.00197    0.00057    0.01516
 46 Li   -0.00197   -0.00125   -0.03768
 47 Li    0.00195   -0.00260   -0.01628
 48 Li    0.00000    0.00095   -0.03019
 49 Li    0.00102    0.00225    0.05922
 50 Li    0.00000    0.00081    0.00810
 51 Li    0.00290    0.00231   -0.04450
 52 Li   -0.00001   -0.00125    0.03094
 53 Li   -0.00633   -0.00425    0.01226
 54 Li   -0.00000    0.00987    0.00940
 55 Li   -0.00603    0.01797    0.00295
 56 Li   -0.00000    0.00321   -0.02926
 57 Li   -0.00116   -0.00125    0.06040
 58 Li    0.00000    0.00021    0.03058
 59 Li    0.00723   -0.00071   -0.03296
 60 Li   -0.00000   -0.00746    0.00693
 61 Li   -0.01002    0.00413    0.01038
 62 Li   -0.00000   -0.00263   -0.01724
 63 Li    0.00877   -0.01251   -0.00164
 64 Li   -0.00000   -0.00405   -0.02936
 65 Li    0.00217   -0.00118    0.05785
 66 Li    0.00000   -0.00141    0.02606
 67 Li    0.00204   -0.00168   -0.04840
 68 Li   -0.00000    0.00899    0.00939
 69 Li    0.00196    0.00056    0.01516
 70 Li   -0.00000   -0.00510   -0.00653
 71 Li   -0.00194   -0.00260   -0.01628
 72 Li   -0.00000   -0.03072    0.15224

System changes: positions 

Initializing position-dependent things.

Density initialized from wave functions
       .-------------------------.  
      /|                         |  
     / |                         |  
    /  |                         |  
   /   |                         |  
  /    |                         |  
 *     |                         |  
 |     |                         |  
 |     |                         |  
 |     |                         |  
 |     |                         |  
 |     |                         |  
 |     |                         |  
 |     |  Li       Li       Li   |  
 |     |Li                       |  
 |     Li       Li        Li     |  
 |     |Li                       |  
 |     Li     LLi     LiLi     Li|  
 |     |  Li       Li       Li   |  
 |     Li   Li  Li  Li       Li  |  
 |     |Li       Li       Li     |  
 |     |      Li  Li  Li       Li|  
 |    Li  Li   Li  Li  Li   Li   |  
 |     |    Li      Li       Li  |  
 |     |Li       Li       Li     |  
 |   Li|      Li  Li  Li         |  
 |    Li  Li   Li  Li   Li  Li   |  
 | Li  |    Li      Li           |  
 |     |Li       Li       Li     |  
 Li    |  Li      Li             |  
 |   LLi      LLi     LiLi       |  
 |     |                         |  
 | Li  |    Li      Li           |  
 |     |                         |  
 Li    |  Li      Li             |  
 |     |                         |  
 |     |                         |  
 |     |                         |  
 |     |                         |  
 |     |                         |  
 |     .-------------------------.  
 |    /                         /   
 |   /                         /    
 |  /                         /     
 | /                         /      
 |/                         /       
 *-------------------------*        

Atomic positions and initial magnetic moments

Positions:
   0 Li     0.000000    0.000000   10.000000    ( 0.0000,  0.0000,  0.0000)
   1 Li     1.745000    1.745000   11.745000    ( 0.0000,  0.0000,  0.0000)
   2 Li     0.000000    0.000000   13.490000    ( 0.0000,  0.0000,  0.0000)
   3 Li     1.745000    1.745000   15.235000    ( 0.0000,  0.0000,  0.0000)
   4 Li     0.016351   -0.004649   16.941263    ( 0.0000,  0.0000,  0.0000)
   5 Li     1.744996    1.768175   18.625417    ( 0.0000,  0.0000,  0.0000)
   6 Li     0.038377   -0.020772   20.456830    ( 0.0000,  0.0000,  0.0000)
   7 Li     1.744994    2.065975   22.178116    ( 0.0000,  0.0000,  0.0000)
   8 Li     0.000000    3.490000   10.000000    ( 0.0000,  0.0000,  0.0000)
   9 Li     1.745000    5.235000   11.745000    ( 0.0000,  0.0000,  0.0000)
  10 Li     0.000000    3.490000   13.490000    ( 0.0000,  0.0000,  0.0000)
  11 Li     1.745000    5.235000   15.235000    ( 0.0000,  0.0000,  0.0000)
  12 Li    -0.027711    3.471608   16.914805    ( 0.0000,  0.0000,  0.0000)
  13 Li     1.744998    5.230519   18.543875    ( 0.0000,  0.0000,  0.0000)
  14 Li    -0.125703    3.406573   20.321656    ( 0.0000,  0.0000,  0.0000)
  15 Li     1.745004    5.178814   21.537001    ( 0.0000,  0.0000,  0.0000)
  16 Li     0.000000    6.980000   10.000000    ( 0.0000,  0.0000,  0.0000)
  17 Li     1.745000    8.725000   11.745000    ( 0.0000,  0.0000,  0.0000)
  18 Li     0.000000    6.980000   13.490000    ( 0.0000,  0.0000,  0.0000)
  19 Li     1.745000    8.725000   15.235000    ( 0.0000,  0.0000,  0.0000)
  20 Li    -0.018854    7.003059   16.920193    ( 0.0000,  0.0000,  0.0000)
  21 Li     1.744995    8.706496   18.643259    ( 0.0000,  0.0000,  0.0000)
  22 Li    -0.092143    7.084038   20.348114    ( 0.0000,  0.0000,  0.0000)
  23 Li     1.744990    8.461832   22.333337    ( 0.0000,  0.0000,  0.0000)
  24 Li     3.490000    0.000000   10.000000    ( 0.0000,  0.0000,  0.0000)
  25 Li     5.235000    1.745000   11.745000    ( 0.0000,  0.0000,  0.0000)
  26 Li     3.490000    0.000000   13.490000    ( 0.0000,  0.0000,  0.0000)
  27 Li     5.235000    1.745000   15.235000    ( 0.0000,  0.0000,  0.0000)
  28 Li     3.473650   -0.004649   16.941272    ( 0.0000,  0.0000,  0.0000)
  29 Li     5.290770    1.684627   18.624503    ( 0.0000,  0.0000,  0.0000)
  30 Li     3.451618   -0.020773   20.456830    ( 0.0000,  0.0000,  0.0000)
  31 Li     5.178211    1.737499   22.294602    ( 0.0000,  0.0000,  0.0000)
  32 Li     3.490000    3.490000   10.000000    ( 0.0000,  0.0000,  0.0000)
  33 Li     5.235000    5.235000   11.745000    ( 0.0000,  0.0000,  0.0000)
  34 Li     3.490000    3.490000   13.490000    ( 0.0000,  0.0000,  0.0000)
  35 Li     5.235000    5.235000   15.235000    ( 0.0000,  0.0000,  0.0000)
  36 Li     3.517703    3.471610   16.914805    ( 0.0000,  0.0000,  0.0000)
  37 Li     5.224175    5.247362   18.639703    ( 0.0000,  0.0000,  0.0000)
  38 Li     3.615694    3.406571   20.321652    ( 0.0000,  0.0000,  0.0000)
  39 Li     4.909357    5.235944   22.326084    ( 0.0000,  0.0000,  0.0000)
  40 Li     3.490000    6.980000   10.000000    ( 0.0000,  0.0000,  0.0000)
  41 Li     5.235000    8.725000   11.745000    ( 0.0000,  0.0000,  0.0000)
  42 Li     3.490000    6.980000   13.490000    ( 0.0000,  0.0000,  0.0000)
  43 Li     5.235000    8.725000   15.235000    ( 0.0000,  0.0000,  0.0000)
  44 Li     3.508850    7.003057   16.920196    ( 0.0000,  0.0000,  0.0000)
  45 Li     5.307087    8.773042   18.620779    ( 0.0000,  0.0000,  0.0000)
  46 Li     3.582135    7.084040   20.348111    ( 0.0000,  0.0000,  0.0000)
  47 Li     5.245460    8.731723   22.285411    ( 0.0000,  0.0000,  0.0000)
  48 Li     6.980000    0.000000   10.000000    ( 0.0000,  0.0000,  0.0000)
  49 Li     8.725000    1.745000   11.745000    ( 0.0000,  0.0000,  0.0000)
  50 Li     6.980000    0.000000   13.490000    ( 0.0000,  0.0000,  0.0000)
  51 Li     8.725000    1.745000   15.235000    ( 0.0000,  0.0000,  0.0000)
  52 Li     6.980004    0.004272   16.835321    ( 0.0000,  0.0000,  0.0000)
  53 Li     8.669235    1.684617   18.624502    ( 0.0000,  0.0000,  0.0000)
  54 Li     6.980001    0.012446   20.484344    ( 0.0000,  0.0000,  0.0000)
  55 Li     8.781780    1.737501   22.294605    ( 0.0000,  0.0000,  0.0000)
  56 Li     6.980000    3.490000   10.000000    ( 0.0000,  0.0000,  0.0000)
  57 Li     8.725000    5.235000   11.745000    ( 0.0000,  0.0000,  0.0000)
  58 Li     6.980000    3.490000   13.490000    ( 0.0000,  0.0000,  0.0000)
  59 Li     8.725000    5.235000   15.235000    ( 0.0000,  0.0000,  0.0000)
  60 Li     6.980003    3.506783   16.946729    ( 0.0000,  0.0000,  0.0000)
  61 Li     8.735817    5.247365   18.639706    ( 0.0000,  0.0000,  0.0000)
  62 Li     6.980002    3.536806   20.484626    ( 0.0000,  0.0000,  0.0000)
  63 Li     9.050652    5.235944   22.326088    ( 0.0000,  0.0000,  0.0000)
  64 Li     6.980000    6.980000   10.000000    ( 0.0000,  0.0000,  0.0000)
  65 Li     8.725000    8.725000   11.745000    ( 0.0000,  0.0000,  0.0000)
  66 Li     6.980000    6.980000   13.490000    ( 0.0000,  0.0000,  0.0000)
  67 Li     8.725000    8.725000   15.235000    ( 0.0000,  0.0000,  0.0000)
  68 Li     6.980003    6.958965   16.924205    ( 0.0000,  0.0000,  0.0000)
  69 Li     8.652923    8.773049   18.620776    ( 0.0000,  0.0000,  0.0000)
  70 Li     6.980002    6.920878   20.484878    ( 0.0000,  0.0000,  0.0000)
  71 Li     8.714526    8.731722   22.285413    ( 0.0000,  0.0000,  0.0000)
  72 Li     1.744999    4.648413   23.990868    ( 0.0000,  0.0000,  0.0000)

Unit cell:
           periodic     x           y           z      points  spacing
  1. axis:    yes   10.470000    0.000000    0.000000    35     0.2991
  2. axis:    yes    0.000000   10.470000    0.000000    35     0.2991
  3. axis:    no     0.000000    0.000000   32.215000   108     0.2983

  Lengths:  10.470000  10.470000  32.215000
  Angles:   90.000000  90.000000  90.000000

Effective grid spacing dv^(1/3) = 0.2989

     iter     time        total  log10-change:
                         energy   eigst   dens
iter:   1 00:42:54  -131.334635   -4.07
iter:   2 00:42:58  -131.333977   -4.49  -2.37
iter:   3 00:43:02  -131.333872c  -4.70  -2.52
iter:   4 00:43:06  -131.332909c  -5.13  -2.53
iter:   5 00:43:10  -131.332044c  -5.21  -2.87
iter:   6 00:43:14  -131.332503c  -5.66c -3.17
iter:   7 00:43:18  -131.332433c  -6.32c -3.15
iter:   8 00:43:22  -131.332154c  -6.13c -3.33
iter:   9 00:43:25  -131.332186c  -6.95c -3.75
iter:  10 00:43:29  -131.332234c  -6.86c -3.82
iter:  11 00:43:33  -131.332234c  -6.87c -3.82
iter:  12 00:43:36  -131.332214c  -7.07c -4.07c

Converged after 12 iterations.

Dipole moment: (2.889568, 0.566049, 0.284347) |e|*Ang

Energy contributions relative to reference atoms: (reference = -14803.510878)

Kinetic:       +102.562344
Potential:      -92.164467
External:        +0.000000
XC:            -140.636164
Entropy (-ST):   -1.212337
Local:           -0.487759
SIC:             +0.000000
--------------------------
Free energy:   -131.938383
Extrapolated:  -131.332214

Showing all kpts
 Kpt  Band  Eigenvalues  Occupancy
  0    34     -1.58237    1.60991
  0    35     -1.56995    1.56941
  0    36     -1.38522    0.72988
  0    37     -1.34341    0.54891

  1    34     -1.58237    1.60991
  1    35     -1.56995    1.56941
  1    36     -1.38522    0.72988
  1    37     -1.34341    0.54891


Fermi level: -1.44062

Gap: 0.185 eV
Transition (v -> c):
  (s=0, k=0, n=35, [0.25, -0.25, 0.00]) -> (s=0, k=1, n=36, [0.25, 0.25, 0.00])
Direct/indirect transitions are different
Direct gap: 0.185 eV
Transition at: (s=0, k=1, n=35, [0.25, 0.25, 0.00])

Forces in eV/Ang:
  0 Li    0.00348   -0.00125   -0.02951
  1 Li    0.00000   -0.00069    0.06179
  2 Li    0.00049    0.00006    0.02730
  3 Li    0.00000    0.00708   -0.02235
  4 Li   -0.00973   -0.00055    0.00598
  5 Li    0.00000   -0.00575    0.04214
  6 Li    0.00790    0.00319   -0.02472
  7 Li    0.00000   -0.09014    0.01392
  8 Li   -0.00168   -0.00013   -0.03429
  9 Li    0.00000   -0.00070    0.06368
 10 Li    0.00065    0.00096    0.00410
 11 Li   -0.00000   -0.00165   -0.00668
 12 Li   -0.00387   -0.00230    0.00705
 13 Li   -0.00000    0.00407    0.02153
 14 Li   -0.00781   -0.00457   -0.02219
 15 Li   -0.00000    0.14129   -0.23004
 16 Li    0.00001    0.00149   -0.03279
 17 Li    0.00000    0.00140    0.05841
 18 Li    0.00127   -0.00125    0.01021
 19 Li    0.00000   -0.00593   -0.03366
 20 Li   -0.00553    0.00317    0.00674
 21 Li    0.00000    0.00393    0.00431
 22 Li   -0.00083    0.00105   -0.03826
 23 Li    0.00000   -0.03262   -0.01511
 24 Li   -0.00348   -0.00125   -0.02951
 25 Li   -0.00097    0.00221    0.05910
 26 Li   -0.00049    0.00006    0.02730
 27 Li   -0.00273    0.00220   -0.04440
 28 Li    0.00973   -0.00055    0.00598
 29 Li    0.00622   -0.00431    0.01197
 30 Li   -0.00790    0.00319   -0.02472
 31 Li    0.00595    0.01732    0.00270
 32 Li    0.00168   -0.00013   -0.03429
 33 Li    0.00115   -0.00122    0.06030
 34 Li   -0.00065    0.00096    0.00410
 35 Li   -0.00716   -0.00071   -0.03268
 36 Li    0.00387   -0.00231    0.00705
 37 Li    0.00949    0.00390    0.01011
 38 Li    0.00781   -0.00457   -0.02219
 39 Li   -0.00877   -0.01189   -0.00233
 40 Li   -0.00001    0.00149   -0.03279
 41 Li   -0.00212   -0.00114    0.05777
 42 Li   -0.00127   -0.00125    0.01021
 43 Li   -0.00195   -0.00158   -0.04822
 44 Li    0.00554    0.00318    0.00673
 45 Li   -0.00136    0.00083    0.01490
 46 Li    0.00084    0.00105   -0.03826
 47 Li    0.00167   -0.00256   -0.01645
 48 Li    0.00000    0.00096   -0.03009
 49 Li    0.00097    0.00221    0.05910
 50 Li    0.00000    0.00082    0.00815
 51 Li    0.00273    0.00220   -0.04440
 52 Li   -0.00001   -0.00128    0.02981
 53 Li   -0.00622   -0.00430    0.01197
 54 Li   -0.00000    0.00951    0.00888
 55 Li   -0.00595    0.01732    0.00270
 56 Li    0.00000    0.00313   -0.02920
 57 Li   -0.00115   -0.00122    0.06030
 58 Li    0.00000    0.00017    0.03053
 59 Li    0.00716   -0.00071   -0.03268
 60 Li   -0.00000   -0.00713    0.00689
 61 Li   -0.00948    0.00390    0.01011
 62 Li   -0.00000   -0.00255   -0.01629
 63 Li    0.00877   -0.01189   -0.00232
 64 Li   -0.00000   -0.00398   -0.02928
 65 Li    0.00212   -0.00114    0.05777
 66 Li    0.00000   -0.00137    0.02597
 67 Li    0.00195   -0.00158   -0.04822
 68 Li   -0.00000    0.00866    0.00938
 69 Li    0.00135    0.00082    0.01491
 70 Li   -0.00000   -0.00489   -0.00596
 71 Li   -0.00166   -0.00256   -0.01645
 72 Li   -0.00000   -0.02796    0.12954

System changes: positions 

Initializing position-dependent things.

Density initialized from wave functions
       .-------------------------.  
      /|                         |  
     / |                         |  
    /  |                         |  
   /   |                         |  
  /    |                         |  
 *     |                         |  
 |     |                         |  
 |     |                         |  
 |     |                         |  
 |     |                         |  
 |     |                         |  
 |     |                         |  
 |     |  Li       Li       Li   |  
 |     |Li                       |  
 |     Li       Li        Li     |  
 |     |Li                       |  
 |     Li     LLi     LiLi     Li|  
 |     |  Li       Li       Li   |  
 |     Li   Li  Li  Li       Li  |  
 |     |Li       Li       Li     |  
 |     |      Li  Li  Li       Li|  
 |    Li  Li   Li  Li  Li   Li   |  
 |     |    Li      Li       Li  |  
 |     |Li       Li       Li     |  
 |   Li|      Li  Li  Li         |  
 |    Li  Li   Li  Li   Li  Li   |  
 | Li  |    Li      Li           |  
 |     |Li       Li       Li     |  
 Li    |  Li      Li             |  
 |   LLi      LLi     LiLi       |  
 |     |                         |  
 | Li  |    Li      Li           |  
 |     |                         |  
 Li    |  Li      Li             |  
 |     |                         |  
 |     |                         |  
 |     |                         |  
 |     |                         |  
 |     |                         |  
 |     .-------------------------.  
 |    /                         /   
 |   /                         /    
 |  /                         /     
 | /                         /      
 |/                         /       
 *-------------------------*        

Atomic positions and initial magnetic moments

Positions:
   0 Li     0.000000    0.000000   10.000000    ( 0.0000,  0.0000,  0.0000)
   1 Li     1.745000    1.745000   11.745000    ( 0.0000,  0.0000,  0.0000)
   2 Li     0.000000    0.000000   13.490000    ( 0.0000,  0.0000,  0.0000)
   3 Li     1.745000    1.745000   15.235000    ( 0.0000,  0.0000,  0.0000)
   4 Li     0.015904   -0.004692   16.941478    ( 0.0000,  0.0000,  0.0000)
   5 Li     1.744996    1.767918   18.627147    ( 0.0000,  0.0000,  0.0000)
   6 Li     0.038631   -0.020698   20.455685    ( 0.0000,  0.0000,  0.0000)
   7 Li     1.744994    2.061919   22.178241    ( 0.0000,  0.0000,  0.0000)
   8 Li     0.000000    3.490000   10.000000    ( 0.0000,  0.0000,  0.0000)
   9 Li     1.745000    5.235000   11.745000    ( 0.0000,  0.0000,  0.0000)
  10 Li     0.000000    3.490000   13.490000    ( 0.0000,  0.0000,  0.0000)
  11 Li     1.745000    5.235000   15.235000    ( 0.0000,  0.0000,  0.0000)
  12 Li    -0.027882    3.471541   16.915087    ( 0.0000,  0.0000,  0.0000)
  13 Li     1.744998    5.230676   18.545025    ( 0.0000,  0.0000,  0.0000)
  14 Li    -0.126031    3.406547   20.320707    ( 0.0000,  0.0000,  0.0000)
  15 Li     1.745004    5.184792   21.526883    ( 0.0000,  0.0000,  0.0000)
  16 Li     0.000000    6.980000   10.000000    ( 0.0000,  0.0000,  0.0000)
  17 Li     1.745000    8.725000   11.745000    ( 0.0000,  0.0000,  0.0000)
  18 Li     0.000000    6.980000   13.490000    ( 0.0000,  0.0000,  0.0000)
  19 Li     1.745000    8.725000   15.235000    ( 0.0000,  0.0000,  0.0000)
  20 Li    -0.019062    7.003181   16.920493    ( 0.0000,  0.0000,  0.0000)
  21 Li     1.744995    8.706710   18.643439    ( 0.0000,  0.0000,  0.0000)
  22 Li    -0.091957    7.083920   20.346662    ( 0.0000,  0.0000,  0.0000)
  23 Li     1.744990    8.460865   22.332745    ( 0.0000,  0.0000,  0.0000)
  24 Li     3.490000    0.000000   10.000000    ( 0.0000,  0.0000,  0.0000)
  25 Li     5.235000    1.745000   11.745000    ( 0.0000,  0.0000,  0.0000)
  26 Li     3.490000    0.000000   13.490000    ( 0.0000,  0.0000,  0.0000)
  27 Li     5.235000    1.745000   15.235000    ( 0.0000,  0.0000,  0.0000)
  28 Li     3.474098   -0.004691   16.941487    ( 0.0000,  0.0000,  0.0000)
  29 Li     5.290975    1.684493   18.625011    ( 0.0000,  0.0000,  0.0000)
  30 Li     3.451364   -0.020698   20.455684    ( 0.0000,  0.0000,  0.0000)
  31 Li     5.178248    1.738238   22.294750    ( 0.0000,  0.0000,  0.0000)
  32 Li     3.490000    3.490000   10.000000    ( 0.0000,  0.0000,  0.0000)
  33 Li     5.235000    5.235000   11.745000    ( 0.0000,  0.0000,  0.0000)
  34 Li     3.490000    3.490000   13.490000    ( 0.0000,  0.0000,  0.0000)
  35 Li     5.235000    5.235000   15.235000    ( 0.0000,  0.0000,  0.0000)
  36 Li     3.517875    3.471543   16.915088    ( 0.0000,  0.0000,  0.0000)
  37 Li     5.224634    5.247567   18.640110    ( 0.0000,  0.0000,  0.0000)
  38 Li     3.616023    3.406546   20.320703    ( 0.0000,  0.0000,  0.0000)
  39 Li     4.909208    5.235437   22.325994    ( 0.0000,  0.0000,  0.0000)
  40 Li     3.490000    6.980000   10.000000    ( 0.0000,  0.0000,  0.0000)
  41 Li     5.235000    8.725000   11.745000    ( 0.0000,  0.0000,  0.0000)
  42 Li     3.490000    6.980000   13.490000    ( 0.0000,  0.0000,  0.0000)
  43 Li     5.235000    8.725000   15.235000    ( 0.0000,  0.0000,  0.0000)
  44 Li     3.509057    7.003179   16.920496    ( 0.0000,  0.0000,  0.0000)
  45 Li     5.307006    8.772990   18.621391    ( 0.0000,  0.0000,  0.0000)
  46 Li     3.581950    7.083922   20.346659    ( 0.0000,  0.0000,  0.0000)
  47 Li     5.245538    8.731606   22.284753    ( 0.0000,  0.0000,  0.0000)
  48 Li     6.980000    0.000000   10.000000    ( 0.0000,  0.0000,  0.0000)
  49 Li     8.725000    1.745000   11.745000    ( 0.0000,  0.0000,  0.0000)
  50 Li     6.980000    0.000000   13.490000    ( 0.0000,  0.0000,  0.0000)
  51 Li     8.725000    1.745000   15.235000    ( 0.0000,  0.0000,  0.0000)
  52 Li     6.980004    0.004235   16.836647    ( 0.0000,  0.0000,  0.0000)
  53 Li     8.669030    1.684483   18.625010    ( 0.0000,  0.0000,  0.0000)
  54 Li     6.980001    0.012887   20.484726    ( 0.0000,  0.0000,  0.0000)
  55 Li     8.781744    1.738240   22.294752    ( 0.0000,  0.0000,  0.0000)
  56 Li     6.980000    3.490000   10.000000    ( 0.0000,  0.0000,  0.0000)
  57 Li     8.725000    5.235000   11.745000    ( 0.0000,  0.0000,  0.0000)
  58 Li     6.980000    3.490000   13.490000    ( 0.0000,  0.0000,  0.0000)
  59 Li     8.725000    5.235000   15.235000    ( 0.0000,  0.0000,  0.0000)
  60 Li     6.980003    3.506453   16.947011    ( 0.0000,  0.0000,  0.0000)
  61 Li     8.735358    5.247570   18.640113    ( 0.0000,  0.0000,  0.0000)
  62 Li     6.980001    3.536626   20.483925    ( 0.0000,  0.0000,  0.0000)
  63 Li     9.050801    5.235437   22.325998    ( 0.0000,  0.0000,  0.0000)
  64 Li     6.980000    6.980000   10.000000    ( 0.0000,  0.0000,  0.0000)
  65 Li     8.725000    8.725000   11.745000    ( 0.0000,  0.0000,  0.0000)
  66 Li     6.980000    6.980000   13.490000    ( 0.0000,  0.0000,  0.0000)
  67 Li     8.725000    8.725000   15.235000    ( 0.0000,  0.0000,  0.0000)
  68 Li     6.980003    6.959345   16.924515    ( 0.0000,  0.0000,  0.0000)
  69 Li     8.653004    8.772996   18.621388    ( 0.0000,  0.0000,  0.0000)
  70 Li     6.980001    6.920703   20.484609    ( 0.0000,  0.0000,  0.0000)
  71 Li     8.714449    8.731605   22.284755    ( 0.0000,  0.0000,  0.0000)
  72 Li     1.744999    4.645354   23.997088    ( 0.0000,  0.0000,  0.0000)

Unit cell:
           periodic     x           y           z      points  spacing
  1. axis:    yes   10.470000    0.000000    0.000000    35     0.2991
  2. axis:    yes    0.000000   10.470000    0.000000    35     0.2991
  3. axis:    no     0.000000    0.000000   32.215000   108     0.2983

  Lengths:  10.470000  10.470000  32.215000
  Angles:   90.000000  90.000000  90.000000

Effective grid spacing dv^(1/3) = 0.2989

     iter     time        total  log10-change:
                         energy   eigst   dens
iter:   1 00:48:43  -131.340954   -3.86
iter:   2 00:48:47  -131.338997   -4.36  -2.26
iter:   3 00:48:51  -131.338735c  -4.61  -2.48
iter:   4 00:48:54  -131.337700c  -4.91  -2.48
iter:   5 00:48:59  -131.336531c  -5.12  -2.70
iter:   6 00:49:03  -131.337197c  -5.39c -3.08
iter:   7 00:49:07  -131.336888c  -6.29c -2.99
iter:   8 00:49:11  -131.336609c  -6.08c -3.30
iter:   9 00:49:15  -131.336675c  -7.03c -3.64
iter:  10 00:49:19  -131.336718c  -6.87c -3.71
iter:  11 00:49:23  -131.336722c  -7.13c -3.70
iter:  12 00:49:27  -131.336703c  -7.42c -3.98
iter:  13 00:49:31  -131.336712c  -7.36c -4.09c

Converged after 13 iterations.

Dipole moment: (2.896397, 0.557045, 0.286515) |e|*Ang

Energy contributions relative to reference atoms: (reference = -14803.510878)

Kinetic:       +102.528496
Potential:      -92.144934
External:        +0.000000
XC:            -140.626208
Entropy (-ST):   -1.212722
Local:           -0.487705
SIC:             +0.000000
--------------------------
Free energy:   -131.943074
Extrapolated:  -131.336712

Showing all kpts
 Kpt  Band  Eigenvalues  Occupancy
  0    34     -1.58201    1.60962
  0    35     -1.56957    1.56905
  0    36     -1.38531    0.73156
  0    37     -1.34340    0.54995

  1    34     -1.58201    1.60962
  1    35     -1.56957    1.56905
  1    36     -1.38531    0.73156
  1    37     -1.34340    0.54995


Fermi level: -1.44035

Gap: 0.184 eV
Transition (v -> c):
  (s=0, k=0, n=35, [0.25, -0.25, 0.00]) -> (s=0, k=1, n=36, [0.25, 0.25, 0.00])
Direct/indirect transitions are different
Direct gap: 0.184 eV
Transition at: (s=0, k=1, n=35, [0.25, 0.25, 0.00])

Forces in eV/Ang:
  0 Li    0.00348   -0.00129   -0.02948
  1 Li    0.00000   -0.00073    0.06169
  2 Li    0.00046    0.00005    0.02715
  3 Li    0.00000    0.00695   -0.02192
  4 Li   -0.00901   -0.00031    0.00629
  5 Li    0.00000   -0.00539    0.03959
  6 Li    0.00686    0.00277   -0.02292
  7 Li    0.00000   -0.08479    0.01242
  8 Li   -0.00166   -0.00011   -0.03430
  9 Li    0.00000   -0.00065    0.06349
 10 Li    0.00063    0.00095    0.00401
 11 Li   -0.00000   -0.00156   -0.00639
 12 Li   -0.00342   -0.00224    0.00749
 13 Li   -0.00000    0.00388    0.01480
 14 Li   -0.00740   -0.00534   -0.02061
 15 Li   -0.00000    0.12828   -0.19306
 16 Li    0.00004    0.00150   -0.03278
 17 Li    0.00000    0.00138    0.05826
 18 Li    0.00124   -0.00120    0.01010
 19 Li    0.00000   -0.00585   -0.03340
 20 Li   -0.00516    0.00287    0.00668
 21 Li    0.00000    0.00313    0.00413
 22 Li   -0.00428    0.00400   -0.03880
 23 Li    0.00000   -0.03120   -0.01585
 24 Li   -0.00348   -0.00129   -0.02948
 25 Li   -0.00097    0.00216    0.05903
 26 Li   -0.00046    0.00005    0.02715
 27 Li   -0.00248    0.00199   -0.04424
 28 Li    0.00902   -0.00032    0.00629
 29 Li    0.00615   -0.00425    0.01164
 30 Li   -0.00686    0.00277   -0.02292
 31 Li    0.00592    0.01654    0.00233
 32 Li    0.00166   -0.00011   -0.03430
 33 Li    0.00115   -0.00116    0.06019
 34 Li   -0.00063    0.00095    0.00401
 35 Li   -0.00698   -0.00068   -0.03241
 36 Li    0.00342   -0.00225    0.00749
 37 Li    0.00883    0.00349    0.00977
 38 Li    0.00740   -0.00534   -0.02061
 39 Li   -0.00884   -0.01121   -0.00325
 40 Li   -0.00004    0.00150   -0.03279
 41 Li   -0.00210   -0.00113    0.05774
 42 Li   -0.00124   -0.00120    0.01010
 43 Li   -0.00172   -0.00140   -0.04809
 44 Li    0.00516    0.00287    0.00668
 45 Li   -0.00075    0.00116    0.01457
 46 Li    0.00429    0.00400   -0.03880
 47 Li    0.00114   -0.00241   -0.01657
 48 Li    0.00000    0.00091   -0.03006
 49 Li    0.00097    0.00216    0.05903
 50 Li    0.00000    0.00080    0.00823
 51 Li    0.00248    0.00199   -0.04424
 52 Li   -0.00001   -0.00125    0.02815
 53 Li   -0.00615   -0.00424    0.01164
 54 Li   -0.00000    0.00931    0.00861
 55 Li   -0.00592    0.01654    0.00233
 56 Li    0.00000    0.00314   -0.02919
 57 Li   -0.00115   -0.00116    0.06019
 58 Li    0.00000    0.00016    0.03039
 59 Li    0.00698   -0.00068   -0.03241
 60 Li   -0.00000   -0.00679    0.00693
 61 Li   -0.00883    0.00348    0.00976
 62 Li   -0.00000   -0.00251   -0.01498
 63 Li    0.00884   -0.01121   -0.00325
 64 Li   -0.00000   -0.00394   -0.02924
 65 Li    0.00210   -0.00113    0.05774
 66 Li    0.00000   -0.00130    0.02578
 67 Li    0.00172   -0.00140   -0.04809
 68 Li   -0.00000    0.00823    0.00930
 69 Li    0.00075    0.00115    0.01457
 70 Li   -0.00000   -0.00479   -0.00514
 71 Li   -0.00113   -0.00241   -0.01657
 72 Li   -0.00000   -0.02463    0.10185

System changes: positions 

Initializing position-dependent things.

Density initialized from wave functions
       .-------------------------.  
      /|                         |  
     / |                         |  
    /  |                         |  
   /   |                         |  
  /    |                         |  
 *     |                         |  
 |     |                         |  
 |     |                         |  
 |     |                         |  
 |     |                         |  
 |     |                         |  
 |     |                         |  
 |     |  Li       Li       Li   |  
 |     |Li                       |  
 |     Li       Li        Li     |  
 |     |Li                       |  
 |     Li     LLi     LiLi     Li|  
 |     |  Li       Li       Li   |  
 |     Li   Li  Li  Li       Li  |  
 |     |Li       Li       Li     |  
 |     |      Li  Li  Li       Li|  
 |    Li  Li   Li  Li  Li   Li   |  
 |     |    Li      Li       Li  |  
 |     |Li       Li       Li     |  
 |   Li|      Li  Li  Li         |  
 |    Li  Li   Li  Li   Li  Li   |  
 | Li  |    Li      Li           |  
 |     |Li       Li       Li     |  
 Li    |  Li      Li             |  
 |   LLi      LLi     LiLi       |  
 |     |                         |  
 | Li  |    Li      Li           |  
 |     |                         |  
 Li    |  Li      Li             |  
 |     |                         |  
 |     |                         |  
 |     |                         |  
 |     |                         |  
 |     |                         |  
 |     .-------------------------.  
 |    /                         /   
 |   /                         /    
 |  /                         /     
 | /                         /      
 |/                         /       
 *-------------------------*        

Atomic positions and initial magnetic moments

Positions:
   0 Li     0.000000    0.000000   10.000000    ( 0.0000,  0.0000,  0.0000)
   1 Li     1.745000    1.745000   11.745000    ( 0.0000,  0.0000,  0.0000)
   2 Li     0.000000    0.000000   13.490000    ( 0.0000,  0.0000,  0.0000)
   3 Li     1.745000    1.745000   15.235000    ( 0.0000,  0.0000,  0.0000)
   4 Li     0.015357   -0.004738   16.941763    ( 0.0000,  0.0000,  0.0000)
   5 Li     1.744996    1.767601   18.629288    ( 0.0000,  0.0000,  0.0000)
   6 Li     0.038937   -0.020605   20.454284    ( 0.0000,  0.0000,  0.0000)
   7 Li     1.744994    2.056922   22.178412    ( 0.0000,  0.0000,  0.0000)
   8 Li     0.000000    3.490000   10.000000    ( 0.0000,  0.0000,  0.0000)
   9 Li     1.745000    5.235000   11.745000    ( 0.0000,  0.0000,  0.0000)
  10 Li     0.000000    3.490000   13.490000    ( 0.0000,  0.0000,  0.0000)
  11 Li     1.745000    5.235000   15.235000    ( 0.0000,  0.0000,  0.0000)
  12 Li    -0.028089    3.471455   16.915455    ( 0.0000,  0.0000,  0.0000)
  13 Li     1.744997    5.230873   18.546302    ( 0.0000,  0.0000,  0.0000)
  14 Li    -0.126440    3.406477   20.319541    ( 0.0000,  0.0000,  0.0000)
  15 Li     1.745004    5.192074   21.514976    ( 0.0000,  0.0000,  0.0000)
  16 Li     0.000000    6.980000   10.000000    ( 0.0000,  0.0000,  0.0000)
  17 Li     1.745000    8.725000   11.745000    ( 0.0000,  0.0000,  0.0000)
  18 Li     0.000000    6.980000   13.490000    ( 0.0000,  0.0000,  0.0000)
  19 Li     1.745000    8.725000   15.235000    ( 0.0000,  0.0000,  0.0000)
  20 Li    -0.019320    7.003330   16.920868    ( 0.0000,  0.0000,  0.0000)
  21 Li     1.744995    8.706957   18.643663    ( 0.0000,  0.0000,  0.0000)
  22 Li    -0.091829    7.083856   20.344789    ( 0.0000,  0.0000,  0.0000)
  23 Li     1.744990    8.459627   22.331971    ( 0.0000,  0.0000,  0.0000)
  24 Li     3.490000    0.000000   10.000000    ( 0.0000,  0.0000,  0.0000)
  25 Li     5.235000    1.745000   11.745000    ( 0.0000,  0.0000,  0.0000)
  26 Li     3.490000    0.000000   13.490000    ( 0.0000,  0.0000,  0.0000)
  27 Li     5.235000    1.745000   15.235000    ( 0.0000,  0.0000,  0.0000)
  28 Li     3.474644   -0.004738   16.941772    ( 0.0000,  0.0000,  0.0000)
  29 Li     5.291240    1.684317   18.625646    ( 0.0000,  0.0000,  0.0000)
  30 Li     3.451057   -0.020605   20.454283    ( 0.0000,  0.0000,  0.0000)
  31 Li     5.178316    1.739156   22.294924    ( 0.0000,  0.0000,  0.0000)
  32 Li     3.490000    3.490000   10.000000    ( 0.0000,  0.0000,  0.0000)
  33 Li     5.235000    5.235000   11.745000    ( 0.0000,  0.0000,  0.0000)
  34 Li     3.490000    3.490000   13.490000    ( 0.0000,  0.0000,  0.0000)
  35 Li     5.235000    5.235000   15.235000    ( 0.0000,  0.0000,  0.0000)
  36 Li     3.518082    3.471456   16.915455    ( 0.0000,  0.0000,  0.0000)
  37 Li     5.225195    5.247814   18.640622    ( 0.0000,  0.0000,  0.0000)
  38 Li     3.616432    3.406475   20.319537    ( 0.0000,  0.0000,  0.0000)
  39 Li     4.908993    5.234812   22.325859    ( 0.0000,  0.0000,  0.0000)
  40 Li     3.490000    6.980000   10.000000    ( 0.0000,  0.0000,  0.0000)
  41 Li     5.235000    8.725000   11.745000    ( 0.0000,  0.0000,  0.0000)
  42 Li     3.490000    6.980000   13.490000    ( 0.0000,  0.0000,  0.0000)
  43 Li     5.235000    8.725000   15.235000    ( 0.0000,  0.0000,  0.0000)
  44 Li     3.509316    7.003328   16.920871    ( 0.0000,  0.0000,  0.0000)
  45 Li     5.306921    8.772941   18.622162    ( 0.0000,  0.0000,  0.0000)
  46 Li     3.581822    7.083858   20.344786    ( 0.0000,  0.0000,  0.0000)
  47 Li     5.245625    8.731462   22.283909    ( 0.0000,  0.0000,  0.0000)
  48 Li     6.980000    0.000000   10.000000    ( 0.0000,  0.0000,  0.0000)
  49 Li     8.725000    1.745000   11.745000    ( 0.0000,  0.0000,  0.0000)
  50 Li     6.980000    0.000000   13.490000    ( 0.0000,  0.0000,  0.0000)
  51 Li     8.725000    1.745000   15.235000    ( 0.0000,  0.0000,  0.0000)
  52 Li     6.980004    0.004186   16.838284    ( 0.0000,  0.0000,  0.0000)
  53 Li     8.668765    1.684308   18.625645    ( 0.0000,  0.0000,  0.0000)
  54 Li     6.980001    0.013435   20.485201    ( 0.0000,  0.0000,  0.0000)
  55 Li     8.781675    1.739158   22.294927    ( 0.0000,  0.0000,  0.0000)
  56 Li     6.980000    3.490000   10.000000    ( 0.0000,  0.0000,  0.0000)
  57 Li     8.725000    5.235000   11.745000    ( 0.0000,  0.0000,  0.0000)
  58 Li     6.980000    3.490000   13.490000    ( 0.0000,  0.0000,  0.0000)
  59 Li     8.725000    5.235000   15.235000    ( 0.0000,  0.0000,  0.0000)
  60 Li     6.980003    3.506046   16.947369    ( 0.0000,  0.0000,  0.0000)
  61 Li     8.734798    5.247817   18.640625    ( 0.0000,  0.0000,  0.0000)
  62 Li     6.980001    3.536407   20.483066    ( 0.0000,  0.0000,  0.0000)
  63 Li     9.051016    5.234812   22.325864    ( 0.0000,  0.0000,  0.0000)
  64 Li     6.980000    6.980000   10.000000    ( 0.0000,  0.0000,  0.0000)
  65 Li     8.725000    8.725000   11.745000    ( 0.0000,  0.0000,  0.0000)
  66 Li     6.980000    6.980000   13.490000    ( 0.0000,  0.0000,  0.0000)
  67 Li     8.725000    8.725000   15.235000    ( 0.0000,  0.0000,  0.0000)
  68 Li     6.980003    6.959814   16.924917    ( 0.0000,  0.0000,  0.0000)
  69 Li     8.653089    8.772947   18.622159    ( 0.0000,  0.0000,  0.0000)
  70 Li     6.980001    6.920483   20.484289    ( 0.0000,  0.0000,  0.0000)
  71 Li     8.714362    8.731461   22.283911    ( 0.0000,  0.0000,  0.0000)
  72 Li     1.744999    4.641761   24.004234    ( 0.0000,  0.0000,  0.0000)

Unit cell:
           periodic     x           y           z      points  spacing
  1. axis:    yes   10.470000    0.000000    0.000000    35     0.2991
  2. axis:    yes    0.000000   10.470000    0.000000    35     0.2991
  3. axis:    no     0.000000    0.000000   32.215000   108     0.2983

  Lengths:  10.470000  10.470000  32.215000
  Angles:   90.000000  90.000000  90.000000

Effective grid spacing dv^(1/3) = 0.2989

     iter     time        total  log10-change:
                         energy   eigst   dens
iter:   1 00:53:38  -131.348196   -3.66
iter:   2 00:53:42  -131.344098   -4.15  -2.14
iter:   3 00:53:46  -131.343316c  -4.58  -2.42
iter:   4 00:53:49  -131.342643c  -4.72  -2.50
iter:   5 00:53:53  -131.341063c  -5.03  -2.54
iter:   6 00:53:57  -131.341898c  -5.17  -3.01
iter:   7 00:54:00  -131.341337c  -6.08c -2.91
iter:   8 00:54:04  -131.341070c  -5.99c -3.29
iter:   9 00:54:08  -131.341168c  -6.98c -3.55
iter:  10 00:54:12  -131.341180c  -6.79c -3.63
iter:  11 00:54:15  -131.341211c  -7.11c -3.55
iter:  12 00:54:19  -131.341187c  -7.55c -3.93
iter:  13 00:54:23  -131.341220c  -7.35c -4.02c

Converged after 13 iterations.

Dipole moment: (2.906478, 0.545687, 0.288781) |e|*Ang

Energy contributions relative to reference atoms: (reference = -14803.510878)

Kinetic:       +102.491500
Potential:      -92.123310
External:        +0.000000
XC:            -140.615203
Entropy (-ST):   -1.213153
Local:           -0.487631
SIC:             +0.000000
--------------------------
Free energy:   -131.947797
Extrapolated:  -131.341220

Showing all kpts
 Kpt  Band  Eigenvalues  Occupancy
  0    34     -1.58162    1.60928
  0    35     -1.56916    1.56862
  0    36     -1.38548    0.73364
  0    37     -1.34339    0.55107

  1    34     -1.58162    1.60928
  1    35     -1.56916    1.56862
  1    36     -1.38548    0.73364
  1    37     -1.34339    0.55107


Fermi level: -1.44006

Gap: 0.184 eV
Transition (v -> c):
  (s=0, k=0, n=35, [0.25, -0.25, 0.00]) -> (s=0, k=1, n=36, [0.25, 0.25, 0.00])
Direct/indirect transitions are different
Direct gap: 0.184 eV
Transition at: (s=0, k=1, n=35, [0.25, 0.25, 0.00])

Forces in eV/Ang:
  0 Li    0.00350   -0.00133   -0.02952
  1 Li    0.00000   -0.00078    0.06153
  2 Li    0.00045    0.00002    0.02701
  3 Li    0.00000    0.00680   -0.02130
  4 Li   -0.00815   -0.00004    0.00679
  5 Li    0.00000   -0.00499    0.03643
  6 Li    0.00561    0.00229   -0.02080
  7 Li    0.00000   -0.07843    0.01064
  8 Li   -0.00164   -0.00010   -0.03438
  9 Li    0.00000   -0.00059    0.06325
 10 Li    0.00062    0.00094    0.00394
 11 Li   -0.00000   -0.00146   -0.00598
 12 Li   -0.00289   -0.00218    0.00816
 13 Li   -0.00000    0.00365    0.00683
 14 Li   -0.00670   -0.00609   -0.01867
 15 Li   -0.00000    0.11291   -0.15104
 16 Li    0.00006    0.00152   -0.03285
 17 Li    0.00000    0.00139    0.05804
 18 Li    0.00121   -0.00115    0.01001
 19 Li    0.00000   -0.00574   -0.03299
 20 Li   -0.00474    0.00252    0.00677
 21 Li    0.00000    0.00217    0.00395
 22 Li   -0.00832    0.00737   -0.03939
 23 Li    0.00000   -0.02949   -0.01674
 24 Li   -0.00350   -0.00133   -0.02952
 25 Li   -0.00095    0.00211    0.05889
 26 Li   -0.00045    0.00002    0.02701
 27 Li   -0.00218    0.00175   -0.04393
 28 Li    0.00815   -0.00004    0.00679
 29 Li    0.00602   -0.00418    0.01126
 30 Li   -0.00561    0.00230   -0.02081
 31 Li    0.00587    0.01558    0.00191
 32 Li    0.00164   -0.00010   -0.03438
 33 Li    0.00117   -0.00110    0.06002
 34 Li   -0.00062    0.00094    0.00394
 35 Li   -0.00676   -0.00064   -0.03197
 36 Li    0.00289   -0.00219    0.00816
 37 Li    0.00803    0.00300    0.00936
 38 Li    0.00670   -0.00610   -0.01867
 39 Li   -0.00890   -0.01032   -0.00437
 40 Li   -0.00006    0.00152   -0.03285
 41 Li   -0.00209   -0.00113    0.05765
 42 Li   -0.00122   -0.00116    0.01001
 43 Li   -0.00147   -0.00120   -0.04777
 44 Li    0.00474    0.00252    0.00677
 45 Li    0.00006    0.00156    0.01413
 46 Li    0.00832    0.00737   -0.03939
 47 Li    0.00050   -0.00225   -0.01667
 48 Li    0.00000    0.00087   -0.03011
 49 Li    0.00095    0.00211    0.05889
 50 Li    0.00000    0.00077    0.00830
 51 Li    0.00218    0.00175   -0.04393
 52 Li   -0.00000   -0.00123    0.02627
 53 Li   -0.00602   -0.00417    0.01126
 54 Li   -0.00000    0.00901    0.00821
 55 Li   -0.00587    0.01557    0.00192
 56 Li    0.00000    0.00315   -0.02925
 57 Li   -0.00117   -0.00110    0.06002
 58 Li    0.00000    0.00016    0.03027
 59 Li    0.00676   -0.00064   -0.03198
 60 Li   -0.00000   -0.00636    0.00708
 61 Li   -0.00803    0.00300    0.00935
 62 Li   -0.00000   -0.00242   -0.01342
 63 Li    0.00890   -0.01032   -0.00437
 64 Li   -0.00000   -0.00391   -0.02926
 65 Li    0.00209   -0.00113    0.05765
 66 Li    0.00000   -0.00124    0.02562
 67 Li    0.00147   -0.00120   -0.04777
 68 Li   -0.00000    0.00771    0.00934
 69 Li   -0.00006    0.00156    0.01413
[...]
  9 Li    0.00000   -0.00050    0.06278
 10 Li    0.00051    0.00084    0.00398
 11 Li   -0.00000   -0.00105   -0.00446
 12 Li   -0.00123   -0.00236    0.00971
 13 Li   -0.00000    0.00270   -0.02219
 14 Li   -0.00204   -0.00726   -0.00988
 15 Li   -0.00000    0.05641   -0.01452
 16 Li    0.00011    0.00149   -0.03275
 17 Li    0.00000    0.00142    0.05770
 18 Li    0.00109   -0.00102    0.01014
 19 Li    0.00000   -0.00526   -0.03109
 20 Li   -0.00361    0.00170    0.00626
 21 Li    0.00000   -0.00071    0.00177
 22 Li   -0.02248    0.01862   -0.03995
 23 Li    0.00000   -0.02291   -0.02039
 24 Li   -0.00352   -0.00131   -0.02936
 25 Li   -0.00083    0.00198    0.05878
 26 Li   -0.00039    0.00005    0.02698
 27 Li   -0.00093    0.00062   -0.04264
 28 Li    0.00489    0.00082    0.00785
 29 Li    0.00552   -0.00412    0.00871
 30 Li   -0.00049    0.00001   -0.01312
 31 Li    0.00526    0.01166   -0.00014
 32 Li    0.00160   -0.00013   -0.03426
 33 Li    0.00122   -0.00105    0.05982
 34 Li   -0.00051    0.00084    0.00398
 35 Li   -0.00583   -0.00046   -0.03008
 36 Li    0.00124   -0.00236    0.00971
 37 Li    0.00546    0.00112    0.00626
 38 Li    0.00204   -0.00726   -0.00988
 39 Li   -0.00936   -0.00646   -0.00913
 40 Li   -0.00011    0.00149   -0.03275
 41 Li   -0.00203   -0.00101    0.05768
 42 Li   -0.00109   -0.00102    0.01014
 43 Li   -0.00025   -0.00025   -0.04625
 44 Li    0.00362    0.00170    0.00626
 45 Li    0.00389    0.00360    0.01087
 46 Li    0.02249    0.01862   -0.03995
 47 Li   -0.00197   -0.00154   -0.01713
 48 Li    0.00000    0.00084   -0.02997
 49 Li    0.00083    0.00198    0.05878
 50 Li    0.00000    0.00077    0.00919
 51 Li    0.00093    0.00062   -0.04264
 52 Li   -0.00000   -0.00134    0.01775
 53 Li   -0.00552   -0.00412    0.00871
 54 Li   -0.00000    0.00744    0.00617
 55 Li   -0.00526    0.01166   -0.00014
 56 Li   -0.00000    0.00313   -0.02913
 57 Li   -0.00122   -0.00105    0.05982
 58 Li    0.00000    0.00010    0.03008
 59 Li    0.00583   -0.00046   -0.03008
 60 Li   -0.00000   -0.00466    0.00653
 61 Li   -0.00546    0.00112    0.00625
 62 Li   -0.00000   -0.00185   -0.00792
 63 Li    0.00936   -0.00646   -0.00913
 64 Li   -0.00000   -0.00387   -0.02909
 65 Li    0.00202   -0.00101    0.05768
 66 Li    0.00000   -0.00107    0.02560
 67 Li    0.00025   -0.00025   -0.04625
 68 Li   -0.00000    0.00592    0.00870
 69 Li   -0.00390    0.00359    0.01087
 70 Li   -0.00000   -0.00396   -0.00170
 71 Li    0.00197   -0.00154   -0.01713
 72 Li   -0.00000   -0.00960   -0.02855

System changes: positions 

Initializing position-dependent things.

Density initialized from wave functions
       .-------------------------.  
      /|                         |  
     / |                         |  
    /  |                         |  
   /   |                         |  
  /    |                         |  
 *     |                         |  
 |     |                         |  
 |     |                         |  
 |     |                         |  
 |     |                         |  
 |     |                         |  
 |     |                         |  
 |     |  Li       Li       Li   |  
 |     |Li                       |  
 |     Li       Li        Li     |  
 |     |Li                       |  
 |    Li      LLi     LiLi     Li|  
 |     |  Li       Li       Li   |  
 |     Li   Li  Li  Li       Li  |  
 |     |Li       Li       Li     |  
 |     |      Li  Li  Li       Li|  
 |    Li  Li   Li  Li  Li   Li   |  
 |     |    Li      Li       Li  |  
 |     |Li       Li       Li     |  
 |   Li|      Li  Li  Li         |  
 |    Li  Li   Li  Li   Li  Li   |  
 | Li  |    Li      Li           |  
 |     |Li       Li       Li     |  
 Li    |  Li      Li             |  
 |   LLi      LLi     LiLi       |  
 |     |                         |  
 | Li  |    Li      Li           |  
 |     |                         |  
 Li    |  Li      Li             |  
 |     |                         |  
 |     |                         |  
 |     |                         |  
 |     |                         |  
 |     |                         |  
 |     .-------------------------.  
 |    /                         /   
 |   /                         /    
 |  /                         /     
 | /                         /      
 |/                         /       
 *-------------------------*        

Atomic positions and initial magnetic moments

Positions:
   0 Li     0.000000    0.000000   10.000000    ( 0.0000,  0.0000,  0.0000)
   1 Li     1.745000    1.745000   11.745000    ( 0.0000,  0.0000,  0.0000)
   2 Li     0.000000    0.000000   13.490000    ( 0.0000,  0.0000,  0.0000)
   3 Li     1.745000    1.745000   15.235000    ( 0.0000,  0.0000,  0.0000)
   4 Li     0.012044   -0.004848   16.944219    ( 0.0000,  0.0000,  0.0000)
   5 Li     1.744996    1.765571   18.642845    ( 0.0000,  0.0000,  0.0000)
   6 Li     0.040542   -0.020109   20.445716    ( 0.0000,  0.0000,  0.0000)
   7 Li     1.744994    2.025328   22.179751    ( 0.0000,  0.0000,  0.0000)
   8 Li     0.000000    3.490000   10.000000    ( 0.0000,  0.0000,  0.0000)
   9 Li     1.745000    5.235000   11.745000    ( 0.0000,  0.0000,  0.0000)
  10 Li     0.000000    3.490000   13.490000    ( 0.0000,  0.0000,  0.0000)
  11 Li     1.745000    5.235000   15.235000    ( 0.0000,  0.0000,  0.0000)
  12 Li    -0.029238    3.470742   16.918556    ( 0.0000,  0.0000,  0.0000)
  13 Li     1.744996    5.232200   18.549515    ( 0.0000,  0.0000,  0.0000)
  14 Li    -0.128864    3.405019   20.312427    ( 0.0000,  0.0000,  0.0000)
  15 Li     1.745002    5.235042   21.456571    ( 0.0000,  0.0000,  0.0000)
  16 Li     0.000000    6.980000   10.000000    ( 0.0000,  0.0000,  0.0000)
  17 Li     1.745000    8.725000   11.745000    ( 0.0000,  0.0000,  0.0000)
  18 Li     0.000000    6.980000   13.490000    ( 0.0000,  0.0000,  0.0000)
  19 Li     1.745000    8.725000   15.235000    ( 0.0000,  0.0000,  0.0000)
  20 Li    -0.021037    7.004259   16.923542    ( 0.0000,  0.0000,  0.0000)
  21 Li     1.744996    8.708021   18.645060    ( 0.0000,  0.0000,  0.0000)
  22 Li    -0.094284    7.086144   20.330209    ( 0.0000,  0.0000,  0.0000)
  23 Li     1.744991    8.450507   22.325502    ( 0.0000,  0.0000,  0.0000)
  24 Li     3.490000    0.000000   10.000000    ( 0.0000,  0.0000,  0.0000)
  25 Li     5.235000    1.745000   11.745000    ( 0.0000,  0.0000,  0.0000)
  26 Li     3.490000    0.000000   13.490000    ( 0.0000,  0.0000,  0.0000)
  27 Li     5.235000    1.745000   15.235000    ( 0.0000,  0.0000,  0.0000)
  28 Li     3.477957   -0.004848   16.944226    ( 0.0000,  0.0000,  0.0000)
  29 Li     5.293276    1.682905   18.629950    ( 0.0000,  0.0000,  0.0000)
  30 Li     3.449452   -0.020109   20.445714    ( 0.0000,  0.0000,  0.0000)
  31 Li     5.179400    1.745201   22.295779    ( 0.0000,  0.0000,  0.0000)
  32 Li     3.490000    3.490000   10.000000    ( 0.0000,  0.0000,  0.0000)
  33 Li     5.235000    5.235000   11.745000    ( 0.0000,  0.0000,  0.0000)
  34 Li     3.490000    3.490000   13.490000    ( 0.0000,  0.0000,  0.0000)
  35 Li     5.235000    5.235000   15.235000    ( 0.0000,  0.0000,  0.0000)
  36 Li     3.519233    3.470742   16.918556    ( 0.0000,  0.0000,  0.0000)
  37 Li     5.228622    5.249180   18.644031    ( 0.0000,  0.0000,  0.0000)
  38 Li     3.618857    3.405016   20.312425    ( 0.0000,  0.0000,  0.0000)
  39 Li     4.906691    5.230862   22.324038    ( 0.0000,  0.0000,  0.0000)
  40 Li     3.490000    6.980000   10.000000    ( 0.0000,  0.0000,  0.0000)
  41 Li     5.235000    8.725000   11.745000    ( 0.0000,  0.0000,  0.0000)
  42 Li     3.490000    6.980000   13.490000    ( 0.0000,  0.0000,  0.0000)
  43 Li     5.235000    8.725000   15.235000    ( 0.0000,  0.0000,  0.0000)
  44 Li     3.511034    7.004259   16.923544    ( 0.0000,  0.0000,  0.0000)
  45 Li     5.306974    8.773157   18.627455    ( 0.0000,  0.0000,  0.0000)
  46 Li     3.584279    7.086147   20.330207    ( 0.0000,  0.0000,  0.0000)
  47 Li     5.245809    8.730548   22.277504    ( 0.0000,  0.0000,  0.0000)
  48 Li     6.980000    0.000000   10.000000    ( 0.0000,  0.0000,  0.0000)
  49 Li     8.725000    1.745000   11.745000    ( 0.0000,  0.0000,  0.0000)
  50 Li     6.980000    0.000000   13.490000    ( 0.0000,  0.0000,  0.0000)
  51 Li     8.725000    1.745000   15.235000    ( 0.0000,  0.0000,  0.0000)
  52 Li     6.980002    0.003769   16.848691    ( 0.0000,  0.0000,  0.0000)
  53 Li     8.666728    1.682900   18.629950    ( 0.0000,  0.0000,  0.0000)
  54 Li     6.980000    0.017109   20.488332    ( 0.0000,  0.0000,  0.0000)
  55 Li     8.780591    1.745202   22.295782    ( 0.0000,  0.0000,  0.0000)
  56 Li     6.980000    3.490000   10.000000    ( 0.0000,  0.0000,  0.0000)
  57 Li     8.725000    5.235000   11.745000    ( 0.0000,  0.0000,  0.0000)
  58 Li     6.980000    3.490000   13.490000    ( 0.0000,  0.0000,  0.0000)
  59 Li     8.725000    5.235000   15.235000    ( 0.0000,  0.0000,  0.0000)
  60 Li     6.980002    3.503446   16.950024    ( 0.0000,  0.0000,  0.0000)
  61 Li     8.731373    5.249181   18.644032    ( 0.0000,  0.0000,  0.0000)
  62 Li     6.980001    3.535090   20.477826    ( 0.0000,  0.0000,  0.0000)
  63 Li     9.053319    5.230862   22.324043    ( 0.0000,  0.0000,  0.0000)
  64 Li     6.980000    6.980000   10.000000    ( 0.0000,  0.0000,  0.0000)
  65 Li     8.725000    8.725000   11.745000    ( 0.0000,  0.0000,  0.0000)
  66 Li     6.980000    6.980000   13.490000    ( 0.0000,  0.0000,  0.0000)
  67 Li     8.725000    8.725000   15.235000    ( 0.0000,  0.0000,  0.0000)
  68 Li     6.980002    6.962884   16.928071    ( 0.0000,  0.0000,  0.0000)
  69 Li     8.653034    8.773161   18.627453    ( 0.0000,  0.0000,  0.0000)
  70 Li     6.980001    6.918872   20.482547    ( 0.0000,  0.0000,  0.0000)
  71 Li     8.714180    8.730548   22.277506    ( 0.0000,  0.0000,  0.0000)
  72 Li     1.744998    4.623427   24.033959    ( 0.0000,  0.0000,  0.0000)

Unit cell:
           periodic     x           y           z      points  spacing
  1. axis:    yes   10.470000    0.000000    0.000000    35     0.2991
  2. axis:    yes    0.000000   10.470000    0.000000    35     0.2991
  3. axis:    no     0.000000    0.000000   32.215000   108     0.2983

  Lengths:  10.470000  10.470000  32.215000
  Angles:   90.000000  90.000000  90.000000

Effective grid spacing dv^(1/3) = 0.2989

     iter     time        total  log10-change:
                         energy   eigst   dens
iter:   1 01:14:57  -131.376862   -3.23
iter:   2 01:15:01  -131.367212   -3.49  -1.83
iter:   3 01:15:06  -131.365108c  -3.60  -2.01
iter:   4 01:15:10  -131.354767c  -4.55  -1.97
iter:   5 01:15:14  -131.352928c  -4.47  -2.53
iter:   6 01:15:18  -131.353150c  -4.97  -2.73
iter:   7 01:15:23  -131.352762c  -5.78c -2.84
iter:   8 01:15:27  -131.352572c  -5.89c -3.17
iter:   9 01:15:31  -131.352634c  -6.48c -3.36
iter:  10 01:15:35  -131.352669c  -6.76c -3.44
iter:  11 01:15:39  -131.352645c  -6.89c -3.58
iter:  12 01:15:43  -131.352630c  -7.26c -3.75
iter:  13 01:15:47  -131.352684c  -7.10c -3.82
iter:  14 01:15:51  -131.352650c  -7.50c -3.88
iter:  15 01:15:55  -131.352638c  -7.60c -4.03c

Converged after 15 iterations.

Dipole moment: (3.020190, 0.465751, 0.298445) |e|*Ang

Energy contributions relative to reference atoms: (reference = -14803.510878)

Kinetic:       +102.376384
Potential:      -92.051888
External:        +0.000000
XC:            -140.581312
Entropy (-ST):   -1.216034
Local:           -0.487804
SIC:             +0.000000
--------------------------
Free energy:   -131.960655
Extrapolated:  -131.352638

Showing all kpts
 Kpt  Band  Eigenvalues  Occupancy
  0    34     -1.57941    1.60649
  0    35     -1.56680    1.56509
  0    36     -1.38703    0.74703
  0    37     -1.34292    0.55445

  1    34     -1.57941    1.60649
  1    35     -1.56680    1.56510
  1    36     -1.38703    0.74703
  1    37     -1.34292    0.55445


Fermi level: -1.43874

Gap: 0.180 eV
Transition (v -> c):
  (s=0, k=0, n=35, [0.25, -0.25, 0.00]) -> (s=0, k=1, n=36, [0.25, 0.25, 0.00])
Direct/indirect transitions are different
Direct gap: 0.180 eV
Transition at: (s=0, k=0, n=35, [0.25, -0.25, 0.00])

Forces in eV/Ang:
  0 Li    0.00350   -0.00132   -0.02929
  1 Li    0.00000   -0.00094    0.06120
  2 Li    0.00039    0.00005    0.02682
  3 Li    0.00000    0.00583   -0.01760
  4 Li   -0.00339    0.00111    0.00842
  5 Li    0.00000   -0.00355    0.01542
  6 Li   -0.00173   -0.00087   -0.00956
  7 Li    0.00000   -0.04386    0.00007
  8 Li   -0.00159   -0.00017   -0.03424
  9 Li    0.00000   -0.00045    0.06251
 10 Li    0.00046    0.00081    0.00398
 11 Li    0.00000   -0.00090   -0.00400
 12 Li   -0.00077   -0.00266    0.01024
 13 Li    0.00000    0.00238   -0.03148
 14 Li    0.00122   -0.00669   -0.00532
 15 Li   -0.00000    0.03443    0.02924
 16 Li    0.00010    0.00152   -0.03275
 17 Li    0.00000    0.00141    0.05748
 18 Li    0.00108   -0.00098    0.01009
 19 Li    0.00000   -0.00505   -0.03021
 20 Li   -0.00338    0.00159    0.00591
 21 Li    0.00000   -0.00174    0.00103
 22 Li   -0.02682    0.02142   -0.03849
 23 Li    0.00000   -0.01983   -0.02193
 24 Li   -0.00350   -0.00132   -0.02929
 25 Li   -0.00075    0.00192    0.05867
 26 Li   -0.00039    0.00005    0.02682
 27 Li   -0.00040    0.00018   -0.04207
 28 Li    0.00339    0.00110    0.00842
 29 Li    0.00510   -0.00390    0.00777
 30 Li    0.00173   -0.00087   -0.00956
 31 Li    0.00478    0.00971   -0.00093
 32 Li    0.00159   -0.00017   -0.03424
 33 Li    0.00124   -0.00103    0.05968
 34 Li   -0.00046    0.00081    0.00398
 35 Li   -0.00544   -0.00048   -0.02917
 36 Li    0.00078   -0.00266    0.01024
 37 Li    0.00435    0.00000    0.00488
 38 Li   -0.00121   -0.00669   -0.00532
 39 Li   -0.00933   -0.00421   -0.01119
 40 Li   -0.00010    0.00152   -0.03275
 41 Li   -0.00199   -0.00093    0.05759
 42 Li   -0.00108   -0.00098    0.01009
 43 Li    0.00021    0.00020   -0.04553
 44 Li    0.00338    0.00159    0.00591
 45 Li    0.00600    0.00480    0.00916
 46 Li    0.02682    0.02142   -0.03849
 47 Li   -0.00296   -0.00119   -0.01684
 48 Li    0.00000    0.00082   -0.02987
 49 Li    0.00075    0.00192    0.05866
 50 Li    0.00000    0.00082    0.00932
 51 Li    0.00040    0.00018   -0.04207
 52 Li   -0.00000   -0.00120    0.01360
 53 Li   -0.00510   -0.00389    0.00777
 54 Li   -0.00000    0.00650    0.00525
 55 Li   -0.00478    0.00971   -0.00093
 56 Li   -0.00000    0.00308   -0.02908
 57 Li   -0.00124   -0.00103    0.05968
 58 Li    0.00000    0.00007    0.02981
 59 Li    0.00544   -0.00048   -0.02917
 60 Li   -0.00000   -0.00388    0.00628
 61 Li   -0.00434    0.00000    0.00487
 62 Li   -0.00000   -0.00149   -0.00531
 63 Li    0.00933   -0.00421   -0.01118
 64 Li   -0.00000   -0.00381   -0.02902
 65 Li    0.00199   -0.00093    0.05759
 66 Li    0.00000   -0.00104    0.02543
 67 Li   -0.00021    0.00020   -0.04553
 68 Li   -0.00000    0.00491    0.00847
 69 Li   -0.00601    0.00480    0.00916
 70 Li   -0.00000   -0.00356   -0.00067
 71 Li    0.00297   -0.00119   -0.01684
 72 Li   -0.00000   -0.00639   -0.06028

Timing:                                      incl.     excl.
-------------------------------------------------------------------
Density initialized from wave functions:     6.425     6.425   0.1% |
 Symmetrize density:                         0.000     0.000   0.0% |
Forces:                                     31.636    31.636   0.3% |
Hamiltonian:                                13.434     0.075   0.0% |
 Atomic:                                     7.074     0.032   0.0% |
  XC Correction:                             7.042     7.042   0.1% |
 Calculate atomic Hamiltonians:              4.385     4.385   0.0% |
 Communicate:                                0.000     0.000   0.0% |
 Initialize Hamiltonian:                     0.000     0.000   0.0% |
 Poisson:                                    0.159     0.159   0.0% |
 XC 3D grid:                                 1.740     1.740   0.0% |
LCAO initialization:                        11.546     0.005   0.0% |
 LCAO eigensolver:                           0.384     0.001   0.0% |
  Calculate projections:                     0.003     0.003   0.0% |
  DenseAtomicCorrection:                     0.041     0.041   0.0% |
  Distribute overlap matrix:                 0.000     0.000   0.0% |
  Orbital Layouts:                           0.073     0.073   0.0% |
  Potential matrix:                          0.259     0.259   0.0% |
  Sum over cells:                            0.007     0.007   0.0% |
 LCAO to grid:                              10.519    10.519   0.1% |
 Set positions (LCAO WFS):                   0.638     0.160   0.0% |
  Basic WFS set positions:                   0.001     0.001   0.0% |
  Basis functions set positions:             0.000     0.000   0.0% |
  P tci:                                     0.312     0.312   0.0% |
  ST tci:                                    0.144     0.144   0.0% |
  mktci:                                     0.022     0.022   0.0% |
PWDescriptor:                                0.008     0.008   0.0% |
Redistribute:                                0.018     0.018   0.0% |
SCF-cycle:                                 562.836     0.119   0.0% |
 Davidson:                                 309.541    64.384   0.6% |
  Apply H:                                  51.899    51.257   0.5% |
   HMM T:                                    0.642     0.642   0.0% |
  Subspace diag:                            60.116     0.090   0.0% |
   calc_h_matrix:                           55.192     3.680   0.0% |
    Apply H:                                51.513    50.744   0.5% |
     HMM T:                                  0.768     0.768   0.0% |
   diagonalize:                              0.222     0.222   0.0% |
   rotate_psi:                               4.611     4.611   0.0% |
  calc. matrices:                          122.100    18.254   0.2% |
   Apply H:                                103.846   102.670   1.0% |
    HMM T:                                   1.176     1.176   0.0% |
  diagonalize:                               1.708     1.708   0.0% |
  rotate_psi:                                9.335     9.335   0.1% |
 Density:                                   77.404     0.002   0.0% |
  Atomic density matrices:                   0.389     0.389   0.0% |
  Mix:                                      51.749    51.749   0.5% |
  Multipole moments:                         0.087     0.087   0.0% |
  Pseudo density:                           25.179    25.176   0.2% |
   Symmetrize density:                       0.002     0.002   0.0% |
 Hamiltonian:                              172.564     0.332   0.0% |
  Atomic:                                   93.451     0.344   0.0% |
   XC Correction:                           93.107    93.107   0.9% |
  Calculate atomic Hamiltonians:            56.280    56.280   0.5% |
  Communicate:                               0.001     0.001   0.0% |
  Poisson:                                   0.249     0.249   0.0% |
  XC 3D grid:                               22.250    22.250   0.2% |
 Orthonormalize:                             3.208     0.003   0.0% |
  calc_s_matrix:                             0.142     0.142   0.0% |
  inverse-cholesky:                          0.007     0.007   0.0% |
  projections:                               2.006     2.006   0.0% |
  rotate_psi_s:                              1.049     1.049   0.0% |
Set symmetry:                                0.000     0.000   0.0% |
Other:                                   10126.299 10126.299  94.2% |-------------------------------------|
-------------------------------------------------------------------
Total:                                             10752.203 100.0%

Memory usage: 4.13 GiB
Date: Tue Nov 25 03:13:44 2025
