
  ___ ___ ___ _ _ _  
 |   |   |_  | | | | 
 | | | | | . | | | | 
 |__ |  _|___|_____|  25.7.0
 |___|_|             

User:   tew@Mathuss-MacBook-Air-357.local
Date:   Mon Nov 24 18:22:24 2025
Arch:   arm64
Pid:    76608
CWD:    /Users/tew/Documents/Project/GitHub/chem-com
Python: 3.13.5
gpaw:   /Users/tew/Documents/Project/GitHub/chem-com/.venv/lib/python3.13/site-packages/gpaw
_gpaw:  /Users/tew/Documents/Project/GitHub/chem-com/.venv/lib/python3.13/site-packages/
        _gpaw.cpython-313-darwin.so
ase:    /Users/tew/Documents/Project/GitHub/chem-com/.venv/lib/python3.13/site-packages/ase (version 3.26.0)
numpy:  /Users/tew/Documents/Project/GitHub/chem-com/.venv/lib/python3.13/site-packages/numpy (version 2.3.5)
scipy:  /Users/tew/Documents/Project/GitHub/chem-com/.venv/lib/python3.13/site-packages/scipy (version 1.16.3)
libxc:  2.x.y
units:  Angstrom and eV
cores: 1
OpenMP: False
OMP_NUM_THREADS: 1

Input parameters:
  convergence: {density: 0.0001,
                eigenstates: 5e-06}
  kpts: [2 2 1]
  mode: {ecut: 200.0,
         name: pw}
  xc: PBE

System changes: positions, numbers, cell, pbc, initial_charges, initial_magmoms 

Initialize ...

species:
  Li:
    name: Lithium
    id: 830b4218f175192f93f959cfc0aad614
    Z: 3.0
    valence: 1
    core: 2
    charge: 0.0
    file: /Users/tew/Documents/Project/GitHub/chem-com/.venv/lib/python3.13/site-packages/gpaw_data/setups/Li.PBE.gz
    compensation charges: {type: gauss,
                           rc: 0.33,
                           lmax: 2}
    cutoffs: {filter: 1.91,
              core: 2.55}
    projectors:
      #              energy  rcut
      - 2s(1.00)    -2.874   1.058
      - 2p(0.00)    -1.090   1.058
      -  s          24.337   1.058
  
    # Using partial waves for Li as LCAO basis

Reference energy: -14803.510878  # eV

Spin-paired calculation

Convergence criteria:
 Maximum [total energy] change in last 3 cyles: 0.0005 eV / valence electron
 Maximum integral of absolute [dens]ity change: 0.0001 electrons / valence electron
 Maximum integral of absolute [eigenst]ate change: 5e-06 eV^2 / valence electron
 Maximum number of scf [iter]ations: 333
 (Square brackets indicate name in SCF output, whereas a 'c' in
 the SCF output indicates the quantity has converged.)

Symmetries present (total): 1

  ( 1  0  0)
  ( 0  1  0)
  ( 0  0  1)

4 k-points: 2 x 2 x 1 Monkhorst-Pack grid
2 k-points in the irreducible part of the Brillouin zone
       k-points in crystal coordinates                weights
   0:     0.25000000   -0.25000000    0.00000000          2/4
   1:     0.25000000    0.25000000    0.00000000          2/4

Wave functions: Plane wave expansion
  Cutoff energy: 200.000 eV
  Number of coefficients (min, max): 33010, 33019
  Pulay-stress correction: 0.000000 eV/Ang^3 (de/decut=0.000000)
  Using Numpy's FFT
  ScaLapack parameters: grid=1x1, blocksize=None
  Wavefunction extrapolation:
    Improved wavefunction reuse through dual PAW basis 

Occupation numbers: Fermi-Dirac:
  width: 0.1000  # eV
 

Eigensolver
   Davidson(niter=2) 

Densities:
  Coarse grid: 49*49*90 grid
  Fine grid: 98*98*180 grid
  Total Charge: 0.000000 

Density mixing:
  Method: separate
  Backend: pulay
  Linear mixing parameter: 0.05
  old densities: 5
  Damping of long wavelength oscillations: 50 

Hamiltonian:
  XC and Coulomb potentials evaluated on a 98*98*180 grid
  Using the PBE Exchange-Correlation functional
  External potential:
    NoExternalPotential
 

XC parameters: PBE with 2 nearest neighbor stencil

Memory estimate:
  Process memory now: 2373.62 MiB
  Calculator: 211.72 MiB
    Density: 94.25 MiB
      Arrays: 42.86 MiB
      Localized functions: 34.90 MiB
      Mixer: 16.49 MiB
    Hamiltonian: 28.74 MiB
      Arrays: 28.03 MiB
      XC: 0.00 MiB
      Poisson: 0.00 MiB
      vbar: 0.71 MiB
    Wavefunctions: 88.74 MiB
      Arrays psit_nG: 48.37 MiB
      Eigensolver: 27.06 MiB
      Projections: 0.53 MiB
      Projectors: 3.53 MiB
      PW-descriptor: 9.25 MiB

Total number of cores used: 1

Number of atoms: 73
Number of atomic orbitals: 292
Number of bands in calculation: 48
Number of valence electrons: 73
Bands to converge: occupied

... initialized

Initializing position-dependent things.

Density initialized from atomic densities
Creating initial wave functions:
  48 bands from LCAO basis set

                                                                       
                                                                       
                                                                       
                                                                       
                                                                       
                                                                       
                               Li          Li          Li              
                                                                       
                  Li    Li            Li          Li          Li       
                      Li           Lii         Lii                     
                             LiLi        LiLi        LiLi              
                Li        LiLi        LiLi        Li          Li       
              Li        Li         Lii         Lii                     
       Li          LiLii       LiLi        LiLi        Li              
                Li          Lii         Lii          Li                
              Li        LiLi        LiLi        Li                     
                     Lii         Lii         LiLi                      
       Li          Li          Li                                      
              LiLi        LiLi        LiLi                             
                                                                       
       Li          Li          Li                                      
                                                                       
                                                                       
                                                                       
                                                                       

Atomic positions and initial magnetic moments

Positions:
   0 Li     0.000000    0.000000   10.000000    ( 0.0000,  0.0000,  0.0000)
   1 Li     2.467803    1.424787   11.007476    ( 0.0000,  0.0000,  0.0000)
   2 Li     4.935605    2.849573   12.014952    ( 0.0000,  0.0000,  0.0000)
   3 Li     0.000000    0.000000   13.022429    ( 0.0000,  0.0000,  0.0000)
   4 Li     2.461655    1.423183   13.801911    ( 0.0000,  0.0000,  0.0000)
   5 Li     4.927285    2.850935   15.037078    ( 0.0000,  0.0000,  0.0000)
   6 Li     0.002852   -0.002072   15.890259    ( 0.0000,  0.0000,  0.0000)
   7 Li     2.493219    1.413069   16.511530    ( 0.0000,  0.0000,  0.0000)
   8 Li     2.467803    4.274360   10.000000    ( 0.0000,  0.0000,  0.0000)
   9 Li     4.935605    5.699146   11.007476    ( 0.0000,  0.0000,  0.0000)
  10 Li     7.403408    7.123933   12.014952    ( 0.0000,  0.0000,  0.0000)
  11 Li     2.467803    4.274360   13.022429    ( 0.0000,  0.0000,  0.0000)
  12 Li     4.932043    5.703141   13.802668    ( 0.0000,  0.0000,  0.0000)
  13 Li     7.397127    7.119490   15.058434    ( 0.0000,  0.0000,  0.0000)
  14 Li     2.463956    4.274563   15.928632    ( 0.0000,  0.0000,  0.0000)
  15 Li     4.955334    5.679749   16.512475    ( 0.0000,  0.0000,  0.0000)
  16 Li     4.935605    8.548719   10.000000    ( 0.0000,  0.0000,  0.0000)
  17 Li     7.403408    9.973506   11.007476    ( 0.0000,  0.0000,  0.0000)
  18 Li     9.871211   11.398292   12.014952    ( 0.0000,  0.0000,  0.0000)
  19 Li     4.935605    8.548719   13.022429    ( 0.0000,  0.0000,  0.0000)
  20 Li     7.397312    9.975792   14.030307    ( 0.0000,  0.0000,  0.0000)
  21 Li     9.870137   11.400999   15.057013    ( 0.0000,  0.0000,  0.0000)
  22 Li     4.935947    8.544656   15.890506    ( 0.0000,  0.0000,  0.0000)
  23 Li     7.454725    9.941720   16.981221    ( 0.0000,  0.0000,  0.0000)
  24 Li     4.935605    0.000000   10.000000    ( 0.0000,  0.0000,  0.0000)
  25 Li     7.403408    1.424787   11.007476    ( 0.0000,  0.0000,  0.0000)
  26 Li     9.871211    2.849573   12.014952    ( 0.0000,  0.0000,  0.0000)
  27 Li     4.935605    0.000000   13.022429    ( 0.0000,  0.0000,  0.0000)
  28 Li     7.408905    1.419289   14.030538    ( 0.0000,  0.0000,  0.0000)
  29 Li     9.871921    2.848076   15.088297    ( 0.0000,  0.0000,  0.0000)
  30 Li     4.932082    0.012979   15.863998    ( 0.0000,  0.0000,  0.0000)
  31 Li     7.367434    1.442835   16.981623    ( 0.0000,  0.0000,  0.0000)
  32 Li     7.403408    4.274360   10.000000    ( 0.0000,  0.0000,  0.0000)
  33 Li     9.871211    5.699146   11.007476    ( 0.0000,  0.0000,  0.0000)
  34 Li    12.339013    7.123933   12.014952    ( 0.0000,  0.0000,  0.0000)
  35 Li     7.403408    4.274360   13.022429    ( 0.0000,  0.0000,  0.0000)
  36 Li     9.874952    5.696897   14.015710    ( 0.0000,  0.0000,  0.0000)
  37 Li    12.334764    7.123871   15.082546    ( 0.0000,  0.0000,  0.0000)
  38 Li     7.388044    4.267097   15.864895    ( 0.0000,  0.0000,  0.0000)
  39 Li     9.865183    5.729198   16.951926    ( 0.0000,  0.0000,  0.0000)
  40 Li     9.871211    8.548719   10.000000    ( 0.0000,  0.0000,  0.0000)
  41 Li    12.339013    9.973506   11.007476    ( 0.0000,  0.0000,  0.0000)
  42 Li    14.806816   11.398292   12.014952    ( 0.0000,  0.0000,  0.0000)
  43 Li     9.871211    8.548719   13.022429    ( 0.0000,  0.0000,  0.0000)
  44 Li    12.342489    9.969992   14.014755    ( 0.0000,  0.0000,  0.0000)
  45 Li    14.805570   11.392903   15.088700    ( 0.0000,  0.0000,  0.0000)
  46 Li     9.857320    8.555549   15.798387    ( 0.0000,  0.0000,  0.0000)
  47 Li    12.309041    9.961066   16.950640    ( 0.0000,  0.0000,  0.0000)
  48 Li     9.871211    0.000000   10.000000    ( 0.0000,  0.0000,  0.0000)
  49 Li    12.339013    1.424787   11.007476    ( 0.0000,  0.0000,  0.0000)
  50 Li    14.806816    2.849573   12.014952    ( 0.0000,  0.0000,  0.0000)
  51 Li     9.871211    0.000000   13.022429    ( 0.0000,  0.0000,  0.0000)
  52 Li    12.334266    1.422434   14.025058    ( 0.0000,  0.0000,  0.0000)
  53 Li    14.803009    2.846494   15.064805    ( 0.0000,  0.0000,  0.0000)
  54 Li     9.863733    0.001527   15.852586    ( 0.0000,  0.0000,  0.0000)
  55 Li    12.340684    1.456686   16.958014    ( 0.0000,  0.0000,  0.0000)
  56 Li    12.339013    4.274360   10.000000    ( 0.0000,  0.0000,  0.0000)
  57 Li    14.806816    5.699146   11.007476    ( 0.0000,  0.0000,  0.0000)
  58 Li    17.274619    7.123933   12.014952    ( 0.0000,  0.0000,  0.0000)
  59 Li    12.339013    4.274360   13.022429    ( 0.0000,  0.0000,  0.0000)
  60 Li    14.801396    5.701528   14.028892    ( 0.0000,  0.0000,  0.0000)
  61 Li    17.272810    7.125929   15.064342    ( 0.0000,  0.0000,  0.0000)
  62 Li    12.349936    4.272636   15.825099    ( 0.0000,  0.0000,  0.0000)
  63 Li    14.784776    5.710710   16.978273    ( 0.0000,  0.0000,  0.0000)
  64 Li    14.806816    8.548719   10.000000    ( 0.0000,  0.0000,  0.0000)
  65 Li    17.274619    9.973506   11.007476    ( 0.0000,  0.0000,  0.0000)
  66 Li    19.742421   11.398292   12.014952    ( 0.0000,  0.0000,  0.0000)
  67 Li    14.806816    8.548719   13.022429    ( 0.0000,  0.0000,  0.0000)
  68 Li    17.272446    9.977004   14.024715    ( 0.0000,  0.0000,  0.0000)
  69 Li    19.734045   11.399939   15.096910    ( 0.0000,  0.0000,  0.0000)
  70 Li    14.812236    8.537536   15.825099    ( 0.0000,  0.0000,  0.0000)
  71 Li    17.245504    9.952402   16.956968    ( 0.0000,  0.0000,  0.0000)
  72 Li     3.709850    3.563511   18.618612    ( 0.0000,  0.0000,  0.0000)

Unit cell:
           periodic     x           y           z      points  spacing
  1. axis:    yes   14.806816    0.000000    0.000000    49     0.2617
  2. axis:    yes    7.403408   12.823079    0.000000    49     0.2617
  3. axis:    no     0.000000    0.000000   27.052334    90     0.3006

  Lengths:  14.806816  14.806816  27.052334
  Angles:   90.000000  90.000000  60.000000

Effective grid spacing dv^(1/3) = 0.2875

     iter     time        total  log10-change:
                         energy   eigst   dens
iter:   1 18:29:48  -134.546724
iter:   2 18:29:54  -130.353166   -0.94  -0.52
iter:   3 18:29:59  -126.171184   -0.79  -0.63
iter:   4 18:30:05  -127.344643   -1.33  -0.90
iter:   5 18:30:11  -127.004114   -1.94  -0.85
iter:   6 18:30:16  -126.379398   -1.03  -0.88
iter:   7 18:30:22  -125.446107   -2.03  -1.01
iter:   8 18:30:28  -125.476072   -2.45  -1.40
iter:   9 18:30:33  -125.520422   -2.56  -1.46
iter:  10 18:30:39  -125.473959   -2.97  -1.47
iter:  11 18:30:45  -125.486934   -2.91  -1.71
iter:  12 18:30:51  -125.484899c  -3.51  -1.88
iter:  13 18:30:56  -125.472391c  -3.45  -2.00
iter:  14 18:31:02  -125.472655c  -4.10  -2.29
iter:  15 18:31:08  -125.475403c  -3.97  -2.37
iter:  16 18:31:14  -125.472353c  -4.26  -2.37
iter:  17 18:31:19  -125.471680c  -4.47  -2.67
iter:  18 18:31:25  -125.471945c  -4.71  -2.77
iter:  19 18:31:31  -125.471830c  -4.79  -2.98
iter:  20 18:31:37  -125.471678c  -5.04  -3.16
iter:  21 18:31:42  -125.471616c  -5.17  -3.24
iter:  22 18:31:49  -125.471578c  -5.26  -3.33
iter:  23 18:31:55  -125.471510c  -5.44c -3.51
iter:  24 18:32:01  -125.471426c  -5.28  -3.56
iter:  25 18:32:08  -125.471393c  -5.56c -3.71
iter:  26 18:32:14  -125.471348c  -5.58c -3.77
iter:  27 18:32:21  -125.471295c  -5.59c -3.81
iter:  28 18:32:27  -125.471265c  -5.71c -3.97
iter:  29 18:32:34  -125.471236c  -5.82c -4.17c

Converged after 29 iterations.

Dipole moment: (-9.672601, -4.891456, 0.242340) |e|*Ang

Energy contributions relative to reference atoms: (reference = -14803.510878)

Kinetic:        +99.450004
Potential:      -89.229797
External:        +0.000000
XC:            -134.658007
Entropy (-ST):   -1.151265
Local:           -0.457803
SIC:             +0.000000
--------------------------
Free energy:   -126.046869
Extrapolated:  -125.471236

Showing all kpts
 Kpt  Band  Eigenvalues  Occupancy
  0    34     -1.83925    1.12663
  0    35     -1.78311    0.84778
  0    36     -1.77145    0.79141
  0    37     -1.74194    0.65543

  1    34     -1.95284    1.60135
  1    35     -1.94975    1.59138
  1    36     -1.86330    1.24262
  1    37     -1.75699    0.72340


Fermi level: -1.81379

No gap
No difference between direct/indirect transitions

Forces in eV/Ang:
  0 Li    0.00171    0.00025    0.05407
  1 Li   -0.00495   -0.00809    0.03264
  2 Li    0.00580   -0.00084   -0.07565
  3 Li   -0.01105   -0.00228   -0.12935
  4 Li   -0.01484   -0.02273    0.04144
  5 Li   -0.04293    0.02470    0.10172
  6 Li   -0.05226   -0.04066   -0.06383
  7 Li   -0.01771    0.05668    0.27075
  8 Li   -0.00606    0.00190    0.07443
  9 Li    0.00462    0.00843    0.03330
 10 Li    0.01087    0.00577   -0.08738
 11 Li   -0.01758    0.00886   -0.09584
 12 Li    0.01110    0.02360    0.04122
 13 Li   -0.00013   -0.00105   -0.04267
 14 Li   -0.02915    0.01760   -0.04422
 15 Li   -0.05679   -0.00904    0.26688
 16 Li   -0.00032   -0.00118    0.05425
 17 Li    0.00078   -0.00011    0.18418
 18 Li    0.00393   -0.01082   -0.08930
 19 Li   -0.00525    0.01252   -0.12904
 20 Li   -0.00117    0.00039    0.03852
 21 Li    0.00082    0.00039   -0.04257
 22 Li    0.00780    0.06526   -0.06489
 23 Li   -0.00920    0.00591   -0.02315
 24 Li   -0.00207   -0.00283    0.05632
 25 Li    0.00622   -0.00482    0.18130
 26 Li    0.00351   -0.00123   -0.05901
 27 Li    0.00884   -0.00270   -0.13502
 28 Li    0.01077   -0.00786    0.02302
 29 Li   -0.00606    0.00214   -0.00383
 30 Li    0.05826   -0.03181   -0.01529
 31 Li   -0.01275    0.00815    0.00401
 32 Li    0.00151    0.00135    0.05615
 33 Li   -0.00350   -0.00296    0.18118
 34 Li    0.00683    0.00150   -0.05558
 35 Li    0.00353   -0.00753   -0.13638
 36 Li   -0.00255   -0.00206    0.03696
 37 Li    0.00122   -0.00230   -0.00260
 38 Li    0.05304   -0.03644   -0.01471
 39 Li    0.01062   -0.00499   -0.01064
 40 Li   -0.00306    0.00325    0.03388
 41 Li    0.00015    0.00400    0.18301
 42 Li    0.00452    0.00071   -0.05702
 43 Li   -0.00037    0.00200   -0.21431
 44 Li    0.00096    0.00346    0.03562
 45 Li   -0.00868    0.00287   -0.00378
 46 Li    0.01655   -0.01003    0.00584
 47 Li    0.01072   -0.00554   -0.01108
 48 Li   -0.00112    0.00034    0.04157
 49 Li    0.00007    0.00190    0.18107
 50 Li   -0.00827    0.00505   -0.08115
 51 Li   -0.00025   -0.00184   -0.17810
 52 Li   -0.00210   -0.00120    0.03473
 53 Li    0.01175   -0.00080   -0.02441
 54 Li   -0.00942    0.00599   -0.00181
 55 Li   -0.01366   -0.00761   -0.00335
 56 Li    0.00229   -0.00232    0.03673
 57 Li   -0.00349    0.00358    0.18078
 58 Li   -0.00840    0.01117   -0.08051
 59 Li    0.00202   -0.00323   -0.19415
 60 Li   -0.00081    0.00176    0.02148
 61 Li    0.00607   -0.01155   -0.02501
 62 Li   -0.02050    0.02083   -0.00172
 63 Li    0.05726   -0.03261    0.02325
 64 Li    0.00077   -0.00388    0.04113
 65 Li   -0.00037   -0.00083    0.18411
 66 Li   -0.00200    0.00159   -0.05579
 67 Li    0.00334   -0.00010   -0.19468
 68 Li   -0.00041    0.00107    0.03203
 69 Li    0.00249   -0.00283    0.00035
 70 Li   -0.02814    0.00772   -0.00182
 71 Li   -0.00045    0.01510   -0.00292
 72 Li    0.07714   -0.04908   -0.31417

System changes: positions 

Initializing position-dependent things.

Density initialized from wave functions
                                                                       
                                                                       
                                                                       
                                                                       
                                                                       
                                                                       
                               Li          Li          Li              
                                                                       
                  Li    Li            Li          Li          Li       
                      Li           Lii         Lii                     
                             LiLi        LiLi        LiLi              
                Li        LiLi        LiLi        Li          Li       
              Li        Li         Lii         Lii                     
       Li          LiLii       LiLi        LiLi        Li              
                Li          Lii         Lii          Li                
              Li        LiLi        LiLi        Li                     
                     Lii         Lii         LiLi                      
       Li          Li          Li                                      
              LiLi        LiLi        LiLi                             
                                                                       
       Li          Li          Li                                      
                                                                       
                                                                       
                                                                       
                                                                       

Atomic positions and initial magnetic moments

Positions:
   0 Li     0.000000    0.000000   10.000000    ( 0.0000,  0.0000,  0.0000)
   1 Li     2.467803    1.424787   11.007476    ( 0.0000,  0.0000,  0.0000)
   2 Li     4.935605    2.849573   12.014952    ( 0.0000,  0.0000,  0.0000)
   3 Li     0.000000    0.000000   13.022429    ( 0.0000,  0.0000,  0.0000)
   4 Li     2.461506    1.422956   13.802328    ( 0.0000,  0.0000,  0.0000)
   5 Li     4.926856    2.851182   15.038095    ( 0.0000,  0.0000,  0.0000)
   6 Li     0.002329   -0.002479   15.889620    ( 0.0000,  0.0000,  0.0000)
   7 Li     2.493042    1.413635   16.514243    ( 0.0000,  0.0000,  0.0000)
   8 Li     2.467803    4.274360   10.000000    ( 0.0000,  0.0000,  0.0000)
   9 Li     4.935605    5.699146   11.007476    ( 0.0000,  0.0000,  0.0000)
  10 Li     7.403408    7.123933   12.014952    ( 0.0000,  0.0000,  0.0000)
  11 Li     2.467803    4.274360   13.022429    ( 0.0000,  0.0000,  0.0000)
  12 Li     4.932154    5.703377   13.803078    ( 0.0000,  0.0000,  0.0000)
  13 Li     7.397126    7.119479   15.058007    ( 0.0000,  0.0000,  0.0000)
  14 Li     2.463665    4.274739   15.928189    ( 0.0000,  0.0000,  0.0000)
  15 Li     4.954766    5.679659   16.515138    ( 0.0000,  0.0000,  0.0000)
  16 Li     4.935605    8.548719   10.000000    ( 0.0000,  0.0000,  0.0000)
  17 Li     7.403408    9.973506   11.007476    ( 0.0000,  0.0000,  0.0000)
  18 Li     9.871211   11.398292   12.014952    ( 0.0000,  0.0000,  0.0000)
  19 Li     4.935605    8.548719   13.022429    ( 0.0000,  0.0000,  0.0000)
  20 Li     7.397300    9.975796   14.030692    ( 0.0000,  0.0000,  0.0000)
  21 Li     9.870145   11.401003   15.056588    ( 0.0000,  0.0000,  0.0000)
  22 Li     4.936025    8.545308   15.889858    ( 0.0000,  0.0000,  0.0000)
  23 Li     7.454633    9.941779   16.980990    ( 0.0000,  0.0000,  0.0000)
  24 Li     4.935605    0.000000   10.000000    ( 0.0000,  0.0000,  0.0000)
  25 Li     7.403408    1.424787   11.007476    ( 0.0000,  0.0000,  0.0000)
  26 Li     9.871211    2.849573   12.014952    ( 0.0000,  0.0000,  0.0000)
  27 Li     4.935605    0.000000   13.022429    ( 0.0000,  0.0000,  0.0000)
  28 Li     7.409012    1.419210   14.030769    ( 0.0000,  0.0000,  0.0000)
  29 Li     9.871861    2.848097   15.088259    ( 0.0000,  0.0000,  0.0000)
  30 Li     4.932664    0.012661   15.863845    ( 0.0000,  0.0000,  0.0000)
  31 Li     7.367307    1.442916   16.981663    ( 0.0000,  0.0000,  0.0000)
  32 Li     7.403408    4.274360   10.000000    ( 0.0000,  0.0000,  0.0000)
  33 Li     9.871211    5.699146   11.007476    ( 0.0000,  0.0000,  0.0000)
  34 Li    12.339013    7.123933   12.014952    ( 0.0000,  0.0000,  0.0000)
  35 Li     7.403408    4.274360   13.022429    ( 0.0000,  0.0000,  0.0000)
  36 Li     9.874926    5.696877   14.016080    ( 0.0000,  0.0000,  0.0000)
  37 Li    12.334776    7.123848   15.082520    ( 0.0000,  0.0000,  0.0000)
  38 Li     7.388575    4.266732   15.864749    ( 0.0000,  0.0000,  0.0000)
  39 Li     9.865289    5.729148   16.951820    ( 0.0000,  0.0000,  0.0000)
  40 Li     9.871211    8.548719   10.000000    ( 0.0000,  0.0000,  0.0000)
  41 Li    12.339013    9.973506   11.007476    ( 0.0000,  0.0000,  0.0000)
  42 Li    14.806816   11.398292   12.014952    ( 0.0000,  0.0000,  0.0000)
  43 Li     9.871211    8.548719   13.022429    ( 0.0000,  0.0000,  0.0000)
  44 Li    12.342499    9.970027   14.015111    ( 0.0000,  0.0000,  0.0000)
  45 Li    14.805483   11.392932   15.088662    ( 0.0000,  0.0000,  0.0000)
  46 Li     9.857485    8.555448   15.798445    ( 0.0000,  0.0000,  0.0000)
  47 Li    12.309148    9.961011   16.950529    ( 0.0000,  0.0000,  0.0000)
  48 Li     9.871211    0.000000   10.000000    ( 0.0000,  0.0000,  0.0000)
  49 Li    12.339013    1.424787   11.007476    ( 0.0000,  0.0000,  0.0000)
  50 Li    14.806816    2.849573   12.014952    ( 0.0000,  0.0000,  0.0000)
  51 Li     9.871211    0.000000   13.022429    ( 0.0000,  0.0000,  0.0000)
  52 Li    12.334245    1.422422   14.025405    ( 0.0000,  0.0000,  0.0000)
  53 Li    14.803127    2.846486   15.064561    ( 0.0000,  0.0000,  0.0000)
  54 Li     9.863639    0.001586   15.852567    ( 0.0000,  0.0000,  0.0000)
  55 Li    12.340548    1.456610   16.957980    ( 0.0000,  0.0000,  0.0000)
  56 Li    12.339013    4.274360   10.000000    ( 0.0000,  0.0000,  0.0000)
  57 Li    14.806816    5.699146   11.007476    ( 0.0000,  0.0000,  0.0000)
  58 Li    17.274619    7.123933   12.014952    ( 0.0000,  0.0000,  0.0000)
  59 Li    12.339013    4.274360   13.022429    ( 0.0000,  0.0000,  0.0000)
  60 Li    14.801387    5.701546   14.029107    ( 0.0000,  0.0000,  0.0000)
  61 Li    17.272871    7.125813   15.064092    ( 0.0000,  0.0000,  0.0000)
  62 Li    12.349731    4.272845   15.825082    ( 0.0000,  0.0000,  0.0000)
  63 Li    14.785349    5.710384   16.978506    ( 0.0000,  0.0000,  0.0000)
  64 Li    14.806816    8.548719   10.000000    ( 0.0000,  0.0000,  0.0000)
  65 Li    17.274619    9.973506   11.007476    ( 0.0000,  0.0000,  0.0000)
  66 Li    19.742421   11.398292   12.014952    ( 0.0000,  0.0000,  0.0000)
  67 Li    14.806816    8.548719   13.022429    ( 0.0000,  0.0000,  0.0000)
  68 Li    17.272442    9.977014   14.025035    ( 0.0000,  0.0000,  0.0000)
  69 Li    19.734070   11.399911   15.096914    ( 0.0000,  0.0000,  0.0000)
  70 Li    14.811955    8.537613   15.825080    ( 0.0000,  0.0000,  0.0000)
  71 Li    17.245499    9.952553   16.956939    ( 0.0000,  0.0000,  0.0000)
  72 Li     3.710636    3.563045   18.615470    ( 0.0000,  0.0000,  0.0000)

Unit cell:
           periodic     x           y           z      points  spacing
  1. axis:    yes   14.806816    0.000000    0.000000    49     0.2617
  2. axis:    yes    7.403408   12.823079    0.000000    49     0.2617
  3. axis:    no     0.000000    0.000000   27.052334    90     0.3006

  Lengths:  14.806816  14.806816  27.052334
  Angles:   90.000000  90.000000  60.000000

Effective grid spacing dv^(1/3) = 0.2875

     iter     time        total  log10-change:
                         energy   eigst   dens
iter:   1 18:49:58  -125.474988   -4.85
iter:   2 18:50:04  -125.474635   -5.21  -2.78
iter:   3 18:50:11  -125.474513c  -5.41c -3.21
iter:   4 18:50:17  -125.474382c  -5.62c -3.36
iter:   5 18:50:23  -125.474351c  -5.49c -3.57
iter:   6 18:50:30  -125.474341c  -5.59c -3.38
iter:   7 18:50:36  -125.474337c  -6.05c -4.04c

Converged after 7 iterations.

Dipole moment: (-9.649322, -4.879875, 0.240306) |e|*Ang

Energy contributions relative to reference atoms: (reference = -14803.510878)

Kinetic:        +99.462500
Potential:      -89.241959
External:        +0.000000
XC:            -134.660661
Entropy (-ST):   -1.151914
Local:           -0.458261
SIC:             +0.000000
--------------------------
Free energy:   -126.050294
Extrapolated:  -125.474337

Showing all kpts
 Kpt  Band  Eigenvalues  Occupancy
  0    34     -1.83948    1.12659
  0    35     -1.78325    0.84735
  0    36     -1.77165    0.79126
  0    37     -1.74216    0.65541

  1    34     -1.95305    1.60126
  1    35     -1.94994    1.59125
  1    36     -1.86346    1.24227
  1    37     -1.75711    0.72287


Fermi level: -1.81402

No gap
No difference between direct/indirect transitions

Forces in eV/Ang:
  0 Li    0.00162    0.00035    0.05398
  1 Li   -0.00507   -0.00820    0.03306
  2 Li    0.00583   -0.00078   -0.07519
  3 Li   -0.01135   -0.00231   -0.12985
  4 Li   -0.01486   -0.02236    0.04300
  5 Li   -0.04289    0.02461    0.10258
  6 Li   -0.05127   -0.03979   -0.06294
  7 Li   -0.01840    0.05471    0.26738
  8 Li   -0.00617    0.00190    0.07420
  9 Li    0.00468    0.00857    0.03370
 10 Li    0.01068    0.00568   -0.08741
 11 Li   -0.01778    0.00900   -0.09620
 12 Li    0.01081    0.02343    0.04282
 13 Li   -0.00029   -0.00115   -0.04143
 14 Li   -0.02894    0.01747   -0.04424
 15 Li   -0.05550   -0.00751    0.26354
 16 Li   -0.00047   -0.00111    0.05417
 17 Li    0.00076   -0.00016    0.18411
 18 Li    0.00388   -0.01058   -0.08928
 19 Li   -0.00534    0.01277   -0.12950
 20 Li   -0.00135    0.00055    0.03830
 21 Li    0.00078    0.00056   -0.04132
 22 Li    0.00760    0.06406   -0.06395
 23 Li   -0.00921    0.00593   -0.02290
 24 Li   -0.00217   -0.00287    0.05623
 25 Li    0.00635   -0.00496    0.18125
 26 Li    0.00364   -0.00143   -0.05878
 27 Li    0.00906   -0.00297   -0.13538
 28 Li    0.01065   -0.00775    0.02301
 29 Li   -0.00555    0.00201   -0.00348
 30 Li    0.05657   -0.03096   -0.01461
 31 Li   -0.01256    0.00806    0.00440
 32 Li    0.00151    0.00137    0.05606
 33 Li   -0.00354   -0.00296    0.18122
 34 Li    0.00700    0.00142   -0.05559
 35 Li    0.00389   -0.00749   -0.13668
 36 Li   -0.00245   -0.00225    0.03687
 37 Li    0.00118   -0.00230   -0.00207
 38 Li    0.05159   -0.03539   -0.01407
 39 Li    0.01070   -0.00499   -0.01040
 40 Li   -0.00301    0.00324    0.03366
 41 Li    0.00015    0.00398    0.18306
 42 Li    0.00472    0.00068   -0.05684
 43 Li   -0.00044    0.00203   -0.21398
 44 Li    0.00119    0.00351    0.03541
 45 Li   -0.00823    0.00251   -0.00344
 46 Li    0.01630   -0.00986    0.00631
 47 Li    0.01068   -0.00566   -0.01079
 48 Li   -0.00098    0.00018    0.04166
 49 Li    0.00004    0.00189    0.18114
 50 Li   -0.00839    0.00486   -0.08103
 51 Li   -0.00017   -0.00185   -0.17801
 52 Li   -0.00204   -0.00125    0.03446
 53 Li    0.01140   -0.00096   -0.02353
 54 Li   -0.00922    0.00588   -0.00147
 55 Li   -0.01350   -0.00754   -0.00331
 56 Li    0.00239   -0.00237    0.03674
 57 Li   -0.00351    0.00358    0.18076
 58 Li   -0.00832    0.01136   -0.08036
 59 Li    0.00207   -0.00338   -0.19396
 60 Li   -0.00073    0.00172    0.02149
 61 Li    0.00603   -0.01122   -0.02412
 62 Li   -0.01999    0.02038   -0.00114
 63 Li    0.05676   -0.03240    0.02316
 64 Li    0.00083   -0.00390    0.04113
 65 Li   -0.00046   -0.00083    0.18414
 66 Li   -0.00216    0.00174   -0.05552
 67 Li    0.00350   -0.00006   -0.19463
 68 Li   -0.00037    0.00108    0.03170
 69 Li    0.00203   -0.00257    0.00073
 70 Li   -0.02749    0.00755   -0.00116
 71 Li   -0.00042    0.01491   -0.00290
 72 Li    0.07786   -0.04954   -0.31228

System changes: positions 

Initializing position-dependent things.

Density initialized from wave functions
                                                                       
                                                                       
                                                                       
                                                                       
                                                                       
                                                                       
                               Li          Li          Li              
                                                                       
                  Li    Li            Li          Li          Li       
                      Li           Lii         Lii                     
                             LiLi        LiLi        LiLi              
                Li        LiLi        LiLi        Li          Li       
              Li        Li         Lii         Lii                     
       Li          LiLii       LiLi        LiLi        Li              
                Li          Lii         Lii          Li                
              Li        LiLi        LiLi        Li                     
                     Lii         LiLi        LiLi                      
       Li          Li          Li                                      
              LiLi        LiLi        LiLi                             
                                                                       
       Li          Li          Li                                      
                                                                       
                                                                       
                                                                       
                                                                       

Atomic positions and initial magnetic moments

Positions:
   0 Li     0.000000    0.000000   10.000000    ( 0.0000,  0.0000,  0.0000)
   1 Li     2.467803    1.424787   11.007476    ( 0.0000,  0.0000,  0.0000)
   2 Li     4.935605    2.849573   12.014952    ( 0.0000,  0.0000,  0.0000)
   3 Li     0.000000    0.000000   13.022429    ( 0.0000,  0.0000,  0.0000)
   4 Li     2.461209    1.422505   13.803181    ( 0.0000,  0.0000,  0.0000)
   5 Li     4.925998    2.851676   15.040140    ( 0.0000,  0.0000,  0.0000)
   6 Li     0.001295   -0.003283   15.888351    ( 0.0000,  0.0000,  0.0000)
   7 Li     2.492681    1.414748   16.519638    ( 0.0000,  0.0000,  0.0000)
   8 Li     2.467803    4.274360   10.000000    ( 0.0000,  0.0000,  0.0000)
   9 Li     4.935605    5.699146   11.007476    ( 0.0000,  0.0000,  0.0000)
  10 Li     7.403408    7.123933   12.014952    ( 0.0000,  0.0000,  0.0000)
  11 Li     2.467803    4.274360   13.022429    ( 0.0000,  0.0000,  0.0000)
  12 Li     4.932373    5.703847   13.803913    ( 0.0000,  0.0000,  0.0000)
  13 Li     7.397121    7.119457   15.057167    ( 0.0000,  0.0000,  0.0000)
  14 Li     2.463084    4.275090   15.927304    ( 0.0000,  0.0000,  0.0000)
  15 Li     4.953643    5.679495   16.520428    ( 0.0000,  0.0000,  0.0000)
  16 Li     4.935605    8.548719   10.000000    ( 0.0000,  0.0000,  0.0000)
  17 Li     7.403408    9.973506   11.007476    ( 0.0000,  0.0000,  0.0000)
  18 Li     9.871211   11.398292   12.014952    ( 0.0000,  0.0000,  0.0000)
  19 Li     4.935605    8.548719   13.022429    ( 0.0000,  0.0000,  0.0000)
  20 Li     7.397275    9.975805   14.031460    ( 0.0000,  0.0000,  0.0000)
  21 Li     9.870161   11.401013   15.055750    ( 0.0000,  0.0000,  0.0000)
  22 Li     4.936179    8.546601   15.888571    ( 0.0000,  0.0000,  0.0000)
  23 Li     7.454449    9.941897   16.980529    ( 0.0000,  0.0000,  0.0000)
  24 Li     4.935605    0.000000   10.000000    ( 0.0000,  0.0000,  0.0000)
  25 Li     7.403408    1.424787   11.007476    ( 0.0000,  0.0000,  0.0000)
  26 Li     9.871211    2.849573   12.014952    ( 0.0000,  0.0000,  0.0000)
  27 Li     4.935605    0.000000   13.022429    ( 0.0000,  0.0000,  0.0000)
  28 Li     7.409227    1.419054   14.031229    ( 0.0000,  0.0000,  0.0000)
  29 Li     9.871745    2.848139   15.088187    ( 0.0000,  0.0000,  0.0000)
  30 Li     4.933812    0.012034   15.863544    ( 0.0000,  0.0000,  0.0000)
  31 Li     7.367053    1.443077   16.981747    ( 0.0000,  0.0000,  0.0000)
  32 Li     7.403408    4.274360   10.000000    ( 0.0000,  0.0000,  0.0000)
  33 Li     9.871211    5.699146   11.007476    ( 0.0000,  0.0000,  0.0000)
  34 Li    12.339013    7.123933   12.014952    ( 0.0000,  0.0000,  0.0000)
  35 Li     7.403408    4.274360   13.022429    ( 0.0000,  0.0000,  0.0000)
  36 Li     9.874877    5.696833   14.016819    ( 0.0000,  0.0000,  0.0000)
  37 Li    12.334800    7.123802   15.082474    ( 0.0000,  0.0000,  0.0000)
  38 Li     7.389621    4.266015   15.864463    ( 0.0000,  0.0000,  0.0000)
  39 Li     9.865502    5.729049   16.951611    ( 0.0000,  0.0000,  0.0000)
  40 Li     9.871211    8.548719   10.000000    ( 0.0000,  0.0000,  0.0000)
  41 Li    12.339013    9.973506   11.007476    ( 0.0000,  0.0000,  0.0000)
  42 Li    14.806816   11.398292   12.014952    ( 0.0000,  0.0000,  0.0000)
  43 Li     9.871211    8.548719   13.022429    ( 0.0000,  0.0000,  0.0000)
  44 Li    12.342520    9.970097   14.015821    ( 0.0000,  0.0000,  0.0000)
  45 Li    14.805314   11.392985   15.088590    ( 0.0000,  0.0000,  0.0000)
  46 Li     9.857813    8.555249   15.798567    ( 0.0000,  0.0000,  0.0000)
  47 Li    12.309363    9.960899   16.950310    ( 0.0000,  0.0000,  0.0000)
  48 Li     9.871211    0.000000   10.000000    ( 0.0000,  0.0000,  0.0000)
  49 Li    12.339013    1.424787   11.007476    ( 0.0000,  0.0000,  0.0000)
  50 Li    14.806816    2.849573   12.014952    ( 0.0000,  0.0000,  0.0000)
  51 Li     9.871211    0.000000   13.022429    ( 0.0000,  0.0000,  0.0000)
  52 Li    12.334203    1.422398   14.026097    ( 0.0000,  0.0000,  0.0000)
  53 Li    14.803358    2.846468   15.064083    ( 0.0000,  0.0000,  0.0000)
  54 Li     9.863452    0.001705   15.852535    ( 0.0000,  0.0000,  0.0000)
  55 Li    12.340276    1.456457   16.957913    ( 0.0000,  0.0000,  0.0000)
  56 Li    12.339013    4.274360   10.000000    ( 0.0000,  0.0000,  0.0000)
  57 Li    14.806816    5.699146   11.007476    ( 0.0000,  0.0000,  0.0000)
  58 Li    17.274619    7.123933   12.014952    ( 0.0000,  0.0000,  0.0000)
  59 Li    12.339013    4.274360   13.022429    ( 0.0000,  0.0000,  0.0000)
  60 Li    14.801372    5.701580   14.029537    ( 0.0000,  0.0000,  0.0000)
  61 Li    17.272992    7.125586   15.063600    ( 0.0000,  0.0000,  0.0000)
  62 Li    12.349326    4.273257   15.825055    ( 0.0000,  0.0000,  0.0000)
  63 Li    14.786490    5.709735   16.978970    ( 0.0000,  0.0000,  0.0000)
  64 Li    14.806816    8.548719   10.000000    ( 0.0000,  0.0000,  0.0000)
  65 Li    17.274619    9.973506   11.007476    ( 0.0000,  0.0000,  0.0000)
  66 Li    19.742421   11.398292   12.014952    ( 0.0000,  0.0000,  0.0000)
  67 Li    14.806816    8.548719   13.022429    ( 0.0000,  0.0000,  0.0000)
  68 Li    17.272434    9.977036   14.025673    ( 0.0000,  0.0000,  0.0000)
  69 Li    19.734115   11.399857   15.096925    ( 0.0000,  0.0000,  0.0000)
  70 Li    14.811400    8.537766   15.825050    ( 0.0000,  0.0000,  0.0000)
  71 Li    17.245490    9.952852   16.956882    ( 0.0000,  0.0000,  0.0000)
  72 Li     3.712224    3.562121   18.609204    ( 0.0000,  0.0000,  0.0000)

Unit cell:
           periodic     x           y           z      points  spacing
  1. axis:    yes   14.806816    0.000000    0.000000    49     0.2617
  2. axis:    yes    7.403408   12.823079    0.000000    49     0.2617
  3. axis:    no     0.000000    0.000000   27.052334    90     0.3006

  Lengths:  14.806816  14.806816  27.052334
  Angles:   90.000000  90.000000  60.000000

Effective grid spacing dv^(1/3) = 0.2875

     iter     time        total  log10-change:
                         energy   eigst   dens
iter:   1 18:55:07  -125.481421   -4.86
iter:   2 18:55:14  -125.481105   -5.69c -2.86
iter:   3 18:55:20  -125.480757c  -5.41c -2.98
iter:   4 18:55:27  -125.480682c  -5.73c -3.23
iter:   5 18:55:33  -125.480608c  -5.70c -3.41
iter:   6 18:55:40  -125.480718c  -5.74c -3.45
iter:   7 18:55:46  -125.480684c  -6.18c -3.65
iter:   8 18:55:52  -125.480638c  -5.96c -3.87
iter:   9 18:55:59  -125.480638c  -6.01c -4.04c

Converged after 9 iterations.

Dipole moment: (-9.598326, -4.855751, 0.239702) |e|*Ang

Energy contributions relative to reference atoms: (reference = -14803.510878)

Kinetic:        +99.457293
Potential:      -89.241076
External:        +0.000000
XC:            -134.662228
Entropy (-ST):   -1.152261
Local:           -0.458496
SIC:             +0.000000
--------------------------
Free energy:   -126.056768
Extrapolated:  -125.480638

Showing all kpts
 Kpt  Band  Eigenvalues  Occupancy
  0    34     -1.83981    1.12677
  0    35     -1.78337    0.84646
  0    36     -1.77194    0.79122
  0    37     -1.74244    0.65533

  1    34     -1.95330    1.60112
  1    35     -1.95017    1.59103
  1    36     -1.86370    1.24199
  1    37     -1.75731    0.72244


Fermi level: -1.81432

No gap
No difference between direct/indirect transitions

Forces in eV/Ang:
  0 Li    0.00166    0.00018    0.05365
  1 Li   -0.00534   -0.00832    0.03342
  2 Li    0.00589   -0.00075   -0.07452
  3 Li   -0.01184   -0.00283   -0.13129
  4 Li   -0.01438   -0.02170    0.04578
  5 Li   -0.04230    0.02422    0.10260
  6 Li   -0.04928   -0.03842   -0.06197
  7 Li   -0.01908    0.05147    0.26072
  8 Li   -0.00624    0.00196    0.07373
  9 Li    0.00470    0.00872    0.03417
 10 Li    0.01085    0.00590   -0.08787
 11 Li   -0.01795    0.00913   -0.09721
 12 Li    0.01054    0.02261    0.04554
 13 Li   -0.00057   -0.00156   -0.04013
 14 Li   -0.02859    0.01736   -0.04449
 15 Li   -0.05313   -0.00529    0.25691
 16 Li   -0.00024   -0.00101    0.05389
 17 Li    0.00085   -0.00021    0.18433
 18 Li    0.00373   -0.01088   -0.08975
 19 Li   -0.00513    0.01337   -0.13101
 20 Li   -0.00135    0.00050    0.03638
 21 Li    0.00095    0.00094   -0.03998
 22 Li    0.00746    0.06171   -0.06294
 23 Li   -0.00894    0.00576   -0.02224
 24 Li   -0.00212   -0.00301    0.05592
 25 Li    0.00658   -0.00498    0.18114
 26 Li    0.00358   -0.00139   -0.05890
 27 Li    0.00942   -0.00325   -0.13605
 28 Li    0.01001   -0.00730    0.02254
 29 Li   -0.00509    0.00167   -0.00370
 30 Li    0.05385   -0.02925   -0.01380
 31 Li   -0.01270    0.00800    0.00493
 32 Li    0.00162    0.00146    0.05580
 33 Li   -0.00344   -0.00282    0.18142
 34 Li    0.00680    0.00155   -0.05565
 35 Li    0.00430   -0.00762   -0.13740
 36 Li   -0.00232   -0.00219    0.03535
 37 Li    0.00101   -0.00217   -0.00244
 38 Li    0.04893   -0.03374   -0.01331
 39 Li    0.01042   -0.00497   -0.00975
 40 Li   -0.00310    0.00330    0.03370
 41 Li    0.00008    0.00383    0.18328
 42 Li    0.00470    0.00072   -0.05692
 43 Li   -0.00043    0.00201   -0.21408
 44 Li    0.00111    0.00328    0.03401
 45 Li   -0.00753    0.00237   -0.00363
 46 Li    0.01590   -0.00963    0.00589
 47 Li    0.01055   -0.00540   -0.01010
 48 Li   -0.00101    0.00025    0.04165
 49 Li    0.00004    0.00186    0.18131
 50 Li   -0.00834    0.00492   -0.08145
 51 Li   -0.00017   -0.00193   -0.17814
 52 Li   -0.00217   -0.00131    0.03317
 53 Li    0.01109   -0.00108   -0.02269
 54 Li   -0.00948    0.00590   -0.00155
 55 Li   -0.01337   -0.00734   -0.00294
 56 Li    0.00236   -0.00224    0.03661
 57 Li   -0.00356    0.00348    0.18076
 58 Li   -0.00825    0.01129   -0.08070
 59 Li    0.00190   -0.00327   -0.19418
 60 Li   -0.00075    0.00165    0.02083
 61 Li    0.00600   -0.01087   -0.02327
 62 Li   -0.01912    0.01991   -0.00101
 63 Li    0.05653   -0.03219    0.02301
 64 Li    0.00065   -0.00394    0.04105
 65 Li   -0.00039   -0.00076    0.18426
 66 Li   -0.00191    0.00168   -0.05537
 67 Li    0.00327   -0.00000   -0.19487
 68 Li   -0.00033    0.00123    0.03053
 69 Li    0.00117   -0.00207   -0.00003
 70 Li   -0.02668    0.00691   -0.00098
 71 Li   -0.00051    0.01470   -0.00255
 72 Li    0.07869   -0.05005   -0.30728

System changes: positions 

Initializing position-dependent things.

Density initialized from wave functions
                                                                       
                                                                       
                                                                       
                                                                       
                                                                       
                                                                       
                               Li          Li          Li              
                                                                       
                  Li    Li            Li          Li          Li       
                      Li           Lii         Lii                     
                             LiLi        LiLi        LiLi              
                Li        LiLi        LiLi        Li          Li       
              Li        Li         Lii         Lii                     
       Li          LiLii       LiLi        LiLi        Li              
                Li          Lii         Lii          Li                
              Li        LiLi        LiLi        Li                     
                     Lii         LiLi        LiLi                      
       Li          Li          Li                                      
              LiLi        LiLi        LiLi                             
                                                                       
       Li          Li          Li                                      
                                                                       
                                                                       
                                                                       
                                                                       

Atomic positions and initial magnetic moments

Positions:
   0 Li     0.000000    0.000000   10.000000    ( 0.0000,  0.0000,  0.0000)
   1 Li     2.467803    1.424787   11.007476    ( 0.0000,  0.0000,  0.0000)
   2 Li     4.935605    2.849573   12.014952    ( 0.0000,  0.0000,  0.0000)
   3 Li     0.000000    0.000000   13.022429    ( 0.0000,  0.0000,  0.0000)
   4 Li     2.460768    1.421838   13.804508    ( 0.0000,  0.0000,  0.0000)
   5 Li     4.924716    2.852412   15.043217    ( 0.0000,  0.0000,  0.0000)
   6 Li    -0.000231   -0.004470   15.886461    ( 0.0000,  0.0000,  0.0000)
   7 Li     2.492127    1.416369   16.527650    ( 0.0000,  0.0000,  0.0000)
   8 Li     2.467803    4.274360   10.000000    ( 0.0000,  0.0000,  0.0000)
   9 Li     4.935605    5.699146   11.007476    ( 0.0000,  0.0000,  0.0000)
  10 Li     7.403408    7.123933   12.014952    ( 0.0000,  0.0000,  0.0000)
  11 Li     2.467803    4.274360   13.022429    ( 0.0000,  0.0000,  0.0000)
  12 Li     4.932697    5.704543   13.805207    ( 0.0000,  0.0000,  0.0000)
  13 Li     7.397110    7.119419   15.055925    ( 0.0000,  0.0000,  0.0000)
  14 Li     2.462217    4.275615   15.925971    ( 0.0000,  0.0000,  0.0000)
  15 Li     4.951992    5.679286   16.528270    ( 0.0000,  0.0000,  0.0000)
  16 Li     4.935605    8.548719   10.000000    ( 0.0000,  0.0000,  0.0000)
  17 Li     7.403408    9.973506   11.007476    ( 0.0000,  0.0000,  0.0000)
  18 Li     9.871211   11.398292   12.014952    ( 0.0000,  0.0000,  0.0000)
  19 Li     4.935605    8.548719   13.022429    ( 0.0000,  0.0000,  0.0000)
  20 Li     7.397236    9.975820   14.032590    ( 0.0000,  0.0000,  0.0000)
  21 Li     9.870187   11.401033   15.054516    ( 0.0000,  0.0000,  0.0000)
  22 Li     4.936407    8.548509   15.886655    ( 0.0000,  0.0000,  0.0000)
  23 Li     7.454175    9.942073   16.979847    ( 0.0000,  0.0000,  0.0000)
  24 Li     4.935605    0.000000   10.000000    ( 0.0000,  0.0000,  0.0000)
  25 Li     7.403408    1.424787   11.007476    ( 0.0000,  0.0000,  0.0000)
  26 Li     9.871211    2.849573   12.014952    ( 0.0000,  0.0000,  0.0000)
  27 Li     4.935605    0.000000   13.022429    ( 0.0000,  0.0000,  0.0000)
  28 Li     7.409540    1.418826   14.031915    ( 0.0000,  0.0000,  0.0000)
  29 Li     9.871580    2.848196   15.088077    ( 0.0000,  0.0000,  0.0000)
  30 Li     4.935493    0.011118   15.863106    ( 0.0000,  0.0000,  0.0000)
  31 Li     7.366671    1.443317   16.981883    ( 0.0000,  0.0000,  0.0000)
  32 Li     7.403408    4.274360   10.000000    ( 0.0000,  0.0000,  0.0000)
  33 Li     9.871211    5.699146   11.007476    ( 0.0000,  0.0000,  0.0000)
  34 Li    12.339013    7.123933   12.014952    ( 0.0000,  0.0000,  0.0000)
  35 Li     7.403408    4.274360   13.022429    ( 0.0000,  0.0000,  0.0000)
  36 Li     9.874804    5.696768   14.017910    ( 0.0000,  0.0000,  0.0000)
  37 Li    12.334834    7.123735   15.082403    ( 0.0000,  0.0000,  0.0000)
  38 Li     7.391152    4.264963   15.864048    ( 0.0000,  0.0000,  0.0000)
  39 Li     9.865819    5.728901   16.951305    ( 0.0000,  0.0000,  0.0000)
  40 Li     9.871211    8.548719   10.000000    ( 0.0000,  0.0000,  0.0000)
  41 Li    12.339013    9.973506   11.007476    ( 0.0000,  0.0000,  0.0000)
  42 Li    14.806816   11.398292   12.014952    ( 0.0000,  0.0000,  0.0000)
  43 Li     9.871211    8.548719   13.022429    ( 0.0000,  0.0000,  0.0000)
  44 Li    12.342553    9.970199   14.016870    ( 0.0000,  0.0000,  0.0000)
  45 Li    14.805071   11.393062   15.088482    ( 0.0000,  0.0000,  0.0000)
  46 Li     9.858300    8.554952   15.798748    ( 0.0000,  0.0000,  0.0000)
  47 Li    12.309685    9.960734   16.949990    ( 0.0000,  0.0000,  0.0000)
  48 Li     9.871211    0.000000   10.000000    ( 0.0000,  0.0000,  0.0000)
  49 Li    12.339013    1.424787   11.007476    ( 0.0000,  0.0000,  0.0000)
  50 Li    14.806816    2.849573   12.014952    ( 0.0000,  0.0000,  0.0000)
  51 Li     9.871211    0.000000   13.022429    ( 0.0000,  0.0000,  0.0000)
  52 Li    12.334140    1.422360   14.027119    ( 0.0000,  0.0000,  0.0000)
  53 Li    14.803699    2.846439   15.063380    ( 0.0000,  0.0000,  0.0000)
  54 Li     9.863170    0.001883   15.852487    ( 0.0000,  0.0000,  0.0000)
  55 Li    12.339870    1.456231   16.957817    ( 0.0000,  0.0000,  0.0000)
  56 Li    12.339013    4.274360   10.000000    ( 0.0000,  0.0000,  0.0000)
  57 Li    14.806816    5.699146   11.007476    ( 0.0000,  0.0000,  0.0000)
  58 Li    17.274619    7.123933   12.014952    ( 0.0000,  0.0000,  0.0000)
  59 Li    12.339013    4.274360   13.022429    ( 0.0000,  0.0000,  0.0000)
  60 Li    14.801349    5.701631   14.030175    ( 0.0000,  0.0000,  0.0000)
  61 Li    17.273174    7.125250   15.062877    ( 0.0000,  0.0000,  0.0000)
  62 Li    12.348730    4.273868   15.825019    ( 0.0000,  0.0000,  0.0000)
  63 Li    14.788200    5.708765   16.979665    ( 0.0000,  0.0000,  0.0000)
  64 Li    14.806816    8.548719   10.000000    ( 0.0000,  0.0000,  0.0000)
  65 Li    17.274619    9.973506   11.007476    ( 0.0000,  0.0000,  0.0000)
  66 Li    19.742421   11.398292   12.014952    ( 0.0000,  0.0000,  0.0000)
  67 Li    14.806816    8.548719   13.022429    ( 0.0000,  0.0000,  0.0000)
  68 Li    17.272423    9.977070   14.026614    ( 0.0000,  0.0000,  0.0000)
  69 Li    19.734170   11.399785   15.096935    ( 0.0000,  0.0000,  0.0000)
  70 Li    14.810579    8.537986   15.825011    ( 0.0000,  0.0000,  0.0000)
  71 Li    17.245474    9.953299   16.956800    ( 0.0000,  0.0000,  0.0000)
  72 Li     3.714640    3.560751   18.599861    ( 0.0000,  0.0000,  0.0000)

Unit cell:
           periodic     x           y           z      points  spacing
  1. axis:    yes   14.806816    0.000000    0.000000    49     0.2617
  2. axis:    yes    7.403408   12.823079    0.000000    49     0.2617
  3. axis:    no     0.000000    0.000000   27.052334    90     0.3006

  Lengths:  14.806816  14.806816  27.052334
  Angles:   90.000000  90.000000  60.000000

Effective grid spacing dv^(1/3) = 0.2875

     iter     time        total  log10-change:
                         energy   eigst   dens
iter:   1 19:00:03  -125.492390   -4.16
iter:   2 19:00:08  -125.490435   -4.78  -2.37
iter:   3 19:00:13  -125.490172c  -5.03  -2.85
iter:   4 19:00:18  -125.489843c  -5.39c -2.96
iter:   5 19:00:23  -125.489874c  -5.07  -3.13
iter:   6 19:00:28  -125.489827c  -5.48c -2.99
iter:   7 19:00:33  -125.489838c  -5.91c -3.65
iter:   8 19:00:38  -125.489797c  -5.79c -3.48
iter:   9 19:00:43  -125.489796c  -6.27c -3.79
iter:  10 19:00:48  -125.489772c  -6.31c -3.96
iter:  11 19:00:52  -125.489751c  -6.29c -4.14c

Converged after 11 iterations.

Dipole moment: (-9.522964, -4.820223, 0.237384) |e|*Ang

Energy contributions relative to reference atoms: (reference = -14803.510878)

Kinetic:        +99.452606
Potential:      -89.242006
External:        +0.000000
XC:            -134.665617
Entropy (-ST):   -1.152724
Local:           -0.458372
SIC:             +0.000000
--------------------------
Free energy:   -126.066113
Extrapolated:  -125.489751

Showing all kpts
 Kpt  Band  Eigenvalues  Occupancy
  0    34     -1.84019    1.12790
  0    35     -1.78299    0.84387
  0    36     -1.77204    0.79096
  0    37     -1.74267    0.65568

  1    34     -1.95323    1.60042
  1    35     -1.95007    1.59021
  1    36     -1.86390    1.24222
  1    37     -1.75735    0.72193


Fermi level: -1.81447

No gap
No difference between direct/indirect transitions

Forces in eV/Ang:
  0 Li    0.00181    0.00030    0.05354
  1 Li   -0.00527   -0.00810    0.03483
  2 Li    0.00573   -0.00060   -0.07253
  3 Li   -0.01195   -0.00295   -0.13282
  4 Li   -0.01331   -0.02078    0.04986
  5 Li   -0.04137    0.02360    0.10069
  6 Li   -0.04608   -0.03628   -0.06056
  7 Li   -0.02074    0.04564    0.24964
  8 Li   -0.00615    0.00187    0.07362
  9 Li    0.00460    0.00848    0.03558
 10 Li    0.01063    0.00570   -0.08800
 11 Li   -0.01749    0.00886   -0.09844
 12 Li    0.01035    0.02117    0.04954
 13 Li   -0.00154   -0.00248   -0.03787
 14 Li   -0.02848    0.01731   -0.04625
 15 Li   -0.04904   -0.00092    0.24589
 16 Li   -0.00020   -0.00113    0.05383
 17 Li    0.00086   -0.00020    0.18491
 18 Li    0.00372   -0.01065   -0.08987
 19 Li   -0.00508    0.01352   -0.13259
 20 Li   -0.00115    0.00040    0.03410
 21 Li    0.00122    0.00220   -0.03772
 22 Li    0.00728    0.05791   -0.06152
 23 Li   -0.00839    0.00540   -0.02121
 24 Li   -0.00208   -0.00285    0.05596
 25 Li    0.00645   -0.00483    0.18147
 26 Li    0.00339   -0.00135   -0.05886
 27 Li    0.00940   -0.00284   -0.13649
 28 Li    0.00847   -0.00633    0.02142
 29 Li   -0.00419    0.00121   -0.00399
 30 Li    0.04937   -0.02708   -0.01354
 31 Li   -0.01258    0.00774    0.00565
 32 Li    0.00146    0.00136    0.05589
 33 Li   -0.00349   -0.00290    0.18192
 34 Li    0.00674    0.00160   -0.05540
 35 Li    0.00393   -0.00780   -0.13788
 36 Li   -0.00233   -0.00217    0.03344
 37 Li    0.00106   -0.00210   -0.00256
 38 Li    0.04504   -0.03079   -0.01313
 39 Li    0.00987   -0.00464   -0.00877
 40 Li   -0.00309    0.00335    0.03379
 41 Li    0.00005    0.00387    0.18385
 42 Li    0.00467    0.00090   -0.05683
 43 Li   -0.00040    0.00204   -0.21378
 44 Li    0.00099    0.00322    0.03212
 45 Li   -0.00652    0.00188   -0.00388
 46 Li    0.01508   -0.00913    0.00565
 47 Li    0.01001   -0.00514   -0.00906
 48 Li   -0.00111    0.00037    0.04174
 49 Li    0.00010    0.00199    0.18187
 50 Li   -0.00799    0.00485   -0.08152
 51 Li   -0.00021   -0.00203   -0.17822
 52 Li   -0.00203   -0.00107    0.03149
 53 Li    0.01047   -0.00166   -0.02174
 54 Li   -0.00954    0.00580   -0.00164
 55 Li   -0.01278   -0.00699   -0.00255
 56 Li    0.00240   -0.00228    0.03664
 57 Li   -0.00338    0.00326    0.18114
 58 Li   -0.00794    0.01100   -0.08070
 59 Li    0.00194   -0.00329   -0.19411
 60 Li   -0.00069    0.00151    0.02002
 61 Li    0.00619   -0.01004   -0.02226
 62 Li   -0.01756    0.01909   -0.00089
 63 Li    0.05564   -0.03166    0.02249
 64 Li    0.00058   -0.00397    0.04113
 65 Li   -0.00038   -0.00078    0.18489
 66 Li   -0.00184    0.00160   -0.05516
 67 Li    0.00323    0.00000   -0.19483
 68 Li   -0.00042    0.00109    0.02892
 69 Li   -0.00012   -0.00126   -0.00063
 70 Li   -0.02524    0.00588   -0.00083
 71 Li   -0.00056    0.01403   -0.00214
 72 Li    0.08007   -0.05094   -0.29878

System changes: positions 

Initializing position-dependent things.

Density initialized from wave functions
                                                                       
                                                                       
                                                                       
                                                                       
                                                                       
                                                                       
                               Li          Li          Li              
                                                                       
                  Li    Li            Li          Li          Li       
                      Li           Lii         Lii                     
                             LiLi        LiLi        LiLi              
                Li        LiLi        LiLi        Li          Li       
              Li        Li         Lii         Lii                     
       Li          LiLii       LiLi        LiLi        Li              
                Li          Lii         Lii          Li                
              Li        LiLi        LiLi        Li                     
                     Lii         LiLi        LiLi                      
       Li          Li          Li                                      
              LiLi        LiLi        LiLi                             
                                                                       
       Li          Li          Li                                      
                                                                       
                                                                       
                                                                       
                                                                       

Atomic positions and initial magnetic moments

Positions:
   0 Li     0.000000    0.000000   10.000000    ( 0.0000,  0.0000,  0.0000)
   1 Li     2.467803    1.424787   11.007476    ( 0.0000,  0.0000,  0.0000)
   2 Li     4.935605    2.849573   12.014952    ( 0.0000,  0.0000,  0.0000)
   3 Li     0.000000    0.000000   13.022429    ( 0.0000,  0.0000,  0.0000)
   4 Li     2.460196    1.420964   13.806370    ( 0.0000,  0.0000,  0.0000)
   5 Li     4.923018    2.853386   15.047311    ( 0.0000,  0.0000,  0.0000)
   6 Li    -0.002209   -0.006015   15.883962    ( 0.0000,  0.0000,  0.0000)
   7 Li     2.491358    1.418429   16.538171    ( 0.0000,  0.0000,  0.0000)
   8 Li     2.467803    4.274360   10.000000    ( 0.0000,  0.0000,  0.0000)
   9 Li     4.935605    5.699146   11.007476    ( 0.0000,  0.0000,  0.0000)
  10 Li     7.403408    7.123933   12.014952    ( 0.0000,  0.0000,  0.0000)
  11 Li     2.467803    4.274360   13.022429    ( 0.0000,  0.0000,  0.0000)
  12 Li     4.933126    5.705448   13.807012    ( 0.0000,  0.0000,  0.0000)
  13 Li     7.397080    7.119351   15.054308    ( 0.0000,  0.0000,  0.0000)
  14 Li     2.461062    4.276316   15.924164    ( 0.0000,  0.0000,  0.0000)
  15 Li     4.949859    5.679087   16.538539    ( 0.0000,  0.0000,  0.0000)
  16 Li     4.935605    8.548719   10.000000    ( 0.0000,  0.0000,  0.0000)
  17 Li     7.403408    9.973506   11.007476    ( 0.0000,  0.0000,  0.0000)
  18 Li     9.871211   11.398292   12.014952    ( 0.0000,  0.0000,  0.0000)
  19 Li     4.935605    8.548719   13.022429    ( 0.0000,  0.0000,  0.0000)
  20 Li     7.397186    9.975839   14.034056    ( 0.0000,  0.0000,  0.0000)
  21 Li     9.870227   11.401079   15.052909    ( 0.0000,  0.0000,  0.0000)
  22 Li     4.936708    8.550988   15.884124    ( 0.0000,  0.0000,  0.0000)
  23 Li     7.453818    9.942302   16.978953    ( 0.0000,  0.0000,  0.0000)
  24 Li     4.935605    0.000000   10.000000    ( 0.0000,  0.0000,  0.0000)
  25 Li     7.403408    1.424787   11.007476    ( 0.0000,  0.0000,  0.0000)
  26 Li     9.871211    2.849573   12.014952    ( 0.0000,  0.0000,  0.0000)
  27 Li     4.935605    0.000000   13.022429    ( 0.0000,  0.0000,  0.0000)
  28 Li     7.409934    1.418537   14.032815    ( 0.0000,  0.0000,  0.0000)
  29 Li     9.871377    2.848263   15.087926    ( 0.0000,  0.0000,  0.0000)
  30 Li     4.937657    0.009938   15.862529    ( 0.0000,  0.0000,  0.0000)
  31 Li     7.366160    1.443633   16.982079    ( 0.0000,  0.0000,  0.0000)
  32 Li     7.403408    4.274360   10.000000    ( 0.0000,  0.0000,  0.0000)
  33 Li     9.871211    5.699146   11.007476    ( 0.0000,  0.0000,  0.0000)
  34 Li    12.339013    7.123933   12.014952    ( 0.0000,  0.0000,  0.0000)
  35 Li     7.403408    4.274360   13.022429    ( 0.0000,  0.0000,  0.0000)
  36 Li     9.874708    5.696680   14.019334    ( 0.0000,  0.0000,  0.0000)
  37 Li    12.334878    7.123647   15.082305    ( 0.0000,  0.0000,  0.0000)
  38 Li     7.393123    4.263611   15.863505    ( 0.0000,  0.0000,  0.0000)
  39 Li     9.866235    5.728708   16.950917    ( 0.0000,  0.0000,  0.0000)
  40 Li     9.871211    8.548719   10.000000    ( 0.0000,  0.0000,  0.0000)
  41 Li    12.339013    9.973506   11.007476    ( 0.0000,  0.0000,  0.0000)
  42 Li    14.806816   11.398292   12.014952    ( 0.0000,  0.0000,  0.0000)
  43 Li     9.871211    8.548719   13.022429    ( 0.0000,  0.0000,  0.0000)
  44 Li    12.342596    9.970334   14.018235    ( 0.0000,  0.0000,  0.0000)
  45 Li    14.804767   11.393157   15.088332    ( 0.0000,  0.0000,  0.0000)
  46 Li     9.858936    8.554564   15.798985    ( 0.0000,  0.0000,  0.0000)
  47 Li    12.310108    9.960518   16.949582    ( 0.0000,  0.0000,  0.0000)
  48 Li     9.871211    0.000000   10.000000    ( 0.0000,  0.0000,  0.0000)
  49 Li    12.339013    1.424787   11.007476    ( 0.0000,  0.0000,  0.0000)
  50 Li    14.806816    2.849573   12.014952    ( 0.0000,  0.0000,  0.0000)
  51 Li     9.871211    0.000000   13.022429    ( 0.0000,  0.0000,  0.0000)
  52 Li    12.334056    1.422312   14.028454    ( 0.0000,  0.0000,  0.0000)
  53 Li    14.804144    2.846392   15.062463    ( 0.0000,  0.0000,  0.0000)
  54 Li     9.862791    0.002118   15.852422    ( 0.0000,  0.0000,  0.0000)
  55 Li    12.339336    1.455933   16.957695    ( 0.0000,  0.0000,  0.0000)
  56 Li    12.339013    4.274360   10.000000    ( 0.0000,  0.0000,  0.0000)
  57 Li    14.806816    5.699146   11.007476    ( 0.0000,  0.0000,  0.0000)
  58 Li    17.274619    7.123933   12.014952    ( 0.0000,  0.0000,  0.0000)
  59 Li    12.339013    4.274360   13.022429    ( 0.0000,  0.0000,  0.0000)
  60 Li    14.801319    5.701696   14.031013    ( 0.0000,  0.0000,  0.0000)
  61 Li    17.273419    7.124815   15.061931    ( 0.0000,  0.0000,  0.0000)
  62 Li    12.347963    4.274671   15.824976    ( 0.0000,  0.0000,  0.0000)
  63 Li    14.790472    5.707477   16.980587    ( 0.0000,  0.0000,  0.0000)
  64 Li    14.806816    8.548719   10.000000    ( 0.0000,  0.0000,  0.0000)
  65 Li    17.274619    9.973506   11.007476    ( 0.0000,  0.0000,  0.0000)
  66 Li    19.742421   11.398292   12.014952    ( 0.0000,  0.0000,  0.0000)
  67 Li    14.806816    8.548719   13.022429    ( 0.0000,  0.0000,  0.0000)
  68 Li    17.272408    9.977116   14.027843    ( 0.0000,  0.0000,  0.0000)
  69 Li    19.734218   11.399703   15.096935    ( 0.0000,  0.0000,  0.0000)
  70 Li    14.809509    8.538262   15.824963    ( 0.0000,  0.0000,  0.0000)
  71 Li    17.245452    9.953884   16.956699    ( 0.0000,  0.0000,  0.0000)
  72 Li     3.717930    3.558957   18.587522    ( 0.0000,  0.0000,  0.0000)

Unit cell:
           periodic     x           y           z      points  spacing
  1. axis:    yes   14.806816    0.000000    0.000000    49     0.2617
  2. axis:    yes    7.403408   12.823079    0.000000    49     0.2617
  3. axis:    no     0.000000    0.000000   27.052334    90     0.3006

  Lengths:  14.806816  14.806816  27.052334
  Angles:   90.000000  90.000000  60.000000

Effective grid spacing dv^(1/3) = 0.2875

     iter     time        total  log10-change:
                         energy   eigst   dens
iter:   1 19:05:03  -125.507878   -3.76
iter:   2 19:05:08  -125.502695   -4.40  -2.16
iter:   3 19:05:13  -125.502122c  -4.65  -2.64
iter:   4 19:05:18  -125.501547c  -5.18  -2.77
iter:   5 19:05:23  -125.501604c  -4.89  -2.98
iter:   6 19:05:28  -125.501526c  -5.38c -2.86
iter:   7 19:05:32  -125.501559c  -5.89c -3.45
iter:   8 19:05:37  -125.501506c  -6.00c -3.30
iter:   9 19:05:42  -125.501515c  -6.59c -3.66
iter:  10 19:05:47  -125.501485c  -6.71c -3.81
iter:  11 19:05:52  -125.501468c  -6.74c -4.01c

Converged after 11 iterations.

Dipole moment: (-9.425167, -4.774723, 0.233915) |e|*Ang

Energy contributions relative to reference atoms: (reference = -14803.510878)

Kinetic:        +99.448412
Potential:      -89.244517
External:        +0.000000
XC:            -134.670391
Entropy (-ST):   -1.152757
Local:           -0.458594
SIC:             +0.000000
--------------------------
Free energy:   -126.077847
Extrapolated:  -125.501468

Showing all kpts
 Kpt  Band  Eigenvalues  Occupancy
  0    34     -1.84072    1.12902
  0    35     -1.78280    0.84149
  0    36     -1.77232    0.79084
  0    37     -1.74308    0.65612

  1    34     -1.95338    1.59993
  1    35     -1.95016    1.58952
  1    36     -1.86421    1.24229
  1    37     -1.75752    0.72130


Fermi level: -1.81477

No gap
No difference between direct/indirect transitions

Forces in eV/Ang:
  0 Li    0.00180    0.00024    0.05326
  1 Li   -0.00540   -0.00807    0.03663
  2 Li    0.00564   -0.00047   -0.07045
  3 Li   -0.01248   -0.00338   -0.13502
  4 Li   -0.01225   -0.01951    0.05485
  5 Li   -0.04020    0.02285    0.10001
  6 Li   -0.04224   -0.03356   -0.05836
  7 Li   -0.02277    0.03854    0.23597
  8 Li   -0.00620    0.00186    0.07320
  9 Li    0.00459    0.00851    0.03730
 10 Li    0.01051    0.00565   -0.08835
 11 Li   -0.01745    0.00881   -0.10027
 12 Li    0.00986    0.01958    0.05445
 13 Li   -0.00236   -0.00330   -0.03475
 14 Li   -0.02797    0.01700   -0.04742
 15 Li   -0.04404    0.00442    0.23234
 16 Li   -0.00012   -0.00108    0.05358
 17 Li    0.00091   -0.00019    0.18550
 18 Li    0.00362   -0.01059   -0.09022
 19 Li   -0.00497    0.01418   -0.13484
 20 Li   -0.00113    0.00040    0.03116
 21 Li    0.00146    0.00331   -0.03463
 22 Li    0.00694    0.05325   -0.05932
 23 Li   -0.00793    0.00509   -0.01989
 24 Li   -0.00207   -0.00292    0.05577
 25 Li    0.00658   -0.00484    0.18174
 26 Li    0.00326   -0.00135   -0.05869
 27 Li    0.00972   -0.00295   -0.13738
 28 Li    0.00693   -0.00534    0.02040
 29 Li   -0.00301    0.00069   -0.00410
 30 Li    0.04376   -0.02393   -0.01227
 31 Li   -0.01259    0.00758    0.00666
 32 Li    0.00150    0.00139    0.05577
 33 Li   -0.00349   -0.00286    0.18248
 34 Li    0.00663    0.00166   -0.05520
 35 Li    0.00420   -0.00803   -0.13880
 36 Li   -0.00219   -0.00224    0.03107
 37 Li    0.00104   -0.00198   -0.00260
 38 Li    0.03985   -0.02734   -0.01202
 39 Li    0.00933   -0.00445   -0.00751
 40 Li   -0.00306    0.00337    0.03378
 41 Li   -0.00007    0.00377    0.18440
 42 Li    0.00470    0.00106   -0.05666
 43 Li   -0.00039    0.00208   -0.21344
 44 Li    0.00102    0.00309    0.02980
 45 Li   -0.00521    0.00118   -0.00402
 46 Li    0.01417   -0.00857    0.00545
 47 Li    0.00955   -0.00483   -0.00773
 48 Li   -0.00110    0.00037    0.04174
 49 Li    0.00011    0.00205    0.18246
 50 Li   -0.00783    0.00475   -0.08160
 51 Li   -0.00020   -0.00212   -0.17816
 52 Li   -0.00195   -0.00090    0.02935
 53 Li    0.00960   -0.00218   -0.01994
 54 Li   -0.00957    0.00570   -0.00164
 55 Li   -0.01214   -0.00660   -0.00199
 56 Li    0.00237   -0.00223    0.03657
 57 Li   -0.00334    0.00314    0.18158
 58 Li   -0.00770    0.01090   -0.08075
 59 Li    0.00193   -0.00332   -0.19402
 60 Li   -0.00069    0.00139    0.01905
 61 Li    0.00623   -0.00900   -0.02040
 62 Li   -0.01568    0.01796   -0.00049
 63 Li    0.05462   -0.03104    0.02197
 64 Li    0.00044   -0.00393    0.04107
 65 Li   -0.00031   -0.00071    0.18550
 66 Li   -0.00176    0.00146   -0.05485
 67 Li    0.00319    0.00001   -0.19474
 68 Li   -0.00049    0.00106    0.02683
 69 Li   -0.00170   -0.00023   -0.00124
 70 Li   -0.02340    0.00466   -0.00041
 71 Li   -0.00063    0.01332   -0.00158
 72 Li    0.08207   -0.05221   -0.28842

System changes: positions 

Initializing position-dependent things.

Density initialized from wave functions
                                                                       
                                                                       
                                                                       
                                                                       
                                                                       
                                                                       
                               Li          Li          Li              
                                                                       
                  Li    Li            Li          Li          Li       
                      Li           Lii         Lii                     
                             LiLi        LiLi        LiLi              
                Li        LiLi        LiLi        Li          Li       
              Li        Li         Lii         Lii                     
       Li          LiLii       LiLi        LiLi        Li              
                Li          Lii         Lii          Li                
              Li        LiLi        LiLi        Li                     
                     Lii         LiLi        LiLi                      
       Li          Li          Li                                      
              LiLi        LiLi        LiLi                             
                                                                       
       Li          Li          Li                                      
                                                                       
                                                                       
                                                                       
                                                                       

Atomic positions and initial magnetic moments

Positions:
   0 Li     0.000000    0.000000   10.000000    ( 0.0000,  0.0000,  0.0000)
   1 Li     2.467803    1.424787   11.007476    ( 0.0000,  0.0000,  0.0000)
   2 Li     4.935605    2.849573   12.014952    ( 0.0000,  0.0000,  0.0000)
   3 Li     0.000000    0.000000   13.022429    ( 0.0000,  0.0000,  0.0000)
   4 Li     2.459505    1.419898   13.808851    ( 0.0000,  0.0000,  0.0000)
   5 Li     4.920914    2.854592   15.052430    ( 0.0000,  0.0000,  0.0000)
   6 Li    -0.004595   -0.007888   15.880872    ( 0.0000,  0.0000,  0.0000)
   7 Li     2.490341    1.420835   16.551060    ( 0.0000,  0.0000,  0.0000)
   8 Li     2.467803    4.274360   10.000000    ( 0.0000,  0.0000,  0.0000)
   9 Li     4.935605    5.699146   11.007476    ( 0.0000,  0.0000,  0.0000)
  10 Li     7.403408    7.123933   12.014952    ( 0.0000,  0.0000,  0.0000)
  11 Li     2.467803    4.274360   13.022429    ( 0.0000,  0.0000,  0.0000)
  12 Li     4.933652    5.706542   13.809398    ( 0.0000,  0.0000,  0.0000)
  13 Li     7.397019    7.119243   15.052353    ( 0.0000,  0.0000,  0.0000)
  14 Li     2.459622    4.277190   15.921858    ( 0.0000,  0.0000,  0.0000)
  15 Li     4.947309    5.678976   16.551072    ( 0.0000,  0.0000,  0.0000)
  16 Li     4.935605    8.548719   10.000000    ( 0.0000,  0.0000,  0.0000)
  17 Li     7.403408    9.973506   11.007476    ( 0.0000,  0.0000,  0.0000)
  18 Li     9.871211   11.398292   12.014952    ( 0.0000,  0.0000,  0.0000)
  19 Li     4.935605    8.548719   13.022429    ( 0.0000,  0.0000,  0.0000)
  20 Li     7.397125    9.975863   14.035822    ( 0.0000,  0.0000,  0.0000)
  21 Li     9.870283   11.401169   15.050969    ( 0.0000,  0.0000,  0.0000)
  22 Li     4.937078    8.553983   15.880998    ( 0.0000,  0.0000,  0.0000)
  23 Li     7.453383    9.942580   16.977864    ( 0.0000,  0.0000,  0.0000)
  24 Li     4.935605    0.000000   10.000000    ( 0.0000,  0.0000,  0.0000)
  25 Li     7.403408    1.424787   11.007476    ( 0.0000,  0.0000,  0.0000)
  26 Li     9.871211    2.849573   12.014952    ( 0.0000,  0.0000,  0.0000)
  27 Li     4.935605    0.000000   13.022429    ( 0.0000,  0.0000,  0.0000)
  28 Li     7.410388    1.418201   14.033917    ( 0.0000,  0.0000,  0.0000)
  29 Li     9.871151    2.848334   15.087732    ( 0.0000,  0.0000,  0.0000)
  30 Li     4.940231    0.008533   15.861829    ( 0.0000,  0.0000,  0.0000)
  31 Li     7.365518    1.444023   16.982351    ( 0.0000,  0.0000,  0.0000)
  32 Li     7.403408    4.274360   10.000000    ( 0.0000,  0.0000,  0.0000)
  33 Li     9.871211    5.699146   11.007476    ( 0.0000,  0.0000,  0.0000)
  34 Li    12.339013    7.123933   12.014952    ( 0.0000,  0.0000,  0.0000)
  35 Li     7.403408    4.274360   13.022429    ( 0.0000,  0.0000,  0.0000)
  36 Li     9.874590    5.696569   14.021061    ( 0.0000,  0.0000,  0.0000)
  37 Li    12.334933    7.123539   15.082180    ( 0.0000,  0.0000,  0.0000)
  38 Li     7.395470    4.262003   15.862850    ( 0.0000,  0.0000,  0.0000)
  39 Li     9.866742    5.728473   16.950462    ( 0.0000,  0.0000,  0.0000)
  40 Li     9.871211    8.548719   10.000000    ( 0.0000,  0.0000,  0.0000)
  41 Li    12.339013    9.973506   11.007476    ( 0.0000,  0.0000,  0.0000)
  42 Li    14.806816   11.398292   12.014952    ( 0.0000,  0.0000,  0.0000)
  43 Li     9.871211    8.548719   13.022429    ( 0.0000,  0.0000,  0.0000)
  44 Li    12.342648    9.970500   14.019891    ( 0.0000,  0.0000,  0.0000)
  45 Li    14.804418   11.393259   15.088140    ( 0.0000,  0.0000,  0.0000)
  46 Li     9.859710    8.554091   15.799277    ( 0.0000,  0.0000,  0.0000)
  47 Li    12.310627    9.960256   16.949101    ( 0.0000,  0.0000,  0.0000)
  48 Li     9.871211    0.000000   10.000000    ( 0.0000,  0.0000,  0.0000)
  49 Li    12.339013    1.424787   11.007476    ( 0.0000,  0.0000,  0.0000)
  50 Li    14.806816    2.849573   12.014952    ( 0.0000,  0.0000,  0.0000)
  51 Li     9.871211    0.000000   13.022429    ( 0.0000,  0.0000,  0.0000)
  52 Li    12.333953    1.422257   14.030075    ( 0.0000,  0.0000,  0.0000)
  53 Li    14.804681    2.846317   15.061355    ( 0.0000,  0.0000,  0.0000)
  54 Li     9.862311    0.002412   15.852341    ( 0.0000,  0.0000,  0.0000)
  55 Li    12.338681    1.455569   16.957555    ( 0.0000,  0.0000,  0.0000)
  56 Li    12.339013    4.274360   10.000000    ( 0.0000,  0.0000,  0.0000)
  57 Li    14.806816    5.699146   11.007476    ( 0.0000,  0.0000,  0.0000)
  58 Li    17.274619    7.123933   12.014952    ( 0.0000,  0.0000,  0.0000)
  59 Li    12.339013    4.274360   13.022429    ( 0.0000,  0.0000,  0.0000)
  60 Li    14.801282    5.701774   14.032040    ( 0.0000,  0.0000,  0.0000)
  61 Li    17.273730    7.124294   15.060785    ( 0.0000,  0.0000,  0.0000)
  62 Li    12.347046    4.275651   15.824933    ( 0.0000,  0.0000,  0.0000)
  63 Li    14.793302    5.705878   16.981731    ( 0.0000,  0.0000,  0.0000)
  64 Li    14.806816    8.548719   10.000000    ( 0.0000,  0.0000,  0.0000)
  65 Li    17.274619    9.973506   11.007476    ( 0.0000,  0.0000,  0.0000)
  66 Li    19.742421   11.398292   12.014952    ( 0.0000,  0.0000,  0.0000)
  67 Li    14.806816    8.548719   13.022429    ( 0.0000,  0.0000,  0.0000)
  68 Li    17.272387    9.977173   14.029334    ( 0.0000,  0.0000,  0.0000)
  69 Li    19.734236   11.399627   15.096918    ( 0.0000,  0.0000,  0.0000)
  70 Li    14.808212    8.538577   15.824912    ( 0.0000,  0.0000,  0.0000)
  71 Li    17.245421    9.954601   16.956588    ( 0.0000,  0.0000,  0.0000)
  72 Li     3.722163    3.556760   18.572283    ( 0.0000,  0.0000,  0.0000)

Unit cell:
           periodic     x           y           z      points  spacing
  1. axis:    yes   14.806816    0.000000    0.000000    49     0.2617
  2. axis:    yes    7.403408   12.823079    0.000000    49     0.2617
  3. axis:    no     0.000000    0.000000   27.052334    90     0.3006

  Lengths:  14.806816  14.806816  27.052334
  Angles:   90.000000  90.000000  60.000000

Effective grid spacing dv^(1/3) = 0.2875

     iter     time        total  log10-change:
                         energy   eigst   dens
iter:   1 19:10:32  -125.524619   -3.59
iter:   2 19:10:37  -125.516847   -4.24  -2.07
iter:   3 19:10:42  -125.516072c  -4.48  -2.55
iter:   4 19:10:47  -125.515326c  -5.05  -2.69
iter:   5 19:10:52  -125.515421c  -4.75  -2.90
iter:   6 19:10:57  -125.515288c  -5.29  -2.78
iter:   7 19:11:02  -125.515335c  -5.80c -3.37
iter:   8 19:11:07  -125.515270c  -6.07c -3.22
iter:   9 19:11:12  -125.515285c  -6.83c -3.57
iter:  10 19:11:17  -125.515249c  -7.00c -3.72
iter:  11 19:11:22  -125.515233c  -7.10c -3.93
iter:  12 19:11:27  -125.515256c  -6.81c -4.02c

Converged after 12 iterations.

Dipole moment: (-9.307540, -4.720733, 0.229291) |e|*Ang

Energy contributions relative to reference atoms: (reference = -14803.510878)

Kinetic:        +99.445027
Potential:      -89.249174
External:        +0.000000
XC:            -134.676376
Entropy (-ST):   -1.152521
Local:           -0.458472
SIC:             +0.000000
--------------------------
Free energy:   -126.091517
Extrapolated:  -125.515256

Showing all kpts
 Kpt  Band  Eigenvalues  Occupancy
  0    34     -1.84147    1.13033
  0    35     -1.78275    0.83891
  0    36     -1.77282    0.79097
  0    37     -1.74369    0.65669

  1    34     -1.95375    1.59956
  1    35     -1.95045    1.58891
  1    36     -1.86468    1.24221
  1    37     -1.75779    0.72034


Fermi level: -1.81526

No gap
No difference between direct/indirect transitions

Forces in eV/Ang:
  0 Li    0.00174    0.00026    0.05290
  1 Li   -0.00563   -0.00809    0.03859
  2 Li    0.00558   -0.00036   -0.06798
  3 Li   -0.01324   -0.00377   -0.13761
  4 Li   -0.01101   -0.01800    0.06079
  5 Li   -0.03868    0.02186    0.09883
  6 Li   -0.03797   -0.03035   -0.05538
  7 Li   -0.02553    0.02990    0.21958
  8 Li   -0.00632    0.00193    0.07259
  9 Li    0.00454    0.00866    0.03916
 10 Li    0.01032    0.00558   -0.08904
 11 Li   -0.01740    0.00876   -0.10245
 12 Li    0.00920    0.01770    0.06027
 13 Li   -0.00333   -0.00420   -0.03068
 14 Li   -0.02753    0.01676   -0.04871
 15 Li   -0.03810    0.01121    0.21606
 16 Li   -0.00023   -0.00099    0.05326
 17 Li    0.00084   -0.00010    0.18609
 18 Li    0.00355   -0.01048   -0.09087
 19 Li   -0.00507    0.01505   -0.13747
 20 Li   -0.00124    0.00046    0.02778
 21 Li    0.00171    0.00463   -0.03063
 22 Li    0.00637    0.04800   -0.05636
 23 Li   -0.00753    0.00481   -0.01807
 24 Li   -0.00196   -0.00310    0.05543
 25 Li    0.00686   -0.00498    0.18187
 26 Li    0.00322   -0.00142   -0.05864
 27 Li    0.01015   -0.00307   -0.13838
 28 Li    0.00518   -0.00429    0.01921
 29 Li   -0.00138    0.00001   -0.00407
 30 Li    0.03723   -0.02039   -0.01056
 31 Li   -0.01244    0.00729    0.00805
 32 Li    0.00165    0.00136    0.05554
 33 Li   -0.00345   -0.00298    0.18297
 34 Li    0.00663    0.00171   -0.05508
 35 Li    0.00450   -0.00838   -0.13984
 36 Li   -0.00183   -0.00246    0.02836
 37 Li    0.00117   -0.00191   -0.00238
 38 Li    0.03391   -0.02327   -0.01044
 39 Li    0.00876   -0.00427   -0.00583
 40 Li   -0.00290    0.00335    0.03357
 41 Li    0.00000    0.00373    0.18487
 42 Li    0.00483    0.00111   -0.05659
 43 Li   -0.00027    0.00211   -0.21302
 44 Li    0.00130    0.00282    0.02709
 45 Li   -0.00349    0.00019   -0.00403
 46 Li    0.01314   -0.00793    0.00553
 47 Li    0.00910   -0.00451   -0.00601
 48 Li   -0.00109    0.00029    0.04173
 49 Li    0.00010    0.00210    0.18305
 50 Li   -0.00780    0.00462   -0.08183
 51 Li   -0.00014   -0.00230   -0.17808
 52 Li   -0.00196   -0.00065    0.02690
 53 Li    0.00832   -0.00290   -0.01763
 54 Li   -0.00948    0.00547   -0.00141
 55 Li   -0.01135   -0.00621   -0.00132
 56 Li    0.00232   -0.00224    0.03647
 57 Li   -0.00330    0.00306    0.18194
 58 Li   -0.00752    0.01097   -0.08095
 59 Li    0.00189   -0.00346   -0.19386
 60 Li   -0.00080    0.00138    0.01802
 61 Li    0.00619   -0.00746   -0.01802
 62 Li   -0.01346    0.01657    0.00018
 63 Li    0.05328   -0.03019    0.02142
 64 Li    0.00040   -0.00381    0.04099
 65 Li   -0.00029   -0.00062    0.18609
 66 Li   -0.00180    0.00135   -0.05455
 67 Li    0.00326    0.00015   -0.19455
 68 Li   -0.00070    0.00105    0.02443
 69 Li   -0.00373    0.00105   -0.00177
 70 Li   -0.02115    0.00327    0.00027
 71 Li   -0.00065    0.01243   -0.00094
 72 Li    0.08438   -0.05374   -0.27502

System changes: positions 

Initializing position-dependent things.

Density initialized from wave functions
                                                                       
                                                                       
                                                                       
                                                                       
                                                                       
                                                                       
                               Li          Li          Li              
                                                                       
                  Li    Li            Li        LiLi          Li       
                      Li           Lii         Li                      
                             LiLi        LiLi        LiLi              
                Li        LiLi        LiLi        Li          Li       
              Li        Li         Lii         Lii                     
       Li          LiLii       LiLi        LiLi        Li              
[...]
  7 Li   -0.00407   -0.00921   -0.01388
  8 Li   -0.00709    0.00041    0.04785
  9 Li   -0.00009    0.00145    0.16061
 10 Li    0.00499    0.00576   -0.06768
 11 Li    0.00198   -0.00487   -0.13610
 12 Li   -0.00633   -0.00692    0.02015
 13 Li    0.00046    0.00821    0.00169
 14 Li   -0.01018    0.00508   -0.00382
 15 Li    0.01878   -0.00519    0.05030
 16 Li   -0.00032    0.00179    0.04474
 17 Li   -0.00292   -0.00318    0.19815
 18 Li   -0.00094   -0.00145   -0.05615
 19 Li   -0.01586    0.01584   -0.20882
 20 Li    0.01101   -0.00471   -0.00597
 21 Li    0.00260    0.00168    0.00073
 22 Li   -0.00721    0.00093   -0.00831
 23 Li   -0.00770    0.00379   -0.01025
 24 Li   -0.00208   -0.00613    0.04546
 25 Li    0.00214   -0.00072    0.17835
 26 Li    0.00694    0.00350   -0.05274
 27 Li   -0.00419   -0.00240   -0.10633
 28 Li   -0.01425    0.01142    0.00874
 29 Li    0.01425   -0.01132   -0.01515
 30 Li    0.01238   -0.00098    0.01930
 31 Li   -0.01718    0.03320    0.01277
 32 Li    0.00424    0.00118    0.05163
 33 Li   -0.00401   -0.00269    0.19275
 34 Li    0.00809    0.00916   -0.05533
 35 Li    0.00767   -0.00264   -0.15275
 36 Li    0.00020   -0.00666    0.00307
 37 Li   -0.00509    0.00311   -0.00124
 38 Li   -0.01015   -0.00689    0.01824
 39 Li   -0.00583   -0.00392   -0.00477
 40 Li   -0.00033   -0.00018    0.03709
 41 Li    0.00384    0.00292    0.19393
 42 Li    0.00510   -0.00537   -0.05750
 43 Li   -0.00637    0.00115   -0.19033
 44 Li    0.01093    0.00105   -0.00002
 45 Li    0.01520    0.00004   -0.01101
 46 Li    0.01114   -0.00655    0.00631
 47 Li   -0.00223    0.00806   -0.00763
 48 Li    0.00096   -0.00353    0.04611
 49 Li   -0.00291   -0.00577    0.19423
 50 Li   -0.00339    0.00389   -0.05498
 51 Li    0.01138    0.02647   -0.20006
 52 Li    0.01070   -0.02794   -0.00198
 53 Li   -0.00982   -0.00057   -0.00960
 54 Li    0.01547   -0.00863   -0.00516
 55 Li   -0.00299    0.00017   -0.00097
 56 Li   -0.00056   -0.00372    0.04092
 57 Li    0.00204    0.00226    0.19355
 58 Li   -0.00510    0.00773   -0.07608
 59 Li    0.00060    0.05662   -0.18478
 60 Li   -0.00403    0.00469   -0.00193
 61 Li    0.00371    0.00634    0.00496
 62 Li    0.00218    0.01145    0.01155
 63 Li    0.01499   -0.00696    0.00086
 64 Li   -0.00254   -0.00180    0.04339
 65 Li    0.00501   -0.00005    0.19645
 66 Li   -0.00623   -0.00683   -0.06495
 67 Li   -0.02032   -0.00517   -0.19351
 68 Li    0.01767   -0.00250   -0.00542
 69 Li    0.02925   -0.01193    0.00103
 70 Li   -0.01036   -0.00620    0.01448
 71 Li   -0.00153    0.00088    0.00347
 72 Li   -0.03096   -0.09973   -0.00572

System changes: positions 

Initializing position-dependent things.

Density initialized from wave functions
                                                                        
                                                                        
                                                                        
                                                                        
                                                                        
                                                                        
                                Li          Li          Li              
                                       Li          Li          Li       
                       LiLi        LiLi        LiLi                     
                      Li        Li          Li          Li              
                Li            Li          Li          Li                
              Li         LLiLi       LLiLi       LiLi          Li       
                       Li        LiLi        LiLi                       
       Li          LiLi       LLii        LiLi        LiLi              
                Li          Li        LiLi                              
              Li       LiLLi       LiLi        LiLi                     
                     Li          Li          Li                         
       Li          Li          Li                                       
              LiLi        LiLi        LiLi                              
                                                                        
       Li          Li          Li                                       
                                                                        
                                                                        
                                                                        
                                                                        

Atomic positions and initial magnetic moments

Positions:
   0 Li     0.000000    0.000000   10.000000    ( 0.0000,  0.0000,  0.0000)
   1 Li     2.467803    1.424787   11.007476    ( 0.0000,  0.0000,  0.0000)
   2 Li     4.935605    2.849573   12.014952    ( 0.0000,  0.0000,  0.0000)
   3 Li     0.000000    0.000000   13.022429    ( 0.0000,  0.0000,  0.0000)
   4 Li     2.449879    1.417021   14.049053    ( 0.0000,  0.0000,  0.0000)
   5 Li     4.958286    2.874552   14.945417    ( 0.0000,  0.0000,  0.0000)
   6 Li    -0.014152   -0.018846   15.844834    ( 0.0000,  0.0000,  0.0000)
   7 Li     2.356075    1.498639   17.002560    ( 0.0000,  0.0000,  0.0000)
   8 Li     2.467803    4.274360   10.000000    ( 0.0000,  0.0000,  0.0000)
   9 Li     4.935605    5.699146   11.007476    ( 0.0000,  0.0000,  0.0000)
  10 Li     7.403408    7.123933   12.014952    ( 0.0000,  0.0000,  0.0000)
  11 Li     2.467803    4.274360   13.022429    ( 0.0000,  0.0000,  0.0000)
  12 Li     4.940524    5.735484   13.973829    ( 0.0000,  0.0000,  0.0000)
  13 Li     7.387404    7.182700   15.069162    ( 0.0000,  0.0000,  0.0000)
  14 Li     2.649690    4.305045   15.890970    ( 0.0000,  0.0000,  0.0000)
  15 Li     4.912284    6.162516   16.822454    ( 0.0000,  0.0000,  0.0000)
  16 Li     4.935605    8.548719   10.000000    ( 0.0000,  0.0000,  0.0000)
  17 Li     7.403408    9.973506   11.007476    ( 0.0000,  0.0000,  0.0000)
  18 Li     9.871211   11.398292   12.014952    ( 0.0000,  0.0000,  0.0000)
  19 Li     4.935605    8.548719   13.022429    ( 0.0000,  0.0000,  0.0000)
  20 Li     7.414828   10.008395   14.059921    ( 0.0000,  0.0000,  0.0000)
  21 Li     9.898704   11.408415   15.102469    ( 0.0000,  0.0000,  0.0000)
  22 Li     4.927168    8.851360   15.754727    ( 0.0000,  0.0000,  0.0000)
  23 Li     7.471483    9.937769   16.995256    ( 0.0000,  0.0000,  0.0000)
  24 Li     4.935605    0.000000   10.000000    ( 0.0000,  0.0000,  0.0000)
  25 Li     7.403408    1.424787   11.007476    ( 0.0000,  0.0000,  0.0000)
  26 Li     9.871211    2.849573   12.014952    ( 0.0000,  0.0000,  0.0000)
  27 Li     4.935605    0.000000   13.022429    ( 0.0000,  0.0000,  0.0000)
  28 Li     7.421353    1.409811   14.007469    ( 0.0000,  0.0000,  0.0000)
  29 Li     9.826277    2.870981   15.110667    ( 0.0000,  0.0000,  0.0000)
  30 Li     4.900701    0.209585   15.941154    ( 0.0000,  0.0000,  0.0000)
  31 Li     7.523642    1.375898   16.929195    ( 0.0000,  0.0000,  0.0000)
  32 Li     7.403408    4.274360   10.000000    ( 0.0000,  0.0000,  0.0000)
  33 Li     9.871211    5.699146   11.007476    ( 0.0000,  0.0000,  0.0000)
  34 Li    12.339013    7.123933   12.014952    ( 0.0000,  0.0000,  0.0000)
  35 Li     7.403408    4.274360   13.022429    ( 0.0000,  0.0000,  0.0000)
  36 Li     9.853095    5.703331   14.056520    ( 0.0000,  0.0000,  0.0000)
  37 Li    12.347173    7.115021   15.076912    ( 0.0000,  0.0000,  0.0000)
  38 Li     7.272047    4.298141   15.877779    ( 0.0000,  0.0000,  0.0000)
  39 Li     9.771707    5.684436   16.976580    ( 0.0000,  0.0000,  0.0000)
  40 Li     9.871211    8.548719   10.000000    ( 0.0000,  0.0000,  0.0000)
  41 Li    12.339013    9.973506   11.007476    ( 0.0000,  0.0000,  0.0000)
  42 Li    14.806816   11.398292   12.014952    ( 0.0000,  0.0000,  0.0000)
  43 Li     9.871211    8.548719   13.022429    ( 0.0000,  0.0000,  0.0000)
  44 Li    12.323515    9.977368   14.045456    ( 0.0000,  0.0000,  0.0000)
  45 Li    14.732652   11.415751   15.096319    ( 0.0000,  0.0000,  0.0000)
  46 Li     9.904594    8.541324   15.827500    ( 0.0000,  0.0000,  0.0000)
  47 Li    12.340958   10.081721   16.961263    ( 0.0000,  0.0000,  0.0000)
  48 Li     9.871211    0.000000   10.000000    ( 0.0000,  0.0000,  0.0000)
  49 Li    12.339013    1.424787   11.007476    ( 0.0000,  0.0000,  0.0000)
  50 Li    14.806816    2.849573   12.014952    ( 0.0000,  0.0000,  0.0000)
  51 Li     9.871211    0.000000   13.022429    ( 0.0000,  0.0000,  0.0000)
  52 Li    12.328290    1.517821   14.046563    ( 0.0000,  0.0000,  0.0000)
  53 Li    14.837916    2.882961   15.114643    ( 0.0000,  0.0000,  0.0000)
  54 Li     9.886254   -0.040389   15.798321    ( 0.0000,  0.0000,  0.0000)
  55 Li    12.312442    1.438496   16.962859    ( 0.0000,  0.0000,  0.0000)
  56 Li    12.339013    4.274360   10.000000    ( 0.0000,  0.0000,  0.0000)
  57 Li    14.806816    5.699146   11.007476    ( 0.0000,  0.0000,  0.0000)
  58 Li    17.274619    7.123933   12.014952    ( 0.0000,  0.0000,  0.0000)
  59 Li    12.339013    4.274360   13.022429    ( 0.0000,  0.0000,  0.0000)
  60 Li    14.826218    5.695689   14.040577    ( 0.0000,  0.0000,  0.0000)
  61 Li    17.273847    7.185423   15.043941    ( 0.0000,  0.0000,  0.0000)
  62 Li    12.327855    4.297236   15.848558    ( 0.0000,  0.0000,  0.0000)
  63 Li    14.913978    5.664346   16.947750    ( 0.0000,  0.0000,  0.0000)
  64 Li    14.806816    8.548719   10.000000    ( 0.0000,  0.0000,  0.0000)
  65 Li    17.274619    9.973506   11.007476    ( 0.0000,  0.0000,  0.0000)
  66 Li    19.742421   11.398292   12.014952    ( 0.0000,  0.0000,  0.0000)
  67 Li    14.806816    8.548719   13.022429    ( 0.0000,  0.0000,  0.0000)
  68 Li    17.229492   10.014258   14.042703    ( 0.0000,  0.0000,  0.0000)
  69 Li    19.731547   11.541110   15.001099    ( 0.0000,  0.0000,  0.0000)
  70 Li    14.777402    8.547666   15.827570    ( 0.0000,  0.0000,  0.0000)
  71 Li    17.207103    9.971622   16.973567    ( 0.0000,  0.0000,  0.0000)
  72 Li     5.018701    3.239735   17.713665    ( 0.0000,  0.0000,  0.0000)

Unit cell:
           periodic     x           y           z      points  spacing
  1. axis:    yes   14.806816    0.000000    0.000000    49     0.2617
  2. axis:    yes    7.403408   12.823079    0.000000    49     0.2617
  3. axis:    no     0.000000    0.000000   27.052334    90     0.3006

  Lengths:  14.806816  14.806816  27.052334
  Angles:   90.000000  90.000000  60.000000

Effective grid spacing dv^(1/3) = 0.2875

     iter     time        total  log10-change:
                         energy   eigst   dens
iter:   1 23:07:09  -125.990693   -2.97
iter:   2 23:07:17  -125.969734   -3.97  -1.85
iter:   3 23:07:26  -125.967997c  -3.83  -2.15
iter:   4 23:07:34  -125.968008c  -4.54  -2.39
iter:   5 23:07:41  -125.969628c  -4.27  -2.64
iter:   6 23:07:49  -125.967481c  -4.75  -2.54
iter:   7 23:07:56  -125.967560c  -5.06  -3.01
iter:   8 23:08:03  -125.967673c  -5.41c -2.81
iter:   9 23:08:10  -125.967629c  -6.35c -3.32
iter:  10 23:08:17  -125.967576c  -6.61c -3.36
iter:  11 23:08:25  -125.967736c  -6.28c -3.45
iter:  12 23:08:32  -125.967622c  -6.57c -3.53
iter:  13 23:08:39  -125.967581c  -7.16c -3.68
iter:  14 23:08:46  -125.967617c  -7.14c -3.72
iter:  15 23:08:53  -125.967619c  -7.57c -4.00c

Converged after 15 iterations.

Dipole moment: (-10.036649, -6.286639, 0.041236) |e|*Ang

Energy contributions relative to reference atoms: (reference = -14803.510878)

Kinetic:        +99.182816
Potential:      -89.184948
External:        +0.000000
XC:            -134.936797
Entropy (-ST):   -1.141190
Local:           -0.458094
SIC:             +0.000000
--------------------------
Free energy:   -126.538214
Extrapolated:  -125.967619

Showing all kpts
 Kpt  Band  Eigenvalues  Occupancy
  0    34     -1.85571    1.13948
  0    35     -1.79345    0.83074
  0    36     -1.77604    0.74762
  0    37     -1.73049    0.54920

  1    34     -1.96506    1.59612
  1    35     -1.96190    1.58585
  1    36     -1.86906    1.20419
  1    37     -1.77898    0.76140


Fermi level: -1.82764

No gap
No difference between direct/indirect transitions

Forces in eV/Ang:
  0 Li    0.00120   -0.00135    0.03841
  1 Li   -0.00211   -0.00153    0.19030
  2 Li    0.00380    0.00284   -0.09043
  3 Li   -0.01383    0.03031   -0.16813
  4 Li    0.00340    0.00836   -0.00714
  5 Li   -0.00729    0.00079   -0.01316
  6 Li   -0.00643   -0.00163   -0.00676
  7 Li   -0.00472   -0.00651   -0.01226
  8 Li   -0.00725    0.00035    0.04839
  9 Li    0.00004    0.00128    0.15898
 10 Li    0.00563    0.00474   -0.06643
 11 Li   -0.00066   -0.00304   -0.14426
 12 Li   -0.00418   -0.00004    0.02009
 13 Li   -0.00520    0.00433   -0.00258
 14 Li   -0.00136   -0.00181    0.00641
 15 Li    0.01602   -0.00457    0.04819
 16 Li   -0.00072    0.00185    0.04511
 17 Li   -0.00313   -0.00306    0.19869
 18 Li    0.00000   -0.00174   -0.05629
 19 Li   -0.01145    0.01456   -0.20514
 20 Li    0.01050   -0.00352   -0.00812
 21 Li   -0.00038    0.00688   -0.00144
 22 Li   -0.00498   -0.00375   -0.00880
 23 Li   -0.00864    0.00380   -0.01090
 24 Li   -0.00192   -0.00608    0.04594
 25 Li    0.00238   -0.00088    0.17591
 26 Li    0.00653    0.00352   -0.05440
 27 Li   -0.00506   -0.00324   -0.10966
 28 Li   -0.00613    0.00686    0.01172
 29 Li    0.00983   -0.00875   -0.01275
 30 Li    0.00823   -0.00140    0.02165
 31 Li   -0.01031    0.02904    0.01091
 32 Li    0.00434    0.00093    0.05217
 33 Li   -0.00379   -0.00279    0.19319
 34 Li    0.00808    0.00922   -0.05574
 35 Li    0.00743   -0.00113   -0.16155
 36 Li    0.00067   -0.00491    0.00162
 37 Li   -0.00446    0.00227   -0.00224
 38 Li   -0.01312   -0.00490    0.02754
 39 Li   -0.00540   -0.00487   -0.00548
 40 Li   -0.00039   -0.00007    0.03691
 41 Li    0.00370    0.00297    0.19373
 42 Li    0.00543   -0.00460   -0.05956
 43 Li   -0.00363    0.00022   -0.19118
 44 Li    0.00901    0.00066   -0.00042
 45 Li    0.01304    0.00252   -0.00767
 46 Li    0.01165   -0.00605    0.00934
 47 Li   -0.00117    0.00629   -0.00706
 48 Li    0.00090   -0.00375    0.04609
 49 Li   -0.00314   -0.00528    0.19431
 50 Li   -0.00290    0.00439   -0.05568
 51 Li    0.01149    0.02811   -0.20679
 52 Li    0.00866   -0.02396   -0.00212
 53 Li   -0.00546   -0.00476   -0.01034
 54 Li    0.00235   -0.00107    0.00467
 55 Li   -0.00040   -0.00003   -0.00317
 56 Li   -0.00043   -0.00368    0.04087
 57 Li    0.00217    0.00188    0.19086
 58 Li   -0.00473    0.00705   -0.07644
 59 Li   -0.00050    0.05298   -0.18357
 60 Li   -0.00176    0.00418    0.00271
 61 Li    0.00965    0.00273    0.00499
 62 Li    0.00144    0.01174    0.01137
 63 Li    0.01004   -0.00404    0.00300
 64 Li   -0.00262   -0.00192    0.04350
 65 Li    0.00445   -0.00030    0.19621
 66 Li   -0.00667   -0.00674   -0.06312
 67 Li   -0.01697   -0.00210   -0.19356
 68 Li    0.01592   -0.00085   -0.00429
 69 Li    0.01844   -0.00421   -0.00350
 70 Li   -0.01098   -0.00586    0.01349
 71 Li   -0.00103   -0.00160    0.00083
 72 Li   -0.02357   -0.10708   -0.01576

Timing:                                      incl.     excl.
-------------------------------------------------------------------
Density initialized from wave functions:    38.842    38.841   0.2% |
 Symmetrize density:                         0.001     0.001   0.0% |
Forces:                                    168.220   168.220   0.8% |
Hamiltonian:                                58.260     0.398   0.0% |
 Atomic:                                    25.206     0.114   0.0% |
  XC Correction:                            25.092    25.092   0.1% |
 Calculate atomic Hamiltonians:             21.438    21.438   0.1% |
 Communicate:                                0.000     0.000   0.0% |
 Initialize Hamiltonian:                     0.001     0.001   0.0% |
 Poisson:                                    1.336     1.336   0.0% |
 XC 3D grid:                                 9.881     9.881   0.0% |
LCAO initialization:                        18.771     0.005   0.0% |
 LCAO eigensolver:                           0.385     0.000   0.0% |
  Calculate projections:                     0.004     0.004   0.0% |
  DenseAtomicCorrection:                     0.043     0.043   0.0% |
  Distribute overlap matrix:                 0.000     0.000   0.0% |
  Orbital Layouts:                           0.075     0.075   0.0% |
  Potential matrix:                          0.259     0.259   0.0% |
  Sum over cells:                            0.003     0.003   0.0% |
 LCAO to grid:                              17.188    17.188   0.1% |
 Set positions (LCAO WFS):                   1.193     0.164   0.0% |
  Basic WFS set positions:                   0.001     0.001   0.0% |
  Basis functions set positions:             0.000     0.000   0.0% |
  P tci:                                     0.336     0.336   0.0% |
  ST tci:                                    0.148     0.148   0.0% |
  mktci:                                     0.544     0.544   0.0% |
PWDescriptor:                                0.013     0.013   0.0% |
Redistribute:                                0.082     0.082   0.0% |
SCF-cycle:                                3009.318     0.458   0.0% |
 Davidson:                                1793.655   332.974   1.6% ||
  Apply H:                                 314.226   311.101   1.5% ||
   HMM T:                                    3.125     3.125   0.0% |
  Subspace diag:                           359.630     0.215   0.0% |
   calc_h_matrix:                          333.632    20.488   0.1% |
    Apply H:                               313.144   309.046   1.5% ||
     HMM T:                                  4.098     4.098   0.0% |
   diagonalize:                              0.792     0.792   0.0% |
   rotate_psi:                              24.990    24.990   0.1% |
  calc. matrices:                          731.315   100.969   0.5% |
   Apply H:                                630.345   623.535   2.9% ||
    HMM T:                                   6.810     6.810   0.0% |
  diagonalize:                               6.053     6.053   0.0% |
  rotate_psi:                               49.457    49.457   0.2% |
 Density:                                  430.177     0.007   0.0% |
  Atomic density matrices:                   1.411     1.411   0.0% |
  Mix:                                     273.512   273.512   1.3% ||
  Multipole moments:                         0.313     0.313   0.0% |
  Pseudo density:                          154.934   154.926   0.7% |
   Symmetrize density:                       0.008     0.008   0.0% |
 Hamiltonian:                              772.737     1.805   0.0% |
  Atomic:                                  331.508     1.286   0.0% |
   XC Correction:                          330.222   330.222   1.6% ||
  Calculate atomic Hamiltonians:           300.058   300.058   1.4% ||
  Communicate:                               0.003     0.003   0.0% |
  Poisson:                                   1.182     1.182   0.0% |
  XC 3D grid:                              138.180   138.180   0.6% |
 Orthonormalize:                            12.291     0.012   0.0% |
  calc_s_matrix:                             0.790     0.790   0.0% |
  inverse-cholesky:                          0.038     0.038   0.0% |
  projections:                               7.774     7.774   0.0% |
  rotate_psi_s:                              3.677     3.677   0.0% |
Set symmetry:                                0.000     0.000   0.0% |
Other:                                   17983.225 17983.225  84.5% |---------------------------------|
-------------------------------------------------------------------
Total:                                             21276.731 100.0%

Memory usage: 4.13 GiB
Date: Tue Nov 25 00:17:01 2025
