
  ___ ___ ___ _ _ _  
 |   |   |_  | | | | 
 | | | | | . | | | | 
 |__ |  _|___|_____|  25.7.0
 |___|_|             

User:   tew@Mathuss-MacBook-Air-357.local
Date:   Tue Nov 25 00:14:31 2025
Arch:   arm64
Pid:    76608
CWD:    /Users/tew/Documents/Project/GitHub/chem-com
Python: 3.13.5
gpaw:   /Users/tew/Documents/Project/GitHub/chem-com/.venv/lib/python3.13/site-packages/gpaw
_gpaw:  /Users/tew/Documents/Project/GitHub/chem-com/.venv/lib/python3.13/site-packages/
        _gpaw.cpython-313-darwin.so
ase:    /Users/tew/Documents/Project/GitHub/chem-com/.venv/lib/python3.13/site-packages/ase (version 3.26.0)
numpy:  /Users/tew/Documents/Project/GitHub/chem-com/.venv/lib/python3.13/site-packages/numpy (version 2.3.5)
scipy:  /Users/tew/Documents/Project/GitHub/chem-com/.venv/lib/python3.13/site-packages/scipy (version 1.16.3)
libxc:  2.x.y
units:  Angstrom and eV
cores: 1
OpenMP: False
OMP_NUM_THREADS: 1

Input parameters:
  convergence: {density: 0.0001,
                eigenstates: 5e-06}
  kpts: [2 2 1]
  mode: {ecut: 200.0,
         name: pw}
  xc: PBE

System changes: positions, numbers, cell, pbc, initial_charges, initial_magmoms 

Initialize ...

species:
  Li:
    name: Lithium
    id: 830b4218f175192f93f959cfc0aad614
    Z: 3.0
    valence: 1
    core: 2
    charge: 0.0
    file: /Users/tew/Documents/Project/GitHub/chem-com/.venv/lib/python3.13/site-packages/gpaw_data/setups/Li.PBE.gz
    compensation charges: {type: gauss,
                           rc: 0.33,
                           lmax: 2}
    cutoffs: {filter: 1.91,
              core: 2.55}
    projectors:
      #              energy  rcut
      - 2s(1.00)    -2.874   1.058
      - 2p(0.00)    -1.090   1.058
      -  s          24.337   1.058
  
    # Using partial waves for Li as LCAO basis

Reference energy: -14803.510878  # eV

Spin-paired calculation

Convergence criteria:
 Maximum [total energy] change in last 3 cyles: 0.0005 eV / valence electron
 Maximum integral of absolute [dens]ity change: 0.0001 electrons / valence electron
 Maximum integral of absolute [eigenst]ate change: 5e-06 eV^2 / valence electron
 Maximum number of scf [iter]ations: 333
 (Square brackets indicate name in SCF output, whereas a 'c' in
 the SCF output indicates the quantity has converged.)

Symmetries present (total): 2

  ( 1  0  0)  ( 1  0  0)
  ( 0  1  0)  ( 0 -1  0)
  ( 0  0  1)  ( 0  0  1)

4 k-points: 2 x 2 x 1 Monkhorst-Pack grid
1 k-point in the irreducible part of the Brillouin zone
       k-points in crystal coordinates                weights
   0:     0.25000000    0.25000000    0.00000000          4/4

Wave functions: Plane wave expansion
  Cutoff energy: 200.000 eV
  Number of coefficients (min, max): 22683, 22683
  Pulay-stress correction: 0.000000 eV/Ang^3 (de/decut=0.000000)
  Using Numpy's FFT
  ScaLapack parameters: grid=1x1, blocksize=None
  Wavefunction extrapolation:
    Improved wavefunction reuse through dual PAW basis 

Occupation numbers: Fermi-Dirac:
  width: 0.1000  # eV
 

Eigensolver
   Davidson(niter=2) 

Densities:
  Coarse grid: 35*35*108 grid
  Fine grid: 70*70*216 grid
  Total Charge: 0.000000 

Density mixing:
  Method: separate
  Backend: pulay
  Linear mixing parameter: 0.05
  old densities: 5
  Damping of long wavelength oscillations: 50 

Hamiltonian:
  XC and Coulomb potentials evaluated on a 70*70*216 grid
  Using the PBE Exchange-Correlation functional
  External potential:
    NoExternalPotential
 

XC parameters: PBE with 2 nearest neighbor stencil

Memory estimate:
  Process memory now: 4231.58 MiB
  Calculator: 120.15 MiB
    Density: 60.32 MiB
      Arrays: 26.24 MiB
      Localized functions: 23.99 MiB
      Mixer: 10.09 MiB
    Hamiltonian: 17.65 MiB
      Arrays: 17.16 MiB
      XC: 0.00 MiB
      Poisson: 0.00 MiB
      vbar: 0.49 MiB
    Wavefunctions: 42.18 MiB
      Arrays psit_nG: 16.61 MiB
      Eigensolver: 18.70 MiB
      Projections: 0.27 MiB
      Projectors: 1.21 MiB
      PW-descriptor: 5.39 MiB

Total number of cores used: 1

Number of atoms: 73
Number of atomic orbitals: 292
Number of bands in calculation: 48
Number of valence electrons: 73
Bands to converge: occupied

... initialized

Initializing position-dependent things.

Density initialized from atomic densities
Creating initial wave functions:
  48 bands from LCAO basis set

       .-------------------------.  
      /|                         |  
     / |                         |  
    /  |                         |  
   /   |                         |  
  /    |                         |  
 *     |                         |  
 |     |                         |  
 |     |                         |  
 |     |                         |  
 |     |                         |  
 |     |                         |  
 |     |                         |  
 |     |LiLi       Li       Li   |  
 |     |                         |  
 |     |        Li         Li    |  
 |     |Li                       |  
 |     Li     LLi     LiLi     Li|  
 |     |  Li       Li       Li   |  
 |     |    Li      Li       Li  |  
 |     |Li       Li       Li     |  
 Li    | Li   Li  Li  Li       Li|  
 |    Li  Li   Li  Li  Li   Li   |  
 |     |    Li      Li       Li  |  
 |     |Li       Li       Li     |  
 Li  Li|  Li  Li  Li  Li         |  
 |    Li  Li   Li  Li   Li  Li   |  
 | Li  |    Li      Li           |  
 |     |Li       Li       Li     |  
 Li    |  Li      Li             |  
 |   LLi      LLi     LiLi       |  
 |     |                         |  
 | Li  |    Li      Li           |  
 |     |                         |  
 Li    |  Li      Li             |  
 |     |                         |  
 |     |                         |  
 |     |                         |  
 |     |                         |  
 |     |                         |  
 |     .-------------------------.  
 |    /                         /   
 |   /                         /    
 |  /                         /     
 | /                         /      
 |/                         /       
 *-------------------------*        

Atomic positions and initial magnetic moments

Positions:
   0 Li     0.000000    0.000000   10.000000    ( 0.0000,  0.0000,  0.0000)
   1 Li     1.745000    1.745000   11.745000    ( 0.0000,  0.0000,  0.0000)
   2 Li     0.000000    0.000000   13.490000    ( 0.0000,  0.0000,  0.0000)
   3 Li     1.745000    1.745000   15.235000    ( 0.0000,  0.0000,  0.0000)
   4 Li     0.025947   -0.000000   16.946278    ( 0.0000,  0.0000,  0.0000)
   5 Li     1.744996    1.773280   18.642998    ( 0.0000,  0.0000,  0.0000)
   6 Li     0.070637   -0.000000   20.485721    ( 0.0000,  0.0000,  0.0000)
   7 Li     1.744990    2.137614   22.334148    ( 0.0000,  0.0000,  0.0000)
   8 Li     0.000000    3.490000   10.000000    ( 0.0000,  0.0000,  0.0000)
   9 Li     1.745000    5.235000   11.745000    ( 0.0000,  0.0000,  0.0000)
  10 Li     0.000000    3.490000   13.490000    ( 0.0000,  0.0000,  0.0000)
  11 Li     1.745000    5.235000   15.235000    ( 0.0000,  0.0000,  0.0000)
  12 Li    -0.027438    3.462550   16.914394    ( 0.0000,  0.0000,  0.0000)
  13 Li     1.744999    5.235000   18.521760    ( 0.0000,  0.0000,  0.0000)
  14 Li    -0.125187    3.364812   20.323139    ( 0.0000,  0.0000,  0.0000)
  15 Li     1.745007    5.235000   21.396958    ( 0.0000,  0.0000,  0.0000)
  16 Li     0.000000    6.980000   10.000000    ( 0.0000,  0.0000,  0.0000)
  17 Li     1.745000    8.725000   11.745000    ( 0.0000,  0.0000,  0.0000)
  18 Li     0.000000    6.980000   13.490000    ( 0.0000,  0.0000,  0.0000)
  19 Li     1.745000    8.725000   15.235000    ( 0.0000,  0.0000,  0.0000)
  20 Li    -0.027438    7.007450   16.914394    ( 0.0000,  0.0000,  0.0000)
  21 Li     1.744996    8.696720   18.642998    ( 0.0000,  0.0000,  0.0000)
  22 Li    -0.125187    7.105188   20.323139    ( 0.0000,  0.0000,  0.0000)
  23 Li     1.744990    8.332386   22.334148    ( 0.0000,  0.0000,  0.0000)
  24 Li     3.490000    0.000000   10.000000    ( 0.0000,  0.0000,  0.0000)
  25 Li     5.235000    1.745000   11.745000    ( 0.0000,  0.0000,  0.0000)
  26 Li     3.490000    0.000000   13.490000    ( 0.0000,  0.0000,  0.0000)
  27 Li     5.235000    1.745000   15.235000    ( 0.0000,  0.0000,  0.0000)
  28 Li     3.464057   -0.000000   16.946291    ( 0.0000,  0.0000,  0.0000)
  29 Li     5.307227    1.672778   18.619905    ( 0.0000,  0.0000,  0.0000)
  30 Li     3.419359   -0.000000   20.485723    ( 0.0000,  0.0000,  0.0000)
  31 Li     5.245340    1.734651   22.286368    ( 0.0000,  0.0000,  0.0000)
  32 Li     3.490000    3.490000   10.000000    ( 0.0000,  0.0000,  0.0000)
  33 Li     5.235000    5.235000   11.745000    ( 0.0000,  0.0000,  0.0000)
  34 Li     3.490000    3.490000   13.490000    ( 0.0000,  0.0000,  0.0000)
  35 Li     5.235000    5.235000   15.235000    ( 0.0000,  0.0000,  0.0000)
  36 Li     3.517430    3.462554   16.914394    ( 0.0000,  0.0000,  0.0000)
  37 Li     5.206706    5.235000   18.642977    ( 0.0000,  0.0000,  0.0000)
  38 Li     3.615179    3.364810   20.323135    ( 0.0000,  0.0000,  0.0000)
  39 Li     4.842394    5.235000   22.334151    ( 0.0000,  0.0000,  0.0000)
  40 Li     3.490000    6.980000   10.000000    ( 0.0000,  0.0000,  0.0000)
  41 Li     5.235000    8.725000   11.745000    ( 0.0000,  0.0000,  0.0000)
  42 Li     3.490000    6.980000   13.490000    ( 0.0000,  0.0000,  0.0000)
  43 Li     5.235000    8.725000   15.235000    ( 0.0000,  0.0000,  0.0000)
  44 Li     3.517430    7.007446   16.914394    ( 0.0000,  0.0000,  0.0000)
  45 Li     5.307227    8.797222   18.619905    ( 0.0000,  0.0000,  0.0000)
  46 Li     3.615179    7.105190   20.323135    ( 0.0000,  0.0000,  0.0000)
  47 Li     5.245340    8.735349   22.286368    ( 0.0000,  0.0000,  0.0000)
  48 Li     6.980000    0.000000   10.000000    ( 0.0000,  0.0000,  0.0000)
  49 Li     8.725000    1.745000   11.745000    ( 0.0000,  0.0000,  0.0000)
  50 Li     6.980000    0.000000   13.490000    ( 0.0000,  0.0000,  0.0000)
  51 Li     8.725000    1.745000   15.235000    ( 0.0000,  0.0000,  0.0000)
  52 Li     6.980005   -0.000000   16.810676    ( 0.0000,  0.0000,  0.0000)
  53 Li     8.652783    1.672766   18.619902    ( 0.0000,  0.0000,  0.0000)
  54 Li     6.980001   -0.000000   20.483372    ( 0.0000,  0.0000,  0.0000)
  55 Li     8.714647    1.734653   22.286370    ( 0.0000,  0.0000,  0.0000)
  56 Li     6.980000    3.490000   10.000000    ( 0.0000,  0.0000,  0.0000)
  57 Li     8.725000    5.235000   11.745000    ( 0.0000,  0.0000,  0.0000)
  58 Li     6.980000    3.490000   13.490000    ( 0.0000,  0.0000,  0.0000)
  59 Li     8.725000    5.235000   15.235000    ( 0.0000,  0.0000,  0.0000)
  60 Li     6.980003    3.515937   16.946283    ( 0.0000,  0.0000,  0.0000)
  61 Li     8.753282    5.235000   18.642982    ( 0.0000,  0.0000,  0.0000)
  62 Li     6.980002    3.560630   20.485711    ( 0.0000,  0.0000,  0.0000)
  63 Li     9.117621    5.235000   22.334155    ( 0.0000,  0.0000,  0.0000)
  64 Li     6.980000    6.980000   10.000000    ( 0.0000,  0.0000,  0.0000)
  65 Li     8.725000    8.725000   11.745000    ( 0.0000,  0.0000,  0.0000)
  66 Li     6.980000    6.980000   13.490000    ( 0.0000,  0.0000,  0.0000)
  67 Li     8.725000    8.725000   15.235000    ( 0.0000,  0.0000,  0.0000)
  68 Li     6.980003    6.954063   16.946283    ( 0.0000,  0.0000,  0.0000)
  69 Li     8.652783    8.797234   18.619902    ( 0.0000,  0.0000,  0.0000)
  70 Li     6.980002    6.909370   20.485711    ( 0.0000,  0.0000,  0.0000)
  71 Li     8.714647    8.735347   22.286370    ( 0.0000,  0.0000,  0.0000)
  72 Li     1.744999    5.235000   23.980654    ( 0.0000,  0.0000,  0.0000)

Unit cell:
           periodic     x           y           z      points  spacing
  1. axis:    yes   10.470000    0.000000    0.000000    35     0.2991
  2. axis:    yes    0.000000   10.470000    0.000000    35     0.2991
  3. axis:    no     0.000000    0.000000   32.215000   108     0.2983

  Lengths:  10.470000  10.470000  32.215000
  Angles:   90.000000  90.000000  90.000000

Effective grid spacing dv^(1/3) = 0.2989

     iter     time        total  log10-change:
                         energy   eigst   dens
iter:   1 00:30:03  -137.621754
iter:   2 00:30:06  -133.231234   -0.74  -0.65
iter:   3 00:30:09  -132.813661   -1.23  -0.85
iter:   4 00:30:11  -132.857145   -1.56  -0.90
iter:   5 00:30:14  -131.885908   -1.77  -0.89
iter:   6 00:30:17  -132.222033   -1.35  -1.09
iter:   7 00:30:20  -131.525253   -2.20  -1.05
iter:   8 00:30:22  -131.594680   -1.56  -1.25
iter:   9 00:30:25  -131.373424   -2.61  -1.30
iter:  10 00:30:28  -131.374420   -2.74  -1.54
iter:  11 00:30:31  -131.373871c  -3.02  -1.59
iter:  12 00:30:33  -131.367054c  -3.21  -1.63
iter:  13 00:30:36  -131.400265c  -2.72  -1.71
iter:  14 00:30:38  -131.364861c  -3.50  -1.70
iter:  15 00:30:41  -131.361600   -3.28  -1.99
iter:  16 00:30:43  -131.361690c  -3.41  -2.26
iter:  17 00:30:45  -131.354885c  -3.86  -2.08
iter:  18 00:30:48  -131.356322c  -4.13  -2.55
iter:  19 00:30:50  -131.357835c  -4.28  -2.55
iter:  20 00:30:53  -131.354078c  -4.05  -2.42
iter:  21 00:30:55  -131.354338c  -5.05  -2.69
iter:  22 00:30:58  -131.355236c  -4.55  -2.83
iter:  23 00:31:00  -131.354191c  -4.80  -2.78
iter:  24 00:31:03  -131.353602c  -4.85  -2.98
iter:  25 00:31:05  -131.353674c  -5.18  -2.84
iter:  26 00:31:07  -131.354157c  -4.79  -3.00
iter:  27 00:31:10  -131.353506c  -5.21  -3.03
iter:  28 00:31:12  -131.353557c  -5.85c -3.33
iter:  29 00:31:15  -131.353766c  -5.47c -3.44
iter:  30 00:31:17  -131.353621c  -5.72c -3.41
iter:  31 00:31:19  -131.353460c  -5.43c -3.59
iter:  32 00:31:22  -131.353517c  -5.83c -3.59
iter:  33 00:31:24  -131.353596c  -5.56c -3.82
iter:  34 00:31:26  -131.353461c  -5.53c -3.67
iter:  35 00:31:28  -131.353423c  -5.84c -4.01c

Converged after 35 iterations.

Dipole moment: (2.864165, 0.000000, 0.276574) |e|*Ang

Energy contributions relative to reference atoms: (reference = -14803.510878)

Kinetic:       +102.281964
Potential:      -91.968235
External:        +0.000000
XC:            -140.574301
Entropy (-ST):   -1.210007
Local:           -0.487847
SIC:             +0.000000
--------------------------
Free energy:   -131.958426
Extrapolated:  -131.353423

 Band  Eigenvalues  Occupancy
    0     -4.74338    2.00000
    1     -4.41337    2.00000
    2     -4.23154    2.00000
    3     -4.21792    2.00000
    4     -3.91508    2.00000
    5     -3.87629    2.00000
    6     -3.85088    2.00000
    7     -3.70913    2.00000
    8     -3.38821    2.00000
    9     -3.35152    2.00000
   10     -3.31208    2.00000
   11     -3.18599    2.00000
   12     -3.16811    2.00000
   13     -3.11326    2.00000
   14     -2.86765    2.00000
   15     -2.83196    2.00000
   16     -2.81303    2.00000
   17     -2.68826    1.99999
   18     -2.67929    1.99999
   19     -2.64060    1.99999
   20     -2.55545    1.99997
   21     -2.36477    1.99981
   22     -2.34964    1.99977
   23     -2.32215    1.99970
   24     -2.28689    1.99958
   25     -2.24659    1.99937
   26     -2.05261    1.99560
   27     -1.81291    1.95270
   28     -1.80911    1.95091
   29     -1.77385    1.93087
   30     -1.75175    1.91451
   31     -1.67924    1.83115
   32     -1.67626    1.82648
   33     -1.61903    1.71178
   34     -1.58297    1.61099
   35     -1.56749    1.56018
   36     -1.38626    0.73354
   37     -1.34493    0.55400
   38     -1.31239    0.43345
   39     -1.30492    0.40865
   40     -1.19550    0.15833
   41     -1.17083    0.12590
   42     -1.16984    0.12474
   43     -1.08395    0.05481
   44     -1.07316    0.04934
   45     -1.06613    0.04607
   46     -0.96197    0.01650
   47     -0.92408    0.01133

Fermi level: -1.44087

Gap: 0.181 eV
Transition (v -> c):
  (s=0, k=0, n=35, [0.25, 0.25, 0.00]) -> (s=0, k=0, n=36, [0.25, 0.25, 0.00])
No difference between direct/indirect transitions

Forces in eV/Ang:
  0 Li    0.00344    0.00000   -0.02896
  1 Li   -0.00000   -0.00183    0.06145
  2 Li    0.00016    0.00000    0.02952
  3 Li    0.00000    0.00836   -0.03059
  4 Li   -0.01212    0.00000    0.00633
  5 Li    0.00000   -0.00612    0.01097
  6 Li   -0.00311    0.00000   -0.01330
  7 Li   -0.00000   -0.00268   -0.01791
  8 Li   -0.00086   -0.00086   -0.03353
  9 Li   -0.00000    0.00000    0.06341
 10 Li    0.00153    0.00153    0.00582
 11 Li   -0.00000    0.00000   -0.00585
 12 Li   -0.00314   -0.00312    0.00952
 13 Li   -0.00001    0.00000   -0.01770
 14 Li   -0.00430   -0.00429   -0.02322
 15 Li   -0.00001    0.00000   -0.04755
 16 Li   -0.00086    0.00086   -0.03353
 17 Li   -0.00000    0.00183    0.06145
 18 Li    0.00153   -0.00153    0.00582
 19 Li    0.00000   -0.00836   -0.03059
 20 Li   -0.00314    0.00312    0.00952
 21 Li    0.00000    0.00612    0.01097
 22 Li   -0.00430    0.00429   -0.02322
 23 Li   -0.00000    0.00268   -0.01791
 24 Li   -0.00344    0.00000   -0.02896
 25 Li   -0.00186    0.00186    0.05932
 26 Li   -0.00016    0.00000    0.02951
 27 Li   -0.00314    0.00314   -0.04669
 28 Li    0.01212    0.00000    0.00632
 29 Li    0.00091   -0.00092    0.01305
 30 Li    0.00311    0.00000   -0.01331
 31 Li   -0.00725    0.00726   -0.00454
 32 Li    0.00086   -0.00086   -0.03353
 33 Li    0.00183    0.00000    0.06145
 34 Li   -0.00153    0.00153    0.00581
 35 Li   -0.00837    0.00000   -0.03058
 36 Li    0.00314   -0.00313    0.00952
 37 Li    0.00613    0.00000    0.01099
 38 Li    0.00430   -0.00429   -0.02322
 39 Li    0.00268    0.00000   -0.01792
 40 Li    0.00086    0.00086   -0.03353
 41 Li   -0.00186   -0.00186    0.05932
 42 Li   -0.00153   -0.00153    0.00581
 43 Li   -0.00314   -0.00314   -0.04669
 44 Li    0.00314    0.00313    0.00952
 45 Li    0.00091    0.00092    0.01305
 46 Li    0.00430    0.00429   -0.02322
 47 Li   -0.00725   -0.00726   -0.00454
 48 Li    0.00000    0.00000   -0.03013
 49 Li    0.00186    0.00186    0.05932
 50 Li    0.00000    0.00000    0.00200
 51 Li    0.00314    0.00314   -0.04669
 52 Li   -0.00001    0.00000    0.04050
 53 Li   -0.00091   -0.00090    0.01305
 54 Li   -0.00000    0.00000    0.00761
 55 Li    0.00726    0.00725   -0.00454
 56 Li    0.00000    0.00343   -0.02896
 57 Li   -0.00183    0.00000    0.06145
 58 Li    0.00000    0.00016    0.02952
 59 Li    0.00836    0.00000   -0.03058
 60 Li   -0.00000   -0.01211    0.00632
 61 Li   -0.00612    0.00000    0.01098
 62 Li   -0.00000   -0.00309   -0.01330
 63 Li   -0.00269    0.00000   -0.01792
 64 Li    0.00000   -0.00343   -0.02896
 65 Li    0.00186   -0.00186    0.05932
 66 Li    0.00000   -0.00016    0.02952
 67 Li    0.00314   -0.00314   -0.04669
 68 Li   -0.00000    0.01211    0.00632
 69 Li   -0.00091    0.00090    0.01305
 70 Li   -0.00000    0.00309   -0.01330
 71 Li    0.00726   -0.00725   -0.00454
 72 Li   -0.00000    0.00000    0.00067

Timing:                              incl.     excl.
-----------------------------------------------------------
Forces:                              2.769     2.769   0.0% |
Hamiltonian:                         1.472     0.005   0.0% |
 Atomic:                             0.724     0.003   0.0% |
  XC Correction:                     0.722     0.722   0.0% |
 Calculate atomic Hamiltonians:      0.481     0.481   0.0% |
 Communicate:                        0.000     0.000   0.0% |
 Initialize Hamiltonian:             0.000     0.000   0.0% |
 Poisson:                            0.006     0.006   0.0% |
 XC 3D grid:                         0.255     0.255   0.0% |
LCAO initialization:                 6.712     0.006   0.0% |
 LCAO eigensolver:                   0.397     0.000   0.0% |
  Calculate projections:             0.002     0.002   0.0% |
  DenseAtomicCorrection:             0.026     0.026   0.0% |
  Distribute overlap matrix:         0.000     0.000   0.0% |
  Orbital Layouts:                   0.043     0.043   0.0% |
  Potential matrix:                  0.324     0.324   0.0% |
  Sum over cells:                    0.002     0.002   0.0% |
 LCAO to grid:                       5.711     5.711   0.1% |
 Set positions (LCAO WFS):           0.598     0.167   0.0% |
  Basic WFS set positions:           0.002     0.002   0.0% |
  Basis functions set positions:     0.000     0.000   0.0% |
  P tci:                             0.256     0.256   0.0% |
  ST tci:                            0.153     0.153   0.0% |
  mktci:                             0.021     0.021   0.0% |
PWDescriptor:                        0.005     0.005   0.0% |
SCF-cycle:                          86.787     0.017   0.0% |
 Davidson:                          32.675     6.379   0.1% |
  Apply H:                           5.691     5.629   0.1% |
   HMM T:                            0.062     0.062   0.0% |
  Subspace diag:                     6.341     0.003   0.0% |
   calc_h_matrix:                    5.854     0.359   0.0% |
    Apply H:                         5.496     5.436   0.1% |
     HMM T:                          0.059     0.059   0.0% |
   diagonalize:                      0.026     0.026   0.0% |
   rotate_psi:                       0.458     0.458   0.0% |
  calc. matrices:                   13.120     1.769   0.0% |
   Apply H:                         11.350    11.229   0.1% |
    HMM T:                           0.121     0.121   0.0% |
  diagonalize:                       0.196     0.196   0.0% |
  rotate_psi:                        0.948     0.948   0.0% |
 Density:                           14.460     0.000   0.0% |
  Atomic density matrices:           0.078     0.078   0.0% |
  Mix:                              11.270    11.270   0.1% |
  Multipole moments:                 0.020     0.020   0.0% |
  Pseudo density:                    3.092     3.027   0.0% |
   Symmetrize density:               0.064     0.064   0.0% |
 Hamiltonian:                       39.571     0.062   0.0% |
  Atomic:                           21.435     0.079   0.0% |
   XC Correction:                   21.355    21.355   0.2% |
  Calculate atomic Hamiltonians:    12.952    12.952   0.1% |
  Communicate:                       0.000     0.000   0.0% |
  Poisson:                           0.038     0.038   0.0% |
  XC 3D grid:                        5.084     5.084   0.0% |
 Orthonormalize:                     0.063     0.000   0.0% |
  calc_s_matrix:                     0.008     0.008   0.0% |
  inverse-cholesky:                  0.000     0.000   0.0% |
  projections:                       0.045     0.045   0.0% |
  rotate_psi_s:                      0.010     0.010   0.0% |
Set symmetry:                        0.001     0.001   0.0% |
Other:                           10654.457 10654.457  99.1% |---------------------------------------|
-----------------------------------------------------------
Total:                                     10752.203 100.0%

Memory usage: 4.13 GiB
Date: Tue Nov 25 03:13:44 2025
