
  ___ ___ ___ _ _ _  
 |   |   |_  | | | | 
 | | | | | . | | | | 
 |__ |  _|___|_____|  25.7.0
 |___|_|             

User:   tew@Mathuss-MacBook-Air-357.local
Date:   Mon Nov 24 18:22:24 2025
Arch:   arm64
Pid:    76608
CWD:    /Users/tew/Documents/Project/GitHub/chem-com
Python: 3.13.5
gpaw:   /Users/tew/Documents/Project/GitHub/chem-com/.venv/lib/python3.13/site-packages/gpaw
_gpaw:  /Users/tew/Documents/Project/GitHub/chem-com/.venv/lib/python3.13/site-packages/
        _gpaw.cpython-313-darwin.so
ase:    /Users/tew/Documents/Project/GitHub/chem-com/.venv/lib/python3.13/site-packages/ase (version 3.26.0)
numpy:  /Users/tew/Documents/Project/GitHub/chem-com/.venv/lib/python3.13/site-packages/numpy (version 2.3.5)
scipy:  /Users/tew/Documents/Project/GitHub/chem-com/.venv/lib/python3.13/site-packages/scipy (version 1.16.3)
libxc:  2.x.y
units:  Angstrom and eV
cores: 1
OpenMP: False
OMP_NUM_THREADS: 1

Input parameters:
  convergence: {density: 0.0001,
                eigenstates: 5e-06}
  kpts: [2 2 1]
  mode: {ecut: 200.0,
         name: pw}
  xc: PBE

System changes: positions, numbers, cell, pbc, initial_charges, initial_magmoms 

Initialize ...

species:
  Li:
    name: Lithium
    id: 830b4218f175192f93f959cfc0aad614
    Z: 3.0
    valence: 1
    core: 2
    charge: 0.0
    file: /Users/tew/Documents/Project/GitHub/chem-com/.venv/lib/python3.13/site-packages/gpaw_data/setups/Li.PBE.gz
    compensation charges: {type: gauss,
                           rc: 0.33,
                           lmax: 2}
    cutoffs: {filter: 1.91,
              core: 2.55}
    projectors:
      #              energy  rcut
      - 2s(1.00)    -2.874   1.058
      - 2p(0.00)    -1.090   1.058
      -  s          24.337   1.058
  
    # Using partial waves for Li as LCAO basis

Reference energy: -14803.510878  # eV

Spin-paired calculation

Convergence criteria:
 Maximum [total energy] change in last 3 cyles: 0.0005 eV / valence electron
 Maximum integral of absolute [dens]ity change: 0.0001 electrons / valence electron
 Maximum integral of absolute [eigenst]ate change: 5e-06 eV^2 / valence electron
 Maximum number of scf [iter]ations: 333
 (Square brackets indicate name in SCF output, whereas a 'c' in
 the SCF output indicates the quantity has converged.)

Symmetries present (total): 1

  ( 1  0  0)
  ( 0  1  0)
  ( 0  0  1)

4 k-points: 2 x 2 x 1 Monkhorst-Pack grid
2 k-points in the irreducible part of the Brillouin zone
       k-points in crystal coordinates                weights
   0:     0.25000000   -0.25000000    0.00000000          2/4
   1:     0.25000000    0.25000000    0.00000000          2/4

Wave functions: Plane wave expansion
  Cutoff energy: 200.000 eV
  Number of coefficients (min, max): 33010, 33019
  Pulay-stress correction: 0.000000 eV/Ang^3 (de/decut=0.000000)
  Using Numpy's FFT
  ScaLapack parameters: grid=1x1, blocksize=None
  Wavefunction extrapolation:
    Improved wavefunction reuse through dual PAW basis 

Occupation numbers: Fermi-Dirac:
  width: 0.1000  # eV
 

Eigensolver
   Davidson(niter=2) 

Densities:
  Coarse grid: 49*49*90 grid
  Fine grid: 98*98*180 grid
  Total Charge: 0.000000 

Density mixing:
  Method: separate
  Backend: pulay
  Linear mixing parameter: 0.05
  old densities: 5
  Damping of long wavelength oscillations: 50 

Hamiltonian:
  XC and Coulomb potentials evaluated on a 98*98*180 grid
  Using the PBE Exchange-Correlation functional
  External potential:
    NoExternalPotential
 

XC parameters: PBE with 2 nearest neighbor stencil

Memory estimate:
  Process memory now: 2373.62 MiB
  Calculator: 211.72 MiB
    Density: 94.25 MiB
      Arrays: 42.86 MiB
      Localized functions: 34.90 MiB
      Mixer: 16.49 MiB
    Hamiltonian: 28.74 MiB
      Arrays: 28.03 MiB
      XC: 0.00 MiB
      Poisson: 0.00 MiB
      vbar: 0.71 MiB
    Wavefunctions: 88.74 MiB
      Arrays psit_nG: 48.37 MiB
      Eigensolver: 27.06 MiB
      Projections: 0.53 MiB
      Projectors: 3.53 MiB
      PW-descriptor: 9.25 MiB

Total number of cores used: 1

Number of atoms: 73
Number of atomic orbitals: 292
Number of bands in calculation: 48
Number of valence electrons: 73
Bands to converge: occupied

... initialized

Initializing position-dependent things.

Density initialized from atomic densities
Creating initial wave functions:
  48 bands from LCAO basis set

                                                                       
                                                                       
                                                                       
                                                                       
                                                                       
                                                                       
                               Li          Li          Li              
                                                                       
                        Li            Li          Li          Li       
                 Li   Li           Lii        LiLi                     
                             LiLi        LiLi        LiLi              
                Li        LiLi        LiLi        Li          Li       
              Li        Li         Lii         Lii                     
       Li          LiLii       LiLi        LiLi        Li              
                Li          Lii         Lii          Li                
              Li        LiLi        LiLi        Li                     
                     Lii         Lii         LiLi                      
       Li          Li          Li                                      
              LiLi        LiLi        LiLi                             
                                                                       
       Li          Li          Li                                      
                                                                       
                                                                       
                                                                       
                                                                       

Atomic positions and initial magnetic moments

Positions:
   0 Li     0.000000    0.000000   10.000000    ( 0.0000,  0.0000,  0.0000)
   1 Li     2.467803    1.424787   11.007476    ( 0.0000,  0.0000,  0.0000)
   2 Li     4.935605    2.849573   12.014952    ( 0.0000,  0.0000,  0.0000)
   3 Li     0.000000    0.000000   13.022429    ( 0.0000,  0.0000,  0.0000)
   4 Li     2.462580    1.423068   13.725643    ( 0.0000,  0.0000,  0.0000)
   5 Li     4.924840    2.847468   15.037503    ( 0.0000,  0.0000,  0.0000)
   6 Li     0.001655   -0.001524   15.902712    ( 0.0000,  0.0000,  0.0000)
   7 Li     2.482685    1.415785   16.354727    ( 0.0000,  0.0000,  0.0000)
   8 Li     2.467803    4.274360   10.000000    ( 0.0000,  0.0000,  0.0000)
   9 Li     4.935605    5.699146   11.007476    ( 0.0000,  0.0000,  0.0000)
  10 Li     7.403408    7.123933   12.014952    ( 0.0000,  0.0000,  0.0000)
  11 Li     2.467803    4.274360   13.022429    ( 0.0000,  0.0000,  0.0000)
  12 Li     4.931397    5.704160   13.878750    ( 0.0000,  0.0000,  0.0000)
  13 Li     7.398593    7.119686   15.065978    ( 0.0000,  0.0000,  0.0000)
  14 Li     2.462943    4.273321   15.928630    ( 0.0000,  0.0000,  0.0000)
  15 Li     4.962960    5.672677   16.669209    ( 0.0000,  0.0000,  0.0000)
  16 Li     4.935605    8.548719   10.000000    ( 0.0000,  0.0000,  0.0000)
  17 Li     7.403408    9.973506   11.007476    ( 0.0000,  0.0000,  0.0000)
  18 Li     9.871211   11.398292   12.014952    ( 0.0000,  0.0000,  0.0000)
  19 Li     4.935605    8.548719   13.022429    ( 0.0000,  0.0000,  0.0000)
  20 Li     7.396403    9.973768   14.030170    ( 0.0000,  0.0000,  0.0000)
  21 Li     9.869741   11.401923   15.049065    ( 0.0000,  0.0000,  0.0000)
  22 Li     4.937330    8.543724   15.877796    ( 0.0000,  0.0000,  0.0000)
  23 Li     7.456594    9.944273   16.980981    ( 0.0000,  0.0000,  0.0000)
  24 Li     4.935605    0.000000   10.000000    ( 0.0000,  0.0000,  0.0000)
  25 Li     7.403408    1.424787   11.007476    ( 0.0000,  0.0000,  0.0000)
  26 Li     9.871211    2.849573   12.014952    ( 0.0000,  0.0000,  0.0000)
  27 Li     4.935605    0.000000   13.022429    ( 0.0000,  0.0000,  0.0000)
  28 Li     7.408191    1.418359   14.030663    ( 0.0000,  0.0000,  0.0000)
  29 Li     9.870258    2.848674   15.085887    ( 0.0000,  0.0000,  0.0000)
  30 Li     4.931091    0.007251   15.885541    ( 0.0000,  0.0000,  0.0000)
  31 Li     7.374803    1.455887   16.981974    ( 0.0000,  0.0000,  0.0000)
  32 Li     7.403408    4.274360   10.000000    ( 0.0000,  0.0000,  0.0000)
  33 Li     9.871211    5.699146   11.007476    ( 0.0000,  0.0000,  0.0000)
  34 Li    12.339013    7.123933   12.014952    ( 0.0000,  0.0000,  0.0000)
  35 Li     7.403408    4.274360   13.022429    ( 0.0000,  0.0000,  0.0000)
  36 Li     9.874145    5.697901   14.010892    ( 0.0000,  0.0000,  0.0000)
  37 Li    12.334008    7.122637   15.082743    ( 0.0000,  0.0000,  0.0000)
  38 Li     7.383851    4.264140   15.843333    ( 0.0000,  0.0000,  0.0000)
  39 Li     9.866760    5.718931   16.942379    ( 0.0000,  0.0000,  0.0000)
  40 Li     9.871211    8.548719   10.000000    ( 0.0000,  0.0000,  0.0000)
  41 Li    12.339013    9.973506   11.007476    ( 0.0000,  0.0000,  0.0000)
  42 Li    14.806816   11.398292   12.014952    ( 0.0000,  0.0000,  0.0000)
  43 Li     9.871211    8.548719   13.022429    ( 0.0000,  0.0000,  0.0000)
  44 Li    12.343428    9.968948   14.019267    ( 0.0000,  0.0000,  0.0000)
  45 Li    14.806535   11.391141   15.090949    ( 0.0000,  0.0000,  0.0000)
  46 Li     9.861488    8.562692   15.798059    ( 0.0000,  0.0000,  0.0000)
  47 Li    12.299085    9.956900   16.959500    ( 0.0000,  0.0000,  0.0000)
  48 Li     9.871211    0.000000   10.000000    ( 0.0000,  0.0000,  0.0000)
  49 Li    12.339013    1.424787   11.007476    ( 0.0000,  0.0000,  0.0000)
  50 Li    14.806816    2.849573   12.014952    ( 0.0000,  0.0000,  0.0000)
  51 Li     9.871211    0.000000   13.022429    ( 0.0000,  0.0000,  0.0000)
  52 Li    12.333285    1.421303   14.026671    ( 0.0000,  0.0000,  0.0000)
  53 Li    14.805483    2.845954   15.054260    ( 0.0000,  0.0000,  0.0000)
  54 Li     9.864994    0.003457   15.852516    ( 0.0000,  0.0000,  0.0000)
  55 Li    12.342650    1.466506   16.965510    ( 0.0000,  0.0000,  0.0000)
  56 Li    12.339013    4.274360   10.000000    ( 0.0000,  0.0000,  0.0000)
  57 Li    14.806816    5.699146   11.007476    ( 0.0000,  0.0000,  0.0000)
  58 Li    17.274619    7.123933   12.014952    ( 0.0000,  0.0000,  0.0000)
  59 Li    12.339013    4.274360   13.022429    ( 0.0000,  0.0000,  0.0000)
  60 Li    14.802333    5.703658   14.028692    ( 0.0000,  0.0000,  0.0000)
  61 Li    17.270606    7.127519   15.074710    ( 0.0000,  0.0000,  0.0000)
  62 Li    12.354222    4.268101   15.815867    ( 0.0000,  0.0000,  0.0000)
  63 Li    14.774950    5.693737   16.977922    ( 0.0000,  0.0000,  0.0000)
  64 Li    14.806816    8.548719   10.000000    ( 0.0000,  0.0000,  0.0000)
  65 Li    17.274619    9.973506   11.007476    ( 0.0000,  0.0000,  0.0000)
  66 Li    19.742421   11.398292   12.014952    ( 0.0000,  0.0000,  0.0000)
  67 Li    14.806816    8.548719   13.022429    ( 0.0000,  0.0000,  0.0000)
  68 Li    17.271937    9.975126   14.023122    ( 0.0000,  0.0000,  0.0000)
  69 Li    19.732703   11.397003   15.097067    ( 0.0000,  0.0000,  0.0000)
  70 Li    14.805780    8.538579   15.834120    ( 0.0000,  0.0000,  0.0000)
  71 Li    17.252596    9.957928   16.949515    ( 0.0000,  0.0000,  0.0000)
  72 Li     3.299441    2.852685   18.618480    ( 0.0000,  0.0000,  0.0000)

Unit cell:
           periodic     x           y           z      points  spacing
  1. axis:    yes   14.806816    0.000000    0.000000    49     0.2617
  2. axis:    yes    7.403408   12.823079    0.000000    49     0.2617
  3. axis:    no     0.000000    0.000000   27.052334    90     0.3006

  Lengths:  14.806816  14.806816  27.052334
  Angles:   90.000000  90.000000  60.000000

Effective grid spacing dv^(1/3) = 0.2875

     iter     time        total  log10-change:
                         energy   eigst   dens
iter:   1 18:26:41  -134.490450
iter:   2 18:26:47  -130.291850   -0.95  -0.52
iter:   3 18:26:53  -126.093140   -0.79  -0.63
iter:   4 18:27:00  -127.282721   -1.33  -0.89
iter:   5 18:27:06  -126.937816   -1.94  -0.85
iter:   6 18:27:13  -126.236304   -1.05  -0.87
iter:   7 18:27:19  -125.364093   -2.04  -1.02
iter:   8 18:27:25  -125.403162   -2.43  -1.40
iter:   9 18:27:31  -125.431912   -2.55  -1.46
iter:  10 18:27:36  -125.392706   -2.99  -1.48
iter:  11 18:27:42  -125.401179   -3.06  -1.71
iter:  12 18:27:48  -125.403268c  -3.49  -1.92
iter:  13 18:27:54  -125.392745c  -3.55  -2.04
iter:  14 18:27:59  -125.392974c  -4.13  -2.30
iter:  15 18:28:05  -125.395819c  -3.95  -2.37
iter:  16 18:28:10  -125.392596c  -4.26  -2.38
iter:  17 18:28:16  -125.392211c  -4.51  -2.74
iter:  18 18:28:22  -125.392302c  -4.81  -2.84
iter:  19 18:28:27  -125.392315c  -4.78  -2.96
iter:  20 18:28:33  -125.392161c  -5.06  -3.14
iter:  21 18:28:39  -125.392027c  -5.17  -3.25
iter:  22 18:28:44  -125.391962c  -5.22  -3.33
iter:  23 18:28:50  -125.391929c  -5.34c -3.42
iter:  24 18:28:55  -125.391897c  -5.57c -3.62
iter:  25 18:29:01  -125.391847c  -5.56c -3.73
iter:  26 18:29:06  -125.391783c  -5.42c -3.78
iter:  27 18:29:12  -125.391741c  -5.61c -3.96
iter:  28 18:29:17  -125.391708c  -5.76c -4.13c

Converged after 28 iterations.

Dipole moment: (-9.678109, -4.846988, 0.259788) |e|*Ang

Energy contributions relative to reference atoms: (reference = -14803.510878)

Kinetic:        +99.508656
Potential:      -89.208614
External:        +0.000000
XC:            -134.656168
Entropy (-ST):   -1.150515
Local:           -0.460324
SIC:             +0.000000
--------------------------
Free energy:   -125.966965
Extrapolated:  -125.391708

Showing all kpts
 Kpt  Band  Eigenvalues  Occupancy
  0    34     -1.83754    1.13728
  0    35     -1.78181    0.86042
  0    36     -1.76669    0.78723
  0    37     -1.73016    0.62114

  1    34     -1.94939    1.60272
  1    35     -1.94662    1.59383
  1    36     -1.85402    1.21704
  1    37     -1.75394    0.72723


Fermi level: -1.80991

No gap
No difference between direct/indirect transitions

Forces in eV/Ang:
  0 Li   -0.00059   -0.00133    0.06310
  1 Li   -0.00328   -0.00578   -0.03641
  2 Li    0.00834    0.00278   -0.07664
  3 Li   -0.01055   -0.00252   -0.10598
  4 Li   -0.01353   -0.02341    0.02563
  5 Li   -0.04216    0.01050    0.09032
  6 Li   -0.06030   -0.03921   -0.05144
  7 Li   -0.07434   -0.05985    0.12527
  8 Li   -0.00437    0.00462    0.07531
  9 Li    0.00309    0.00859    0.09260
 10 Li    0.00636    0.00370   -0.07732
 11 Li   -0.01355    0.01399   -0.09278
 12 Li    0.00619    0.01904    0.04918
 13 Li   -0.00502   -0.00634   -0.02610
 14 Li   -0.01793    0.00926   -0.00970
 15 Li   -0.07357   -0.04706    0.22987
 16 Li   -0.00031   -0.00207    0.04677
 17 Li    0.00271    0.00153    0.18446
 18 Li    0.00360   -0.01769   -0.09582
 19 Li   -0.00611    0.01164   -0.14975
 20 Li   -0.00104    0.00143    0.03829
 21 Li   -0.00040   -0.01047   -0.05121
 22 Li    0.00972    0.04107   -0.05344
 23 Li   -0.01327   -0.00063   -0.02190
 24 Li    0.00001   -0.00500    0.06421
 25 Li    0.00536   -0.00487    0.18134
 26 Li    0.00324   -0.00035   -0.05826
 27 Li    0.00939   -0.00516   -0.11095
 28 Li    0.01039   -0.00683    0.02376
 29 Li   -0.00468    0.00318   -0.00163
 30 Li    0.05093   -0.00989    0.01307
 31 Li   -0.01761   -0.00369    0.00382
 32 Li   -0.00135    0.00032    0.04880
 33 Li   -0.00140   -0.00193    0.18135
 34 Li    0.00559    0.00135   -0.05503
 35 Li    0.00154   -0.00722   -0.16166
 36 Li   -0.00123   -0.00098    0.03563
 37 Li   -0.00064   -0.00385   -0.00258
 38 Li    0.06404   -0.01745   -0.02984
 39 Li    0.00815   -0.00274   -0.00881
 40 Li   -0.00214    0.00568    0.03447
 41 Li   -0.00027    0.00323    0.18369
 42 Li    0.00515   -0.00065   -0.05848
 43 Li    0.00016    0.00209   -0.21470
 44 Li    0.00216    0.00375    0.03584
 45 Li   -0.00826    0.00363   -0.00617
 46 Li    0.01083   -0.02137    0.00443
 47 Li    0.01314   -0.00346   -0.01073
 48 Li   -0.00109    0.00057    0.04014
 49 Li    0.00073    0.00146    0.18201
 50 Li   -0.01066    0.00836   -0.08406
 51 Li   -0.00112   -0.00381   -0.17754
 52 Li   -0.00214   -0.00185    0.03489
 53 Li    0.01164    0.00299   -0.01225
 54 Li   -0.00701    0.00973   -0.00155
 55 Li   -0.01447   -0.00879   -0.00647
 56 Li    0.00345   -0.00348    0.03703
 57 Li   -0.00276    0.00413    0.18163
 58 Li   -0.00470    0.01073   -0.07584
 59 Li    0.00217   -0.00219   -0.19965
 60 Li    0.00106    0.00544    0.02245
 61 Li    0.00825   -0.01016   -0.02751
 62 Li   -0.02876    0.02262   -0.00104
 63 Li    0.04905   -0.02932    0.01799
 64 Li    0.00016   -0.00236    0.04155
 65 Li   -0.00217   -0.00179    0.18231
 66 Li   -0.00094    0.00146   -0.05622
 67 Li    0.00431    0.00060   -0.18911
 68 Li   -0.00091    0.00011    0.02991
 69 Li    0.00546    0.00077   -0.00049
 70 Li   -0.02211    0.00105   -0.00110
 71 Li   -0.00036    0.00996    0.00220
 72 Li    0.16067    0.14414   -0.20235

System changes: positions 

Initializing position-dependent things.

Density initialized from wave functions
                                                                       
                                                                       
                                                                       
                                                                       
                                                                       
                                                                       
                               Li          Li          Li              
                                                                       
                        Li            Li          Li          Li       
                 Li   Li           Lii        LiLi                     
                             LiLi        LiLi        LiLi              
                Li        LiLi        LiLi        Li          Li       
              Li        Li         Lii         Lii                     
       Li          LiLii       LiLi        LiLi        Li              
                Li          Lii         Lii          Li                
              Li        LiLi        LiLi        Li                     
                     Lii         Lii         LiLi                      
       Li          Li          Li                                      
              LiLi        LiLi        LiLi                             
                                                                       
       Li          Li          Li                                      
                                                                       
                                                                       
                                                                       
                                                                       

Atomic positions and initial magnetic moments

Positions:
   0 Li     0.000000    0.000000   10.000000    ( 0.0000,  0.0000,  0.0000)
   1 Li     2.467803    1.424787   11.007476    ( 0.0000,  0.0000,  0.0000)
   2 Li     4.935605    2.849573   12.014952    ( 0.0000,  0.0000,  0.0000)
   3 Li     0.000000    0.000000   13.022429    ( 0.0000,  0.0000,  0.0000)
   4 Li     2.462446    1.422834   13.725745    ( 0.0000,  0.0000,  0.0000)
   5 Li     4.924413    2.847566   15.038407    ( 0.0000,  0.0000,  0.0000)
   6 Li     0.001050   -0.001915   15.902222    ( 0.0000,  0.0000,  0.0000)
   7 Li     2.481921    1.415192   16.355662    ( 0.0000,  0.0000,  0.0000)
   8 Li     2.467803    4.274360   10.000000    ( 0.0000,  0.0000,  0.0000)
   9 Li     4.935605    5.699146   11.007476    ( 0.0000,  0.0000,  0.0000)
  10 Li     7.403408    7.123933   12.014952    ( 0.0000,  0.0000,  0.0000)
  11 Li     2.467803    4.274360   13.022429    ( 0.0000,  0.0000,  0.0000)
  12 Li     4.931458    5.704352   13.879396    ( 0.0000,  0.0000,  0.0000)
  13 Li     7.398546    7.119623   15.065732    ( 0.0000,  0.0000,  0.0000)
  14 Li     2.462761    4.273411   15.928533    ( 0.0000,  0.0000,  0.0000)
  15 Li     4.962240    5.672192   16.671825    ( 0.0000,  0.0000,  0.0000)
  16 Li     4.935605    8.548719   10.000000    ( 0.0000,  0.0000,  0.0000)
  17 Li     7.403408    9.973506   11.007476    ( 0.0000,  0.0000,  0.0000)
  18 Li     9.871211   11.398292   12.014952    ( 0.0000,  0.0000,  0.0000)
  19 Li     4.935605    8.548719   13.022429    ( 0.0000,  0.0000,  0.0000)
  20 Li     7.396391    9.973778   14.030553    ( 0.0000,  0.0000,  0.0000)
  21 Li     9.869736   11.401821   15.048537    ( 0.0000,  0.0000,  0.0000)
  22 Li     4.937430    8.544133   15.877236    ( 0.0000,  0.0000,  0.0000)
  23 Li     7.456465    9.944272   16.980762    ( 0.0000,  0.0000,  0.0000)
  24 Li     4.935605    0.000000   10.000000    ( 0.0000,  0.0000,  0.0000)
  25 Li     7.403408    1.424787   11.007476    ( 0.0000,  0.0000,  0.0000)
  26 Li     9.871211    2.849573   12.014952    ( 0.0000,  0.0000,  0.0000)
  27 Li     4.935605    0.000000   13.022429    ( 0.0000,  0.0000,  0.0000)
  28 Li     7.408294    1.418288   14.030901    ( 0.0000,  0.0000,  0.0000)
  29 Li     9.870207    2.848707   15.085865    ( 0.0000,  0.0000,  0.0000)
  30 Li     4.931599    0.007141   15.885716    ( 0.0000,  0.0000,  0.0000)
  31 Li     7.374642    1.455876   16.982013    ( 0.0000,  0.0000,  0.0000)
  32 Li     7.403408    4.274360   10.000000    ( 0.0000,  0.0000,  0.0000)
  33 Li     9.871211    5.699146   11.007476    ( 0.0000,  0.0000,  0.0000)
  34 Li    12.339013    7.123933   12.014952    ( 0.0000,  0.0000,  0.0000)
  35 Li     7.403408    4.274360   13.022429    ( 0.0000,  0.0000,  0.0000)
  36 Li     9.874131    5.697893   14.011238    ( 0.0000,  0.0000,  0.0000)
  37 Li    12.334000    7.122596   15.082717    ( 0.0000,  0.0000,  0.0000)
  38 Li     7.384483    4.263960   15.842991    ( 0.0000,  0.0000,  0.0000)
  39 Li     9.866845    5.718883   16.942272    ( 0.0000,  0.0000,  0.0000)
  40 Li     9.871211    8.548719   10.000000    ( 0.0000,  0.0000,  0.0000)
  41 Li    12.339013    9.973506   11.007476    ( 0.0000,  0.0000,  0.0000)
  42 Li    14.806816   11.398292   12.014952    ( 0.0000,  0.0000,  0.0000)
  43 Li     9.871211    8.548719   13.022429    ( 0.0000,  0.0000,  0.0000)
  44 Li    12.343451    9.968984   14.019635    ( 0.0000,  0.0000,  0.0000)
  45 Li    14.806454   11.391174   15.090892    ( 0.0000,  0.0000,  0.0000)
  46 Li     9.861605    8.562493   15.798102    ( 0.0000,  0.0000,  0.0000)
  47 Li    12.299196    9.956857   16.959411    ( 0.0000,  0.0000,  0.0000)
  48 Li     9.871211    0.000000   10.000000    ( 0.0000,  0.0000,  0.0000)
  49 Li    12.339013    1.424787   11.007476    ( 0.0000,  0.0000,  0.0000)
  50 Li    14.806816    2.849573   12.014952    ( 0.0000,  0.0000,  0.0000)
  51 Li     9.871211    0.000000   13.022429    ( 0.0000,  0.0000,  0.0000)
  52 Li    12.333262    1.421282   14.027023    ( 0.0000,  0.0000,  0.0000)
  53 Li    14.805604    2.845983   15.054116    ( 0.0000,  0.0000,  0.0000)
  54 Li     9.864926    0.003558   15.852500    ( 0.0000,  0.0000,  0.0000)
  55 Li    12.342509    1.466438   16.965461    ( 0.0000,  0.0000,  0.0000)
  56 Li    12.339013    4.274360   10.000000    ( 0.0000,  0.0000,  0.0000)
  57 Li    14.806816    5.699146   11.007476    ( 0.0000,  0.0000,  0.0000)
  58 Li    17.274619    7.123933   12.014952    ( 0.0000,  0.0000,  0.0000)
  59 Li    12.339013    4.274360   13.022429    ( 0.0000,  0.0000,  0.0000)
  60 Li    14.802345    5.703716   14.028916    ( 0.0000,  0.0000,  0.0000)
  61 Li    17.270684    7.127421   15.074456    ( 0.0000,  0.0000,  0.0000)
  62 Li    12.353943    4.268318   15.815838    ( 0.0000,  0.0000,  0.0000)
  63 Li    14.775421    5.693409   16.978101    ( 0.0000,  0.0000,  0.0000)
  64 Li    14.806816    8.548719   10.000000    ( 0.0000,  0.0000,  0.0000)
  65 Li    17.274619    9.973506   11.007476    ( 0.0000,  0.0000,  0.0000)
  66 Li    19.742421   11.398292   12.014952    ( 0.0000,  0.0000,  0.0000)
  67 Li    14.806816    8.548719   13.022429    ( 0.0000,  0.0000,  0.0000)
  68 Li    17.271927    9.975123   14.023418    ( 0.0000,  0.0000,  0.0000)
  69 Li    19.732755   11.397005   15.097063    ( 0.0000,  0.0000,  0.0000)
  70 Li    14.805545    8.538592   15.834127    ( 0.0000,  0.0000,  0.0000)
  71 Li    17.252607    9.958039   16.949522    ( 0.0000,  0.0000,  0.0000)
  72 Li     3.300217    2.852687   18.616456    ( 0.0000,  0.0000,  0.0000)

Unit cell:
           periodic     x           y           z      points  spacing
  1. axis:    yes   14.806816    0.000000    0.000000    49     0.2617
  2. axis:    yes    7.403408   12.823079    0.000000    49     0.2617
  3. axis:    no     0.000000    0.000000   27.052334    90     0.3006

  Lengths:  14.806816  14.806816  27.052334
  Angles:   90.000000  90.000000  60.000000

Effective grid spacing dv^(1/3) = 0.2875

     iter     time        total  log10-change:
                         energy   eigst   dens
iter:   1 18:48:51  -125.393983   -4.94
iter:   2 18:48:58  -125.393736   -5.16  -2.86
iter:   3 18:49:04  -125.393629c  -5.33c -3.31
iter:   4 18:49:10  -125.393532c  -5.59c -3.50
iter:   5 18:49:17  -125.393473c  -5.51c -3.72
iter:   6 18:49:23  -125.393455c  -5.48c -3.59
iter:   7 18:49:29  -125.393448c  -6.01c -3.99
iter:   8 18:49:35  -125.393414c  -5.61c -3.97
iter:   9 18:49:42  -125.393400c  -6.12c -4.39c

Converged after 9 iterations.

Dipole moment: (-9.663066, -4.842853, 0.259472) |e|*Ang

Energy contributions relative to reference atoms: (reference = -14803.510878)

Kinetic:        +99.526109
Potential:      -89.227040
External:        +0.000000
XC:            -134.658502
Entropy (-ST):   -1.151579
Local:           -0.458178
SIC:             +0.000000
--------------------------
Free energy:   -125.969189
Extrapolated:  -125.393400

Showing all kpts
 Kpt  Band  Eigenvalues  Occupancy
  0    34     -1.83770    1.13711
  0    35     -1.78192    0.86001
  0    36     -1.76684    0.78700
  0    37     -1.73027    0.62077

  1    34     -1.94953    1.60256
  1    35     -1.94677    1.59369
  1    36     -1.85411    1.21654
  1    37     -1.75401    0.72667


Fermi level: -1.81010

No gap
No difference between direct/indirect transitions

Forces in eV/Ang:
  0 Li   -0.00055   -0.00127    0.06302
  1 Li   -0.00334   -0.00587   -0.03669
  2 Li    0.00838    0.00286   -0.07623
  3 Li   -0.01051   -0.00248   -0.10646
  4 Li   -0.01334   -0.02293    0.02653
  5 Li   -0.04197    0.01031    0.09010
  6 Li   -0.05985   -0.03890   -0.05127
  7 Li   -0.07440   -0.06075    0.12302
  8 Li   -0.00438    0.00453    0.07505
  9 Li    0.00317    0.00861    0.09290
 10 Li    0.00631    0.00364   -0.07747
 11 Li   -0.01350    0.01396   -0.09281
 12 Li    0.00613    0.01868    0.04968
 13 Li   -0.00499   -0.00640   -0.02551
 14 Li   -0.01783    0.00899   -0.01006
 15 Li   -0.07250   -0.04642    0.22774
 16 Li   -0.00037   -0.00208    0.04672
 17 Li    0.00282    0.00144    0.18438
 18 Li    0.00360   -0.01765   -0.09621
 19 Li   -0.00608    0.01169   -0.15050
 20 Li   -0.00114    0.00122    0.03764
 21 Li   -0.00027   -0.01021   -0.05042
 22 Li    0.00950    0.03991   -0.05253
 23 Li   -0.01304   -0.00062   -0.02167
 24 Li   -0.00008   -0.00493    0.06413
 25 Li    0.00535   -0.00489    0.18116
 26 Li    0.00330   -0.00035   -0.05834
 27 Li    0.00938   -0.00517   -0.11100
 28 Li    0.01007   -0.00653    0.02355
 29 Li   -0.00447    0.00308   -0.00161
 30 Li    0.04968   -0.00958    0.01308
 31 Li   -0.01739   -0.00359    0.00418
 32 Li   -0.00136    0.00035    0.04881
 33 Li   -0.00149   -0.00189    0.18139
 34 Li    0.00559    0.00134   -0.05523
 35 Li    0.00153   -0.00715   -0.16221
 36 Li   -0.00131   -0.00106    0.03522
 37 Li   -0.00069   -0.00372   -0.00234
 38 Li    0.06254   -0.01674   -0.02923
 39 Li    0.00818   -0.00263   -0.00860
 40 Li   -0.00215    0.00574    0.03451
 41 Li   -0.00039    0.00319    0.18376
 42 Li    0.00528   -0.00066   -0.05859
 43 Li    0.00013    0.00210   -0.21487
 44 Li    0.00224    0.00362    0.03528
 45 Li   -0.00795    0.00339   -0.00592
 46 Li    0.01066   -0.02118    0.00474
 47 Li    0.01304   -0.00344   -0.01052
 48 Li   -0.00105    0.00047    0.04024
 49 Li    0.00078    0.00149    0.18195
 50 Li   -0.01068    0.00829   -0.08425
 51 Li   -0.00107   -0.00382   -0.17783
 52 Li   -0.00219   -0.00183    0.03433
 53 Li    0.01142    0.00284   -0.01211
 54 Li   -0.00704    0.00959   -0.00121
 55 Li   -0.01437   -0.00864   -0.00628
 56 Li    0.00354   -0.00351    0.03714
 57 Li   -0.00279    0.00403    0.18151
 58 Li   -0.00457    0.01084   -0.07588
 59 Li    0.00210   -0.00217   -0.19991
 60 Li    0.00114    0.00538    0.02221
 61 Li    0.00815   -0.01004   -0.02701
 62 Li   -0.02820    0.02234   -0.00063
 63 Li    0.04860   -0.02908    0.01800
 64 Li    0.00022   -0.00238    0.04163
 65 Li   -0.00222   -0.00182    0.18232
 66 Li   -0.00095    0.00155   -0.05623
 67 Li    0.00432    0.00067   -0.18937
 68 Li   -0.00090    0.00008    0.02940
 69 Li    0.00479    0.00071   -0.00040
 70 Li   -0.02160    0.00098   -0.00059
 71 Li   -0.00047    0.00981    0.00222
 72 Li    0.16177    0.14482   -0.20108

System changes: positions 

Initializing position-dependent things.

Density initialized from wave functions
                                                                       
                                                                       
                                                                       
                                                                       
                                                                       
                                                                       
                               Li          Li          Li              
                                                                       
                        Li            Li          Li          Li       
                 Li   Li           Lii        LiLi                     
                             LiLi        LiLi        LiLi              
                Li        LiLi        LiLi        Li          Li       
              Li        Li         Lii         Lii                     
       Li          LiLii       LiLi        LiLi        Li              
                Li          Lii         Lii          Li                
              Li        LiLi        LiLi        Li                     
                     Lii         LiLi        LiLi                      
       Li          Li          Li                                      
              LiLi        LiLi        LiLi                             
                                                                       
       Li          Li          Li                                      
                                                                       
                                                                       
                                                                       
                                                                       

Atomic positions and initial magnetic moments

Positions:
   0 Li     0.000000    0.000000   10.000000    ( 0.0000,  0.0000,  0.0000)
   1 Li     2.467803    1.424787   11.007476    ( 0.0000,  0.0000,  0.0000)
   2 Li     4.935605    2.849573   12.014952    ( 0.0000,  0.0000,  0.0000)
   3 Li     0.000000    0.000000   13.022429    ( 0.0000,  0.0000,  0.0000)
   4 Li     2.462181    1.422370   13.725956    ( 0.0000,  0.0000,  0.0000)
   5 Li     4.923562    2.847759   15.040213    ( 0.0000,  0.0000,  0.0000)
   6 Li    -0.000157   -0.002693   15.901246    ( 0.0000,  0.0000,  0.0000)
   7 Li     2.480388    1.413993   16.357502    ( 0.0000,  0.0000,  0.0000)
   8 Li     2.467803    4.274360   10.000000    ( 0.0000,  0.0000,  0.0000)
   9 Li     4.935605    5.699146   11.007476    ( 0.0000,  0.0000,  0.0000)
  10 Li     7.403408    7.123933   12.014952    ( 0.0000,  0.0000,  0.0000)
  11 Li     2.467803    4.274360   13.022429    ( 0.0000,  0.0000,  0.0000)
  12 Li     4.931578    5.704733   13.880695    ( 0.0000,  0.0000,  0.0000)
  13 Li     7.398452    7.119496   15.065248    ( 0.0000,  0.0000,  0.0000)
  14 Li     2.462400    4.273588   15.928336    ( 0.0000,  0.0000,  0.0000)
  15 Li     4.960810    5.671228   16.677040    ( 0.0000,  0.0000,  0.0000)
  16 Li     4.935605    8.548719   10.000000    ( 0.0000,  0.0000,  0.0000)
  17 Li     7.403408    9.973506   11.007476    ( 0.0000,  0.0000,  0.0000)
  18 Li     9.871211   11.398292   12.014952    ( 0.0000,  0.0000,  0.0000)
  19 Li     4.935605    8.548719   13.022429    ( 0.0000,  0.0000,  0.0000)
  20 Li     7.396365    9.973796   14.031311    ( 0.0000,  0.0000,  0.0000)
  21 Li     9.869728   11.401618   15.047489    ( 0.0000,  0.0000,  0.0000)
  22 Li     4.937627    8.544937   15.876125    ( 0.0000,  0.0000,  0.0000)
  23 Li     7.456209    9.944270   16.980325    ( 0.0000,  0.0000,  0.0000)
  24 Li     4.935605    0.000000   10.000000    ( 0.0000,  0.0000,  0.0000)
  25 Li     7.403408    1.424787   11.007476    ( 0.0000,  0.0000,  0.0000)
  26 Li     9.871211    2.849573   12.014952    ( 0.0000,  0.0000,  0.0000)
  27 Li     4.935605    0.000000   13.022429    ( 0.0000,  0.0000,  0.0000)
  28 Li     7.408495    1.418151   14.031375    ( 0.0000,  0.0000,  0.0000)
  29 Li     9.870109    2.848772   15.085823    ( 0.0000,  0.0000,  0.0000)
  30 Li     4.932600    0.006923   15.886066    ( 0.0000,  0.0000,  0.0000)
  31 Li     7.374322    1.455856   16.982095    ( 0.0000,  0.0000,  0.0000)
  32 Li     7.403408    4.274360   10.000000    ( 0.0000,  0.0000,  0.0000)
  33 Li     9.871211    5.699146   11.007476    ( 0.0000,  0.0000,  0.0000)
  34 Li    12.339013    7.123933   12.014952    ( 0.0000,  0.0000,  0.0000)
  35 Li     7.403408    4.274360   13.022429    ( 0.0000,  0.0000,  0.0000)
  36 Li     9.874102    5.697877   14.011927    ( 0.0000,  0.0000,  0.0000)
  37 Li    12.333983    7.122515   15.082669    ( 0.0000,  0.0000,  0.0000)
  38 Li     7.385731    4.263607   15.842312    ( 0.0000,  0.0000,  0.0000)
  39 Li     9.867015    5.718788   16.942059    ( 0.0000,  0.0000,  0.0000)
  40 Li     9.871211    8.548719   10.000000    ( 0.0000,  0.0000,  0.0000)
  41 Li    12.339013    9.973506   11.007476    ( 0.0000,  0.0000,  0.0000)
  42 Li    14.806816   11.398292   12.014952    ( 0.0000,  0.0000,  0.0000)
  43 Li     9.871211    8.548719   13.022429    ( 0.0000,  0.0000,  0.0000)
  44 Li    12.343499    9.969053   14.020364    ( 0.0000,  0.0000,  0.0000)
  45 Li    14.806296   11.391236   15.090780    ( 0.0000,  0.0000,  0.0000)
  46 Li     9.861837    8.562096   15.798193    ( 0.0000,  0.0000,  0.0000)
  47 Li    12.299417    9.956771   16.959234    ( 0.0000,  0.0000,  0.0000)
  48 Li     9.871211    0.000000   10.000000    ( 0.0000,  0.0000,  0.0000)
  49 Li    12.339013    1.424787   11.007476    ( 0.0000,  0.0000,  0.0000)
  50 Li    14.806816    2.849573   12.014952    ( 0.0000,  0.0000,  0.0000)
  51 Li     9.871211    0.000000   13.022429    ( 0.0000,  0.0000,  0.0000)
  52 Li    12.333214    1.421240   14.027721    ( 0.0000,  0.0000,  0.0000)
  53 Li    14.805845    2.846039   15.053829    ( 0.0000,  0.0000,  0.0000)
  54 Li     9.864791    0.003759   15.852473    ( 0.0000,  0.0000,  0.0000)
  55 Li    12.342228    1.466304   16.965364    ( 0.0000,  0.0000,  0.0000)
  56 Li    12.339013    4.274360   10.000000    ( 0.0000,  0.0000,  0.0000)
  57 Li    14.806816    5.699146   11.007476    ( 0.0000,  0.0000,  0.0000)
  58 Li    17.274619    7.123933   12.014952    ( 0.0000,  0.0000,  0.0000)
  59 Li    12.339013    4.274360   13.022429    ( 0.0000,  0.0000,  0.0000)
  60 Li    14.802371    5.703833   14.029362    ( 0.0000,  0.0000,  0.0000)
  61 Li    17.270839    7.127225   15.073953    ( 0.0000,  0.0000,  0.0000)
  62 Li    12.353391    4.268749   15.815784    ( 0.0000,  0.0000,  0.0000)
  63 Li    14.776357    5.692756   16.978460    ( 0.0000,  0.0000,  0.0000)
  64 Li    14.806816    8.548719   10.000000    ( 0.0000,  0.0000,  0.0000)
  65 Li    17.274619    9.973506   11.007476    ( 0.0000,  0.0000,  0.0000)
  66 Li    19.742421   11.398292   12.014952    ( 0.0000,  0.0000,  0.0000)
  67 Li    14.806816    8.548719   13.022429    ( 0.0000,  0.0000,  0.0000)
  68 Li    17.271906    9.975117   14.024005    ( 0.0000,  0.0000,  0.0000)
  69 Li    19.732852   11.397008   15.097054    ( 0.0000,  0.0000,  0.0000)
  70 Li    14.805082    8.538616   15.834148    ( 0.0000,  0.0000,  0.0000)
  71 Li    17.252627    9.958259   16.949536    ( 0.0000,  0.0000,  0.0000)
  72 Li     3.301773    2.852686   18.612423    ( 0.0000,  0.0000,  0.0000)

Unit cell:
           periodic     x           y           z      points  spacing
  1. axis:    yes   14.806816    0.000000    0.000000    49     0.2617
  2. axis:    yes    7.403408   12.823079    0.000000    49     0.2617
  3. axis:    no     0.000000    0.000000   27.052334    90     0.3006

  Lengths:  14.806816  14.806816  27.052334
  Angles:   90.000000  90.000000  60.000000

Effective grid spacing dv^(1/3) = 0.2875

     iter     time        total  log10-change:
                         energy   eigst   dens
iter:   1 18:54:00  -125.398430   -4.47
iter:   2 18:54:07  -125.397526   -5.01  -2.53
iter:   3 18:54:14  -125.397391c  -5.24  -3.03
iter:   4 18:54:20  -125.397240c  -5.65c -3.20
iter:   5 18:54:26  -125.397191c  -5.51c -3.43
iter:   6 18:54:33  -125.397178c  -5.59c -3.34
iter:   7 18:54:39  -125.397189c  -6.16c -3.74
iter:   8 18:54:45  -125.397162c  -5.75c -3.68
iter:   9 18:54:51  -125.397154c  -6.30c -4.13c

Converged after 9 iterations.

Dipole moment: (-9.631083, -4.833762, 0.258554) |e|*Ang

Energy contributions relative to reference atoms: (reference = -14803.510878)

Kinetic:        +99.519941
Potential:      -89.223795
External:        +0.000000
XC:            -134.658748
Entropy (-ST):   -1.152105
Local:           -0.458499
SIC:             +0.000000
--------------------------
Free energy:   -125.973206
Extrapolated:  -125.397154

Showing all kpts
 Kpt  Band  Eigenvalues  Occupancy
  0    34     -1.83795    1.13739
  0    35     -1.78200    0.85943
  0    36     -1.76698    0.78673
  0    37     -1.73045    0.62069

  1    34     -1.94967    1.60236
  1    35     -1.94691    1.59349
  1    36     -1.85425    1.21629
  1    37     -1.75411    0.72623


Fermi level: -1.81030

No gap
No difference between direct/indirect transitions

Forces in eV/Ang:
  0 Li   -0.00058   -0.00130    0.06279
  1 Li   -0.00339   -0.00587   -0.03633
  2 Li    0.00836    0.00292   -0.07542
  3 Li   -0.01070   -0.00258   -0.10710
  4 Li   -0.01290   -0.02211    0.02779
  5 Li   -0.04152    0.00997    0.09007
  6 Li   -0.05904   -0.03836   -0.05093
  7 Li   -0.07465   -0.06235    0.11886
  8 Li   -0.00440    0.00446    0.07484
  9 Li    0.00322    0.00866    0.09401
 10 Li    0.00620    0.00354   -0.07742
 11 Li   -0.01350    0.01406   -0.09328
 12 Li    0.00609    0.01803    0.05063
 13 Li   -0.00510   -0.00648   -0.02438
 14 Li   -0.01755    0.00823   -0.01058
 15 Li   -0.07051   -0.04538    0.22331
 16 Li   -0.00035   -0.00199    0.04644
 17 Li    0.00285    0.00141    0.18448
 18 Li    0.00359   -0.01759   -0.09662
 19 Li   -0.00609    0.01189   -0.15156
 20 Li   -0.00128    0.00101    0.03624
 21 Li   -0.00009   -0.00986   -0.04891
 22 Li    0.00917    0.03767   -0.05102
 23 Li   -0.01269   -0.00064   -0.02098
 24 Li   -0.00009   -0.00496    0.06408
 25 Li    0.00544   -0.00488    0.18128
 26 Li    0.00324   -0.00035   -0.05834
 27 Li    0.00954   -0.00529   -0.11101
 28 Li    0.00942   -0.00598    0.02295
 29 Li   -0.00389    0.00277   -0.00173
 30 Li    0.04733   -0.00885    0.01303
 31 Li   -0.01710   -0.00336    0.00475
 32 Li   -0.00136    0.00040    0.04865
 33 Li   -0.00138   -0.00186    0.18157
 34 Li    0.00559    0.00134   -0.05532
 35 Li    0.00155   -0.00718   -0.16297
 36 Li   -0.00141   -0.00116    0.03412
 37 Li   -0.00064   -0.00351   -0.00224
 38 Li    0.05953   -0.01549   -0.02800
 39 Li    0.00811   -0.00253   -0.00786
 40 Li   -0.00214    0.00576    0.03437
 41 Li   -0.00038    0.00310    0.18402
 42 Li    0.00535   -0.00059   -0.05862
 43 Li    0.00012    0.00213   -0.21480
 44 Li    0.00227    0.00346    0.03405
 45 Li   -0.00737    0.00307   -0.00570
 46 Li    0.01027   -0.02077    0.00483
 47 Li    0.01281   -0.00333   -0.00984
 48 Li   -0.00102    0.00048    0.04018
 49 Li    0.00074    0.00151    0.18209
 50 Li   -0.01065    0.00823   -0.08438
 51 Li   -0.00103   -0.00391   -0.17789
 52 Li   -0.00212   -0.00172    0.03322
 53 Li    0.01081    0.00260   -0.01159
 54 Li   -0.00713    0.00936   -0.00105
 55 Li   -0.01412   -0.00832   -0.00586
 56 Li    0.00351   -0.00345    0.03704
 57 Li   -0.00285    0.00399    0.18167
 58 Li   -0.00438    0.01081   -0.07582
 59 Li    0.00220   -0.00217   -0.19993
 60 Li    0.00114    0.00518    0.02158
 61 Li    0.00793   -0.00968   -0.02595
 62 Li   -0.02713    0.02173   -0.00024
 63 Li    0.04794   -0.02872    0.01796
 64 Li    0.00013   -0.00236    0.04157
 65 Li   -0.00227   -0.00179    0.18239
 66 Li   -0.00090    0.00163   -0.05608
 67 Li    0.00432    0.00073   -0.18936
 68 Li   -0.00082   -0.00002    0.02844
 69 Li    0.00373    0.00075   -0.00056
 70 Li   -0.02078    0.00061   -0.00029
 71 Li   -0.00050    0.00960    0.00243
 72 Li    0.16361    0.14603   -0.19802

System changes: positions 

Initializing position-dependent things.

Density initialized from wave functions
                                                                       
                                                                       
                                                                       
                                                                       
                                                                       
                                                                       
                               Li          Li          Li              
                                                                       
                        Li            Li          Li          Li       
                 Li   Li           Lii        LiLi                     
                             LiLi        LiLi        LiLi              
                Li        LiLi        LiLi        Li          Li       
              Li      LiLi         Lii         Lii                     
       Li          LiLi        LiLi        LiLi        Li              
                Li          Lii         Lii          Li                
              Li        LiLi        LiLi        Li                     
                     Lii         LiLi        LiLi                      
       Li          Li          Li                                      
              LiLi        LiLi        LiLi                             
                                                                       
       Li          Li          Li                                      
                                                                       
                                                                       
                                                                       
                                                                       

Atomic positions and initial magnetic moments

Positions:
   0 Li     0.000000    0.000000   10.000000    ( 0.0000,  0.0000,  0.0000)
   1 Li     2.467803    1.424787   11.007476    ( 0.0000,  0.0000,  0.0000)
   2 Li     4.935605    2.849573   12.014952    ( 0.0000,  0.0000,  0.0000)
   3 Li     0.000000    0.000000   13.022429    ( 0.0000,  0.0000,  0.0000)
   4 Li     2.461790    1.421686   13.726289    ( 0.0000,  0.0000,  0.0000)
   5 Li     4.922289    2.848044   15.042925    ( 0.0000,  0.0000,  0.0000)
   6 Li    -0.001958   -0.003855   15.899785    ( 0.0000,  0.0000,  0.0000)
   7 Li     2.478079    1.412160   16.360185    ( 0.0000,  0.0000,  0.0000)
   8 Li     2.467803    4.274360   10.000000    ( 0.0000,  0.0000,  0.0000)
   9 Li     4.935605    5.699146   11.007476    ( 0.0000,  0.0000,  0.0000)
  10 Li     7.403408    7.123933   12.014952    ( 0.0000,  0.0000,  0.0000)
  11 Li     2.467803    4.274360   13.022429    ( 0.0000,  0.0000,  0.0000)
  12 Li     4.931758    5.705296   13.882667    ( 0.0000,  0.0000,  0.0000)
  13 Li     7.398309    7.119304   15.064538    ( 0.0000,  0.0000,  0.0000)
  14 Li     2.461861    4.273843   15.928033    ( 0.0000,  0.0000,  0.0000)
  15 Li     4.958691    5.669792   16.684816    ( 0.0000,  0.0000,  0.0000)
  16 Li     4.935605    8.548719   10.000000    ( 0.0000,  0.0000,  0.0000)
  17 Li     7.403408    9.973506   11.007476    ( 0.0000,  0.0000,  0.0000)
  18 Li     9.871211   11.398292   12.014952    ( 0.0000,  0.0000,  0.0000)
  19 Li     4.935605    8.548719   13.022429    ( 0.0000,  0.0000,  0.0000)
  20 Li     7.396325    9.973820   14.032431    ( 0.0000,  0.0000,  0.0000)
  21 Li     9.869719   11.401317   15.045935    ( 0.0000,  0.0000,  0.0000)
  22 Li     4.937919    8.546111   15.874479    ( 0.0000,  0.0000,  0.0000)
  23 Li     7.455831    9.944266   16.979679    ( 0.0000,  0.0000,  0.0000)
  24 Li     4.935605    0.000000   10.000000    ( 0.0000,  0.0000,  0.0000)
  25 Li     7.403408    1.424787   11.007476    ( 0.0000,  0.0000,  0.0000)
  26 Li     9.871211    2.849573   12.014952    ( 0.0000,  0.0000,  0.0000)
  27 Li     4.935605    0.000000   13.022429    ( 0.0000,  0.0000,  0.0000)
  28 Li     7.408788    1.417954   14.032078    ( 0.0000,  0.0000,  0.0000)
  29 Li     9.869970    2.848865   15.085759    ( 0.0000,  0.0000,  0.0000)
  30 Li     4.934069    0.006608   15.886594    ( 0.0000,  0.0000,  0.0000)
  31 Li     7.373846    1.455830   16.982227    ( 0.0000,  0.0000,  0.0000)
  32 Li     7.403408    4.274360   10.000000    ( 0.0000,  0.0000,  0.0000)
  33 Li     9.871211    5.699146   11.007476    ( 0.0000,  0.0000,  0.0000)
  34 Li    12.339013    7.123933   12.014952    ( 0.0000,  0.0000,  0.0000)
  35 Li     7.403408    4.274360   13.022429    ( 0.0000,  0.0000,  0.0000)
  36 Li     9.874057    5.697850   14.012946    ( 0.0000,  0.0000,  0.0000)
  37 Li    12.333959    7.122397   15.082599    ( 0.0000,  0.0000,  0.0000)
  38 Li     7.387562    4.263096   15.841309    ( 0.0000,  0.0000,  0.0000)
  39 Li     9.867269    5.718646   16.941749    ( 0.0000,  0.0000,  0.0000)
  40 Li     9.871211    8.548719   10.000000    ( 0.0000,  0.0000,  0.0000)
  41 Li    12.339013    9.973506   11.007476    ( 0.0000,  0.0000,  0.0000)
  42 Li    14.806816   11.398292   12.014952    ( 0.0000,  0.0000,  0.0000)
  43 Li     9.871211    8.548719   13.022429    ( 0.0000,  0.0000,  0.0000)
  44 Li    12.343572    9.969155   14.021443    ( 0.0000,  0.0000,  0.0000)
  45 Li    14.806068   11.391326   15.090617    ( 0.0000,  0.0000,  0.0000)
  46 Li     9.862179    8.561506   15.798332    ( 0.0000,  0.0000,  0.0000)
  47 Li    12.299746    9.956643   16.958979    ( 0.0000,  0.0000,  0.0000)
  48 Li     9.871211    0.000000   10.000000    ( 0.0000,  0.0000,  0.0000)
  49 Li    12.339013    1.424787   11.007476    ( 0.0000,  0.0000,  0.0000)
  50 Li    14.806816    2.849573   12.014952    ( 0.0000,  0.0000,  0.0000)
  51 Li     9.871211    0.000000   13.022429    ( 0.0000,  0.0000,  0.0000)
  52 Li    12.333144    1.421180   14.028755    ( 0.0000,  0.0000,  0.0000)
  53 Li    14.806198    2.846120   15.053406    ( 0.0000,  0.0000,  0.0000)
  54 Li     9.864586    0.004058   15.852435    ( 0.0000,  0.0000,  0.0000)
  55 Li    12.341811    1.466107   16.965224    ( 0.0000,  0.0000,  0.0000)
  56 Li    12.339013    4.274360   10.000000    ( 0.0000,  0.0000,  0.0000)
  57 Li    14.806816    5.699146   11.007476    ( 0.0000,  0.0000,  0.0000)
  58 Li    17.274619    7.123933   12.014952    ( 0.0000,  0.0000,  0.0000)
  59 Li    12.339013    4.274360   13.022429    ( 0.0000,  0.0000,  0.0000)
  60 Li    14.802411    5.704007   14.030023    ( 0.0000,  0.0000,  0.0000)
  61 Li    17.271069    7.126936   15.073214    ( 0.0000,  0.0000,  0.0000)
  62 Li    12.352577    4.269388   15.815709    ( 0.0000,  0.0000,  0.0000)
  63 Li    14.777752    5.691780   16.978998    ( 0.0000,  0.0000,  0.0000)
  64 Li    14.806816    8.548719   10.000000    ( 0.0000,  0.0000,  0.0000)
  65 Li    17.274619    9.973506   11.007476    ( 0.0000,  0.0000,  0.0000)
  66 Li    19.742421   11.398292   12.014952    ( 0.0000,  0.0000,  0.0000)
  67 Li    14.806816    8.548719   13.022429    ( 0.0000,  0.0000,  0.0000)
  68 Li    17.271877    9.975107   14.024871    ( 0.0000,  0.0000,  0.0000)
  69 Li    19.732980   11.397012   15.097041    ( 0.0000,  0.0000,  0.0000)
  70 Li    14.804399    8.538647   15.834185    ( 0.0000,  0.0000,  0.0000)
  71 Li    17.252658    9.958586   16.949560    ( 0.0000,  0.0000,  0.0000)
  72 Li     3.304122    2.852675   18.606414    ( 0.0000,  0.0000,  0.0000)

Unit cell:
           periodic     x           y           z      points  spacing
  1. axis:    yes   14.806816    0.000000    0.000000    49     0.2617
  2. axis:    yes    7.403408   12.823079    0.000000    49     0.2617
  3. axis:    no     0.000000    0.000000   27.052334    90     0.3006

  Lengths:  14.806816  14.806816  27.052334
  Angles:   90.000000  90.000000  60.000000

Effective grid spacing dv^(1/3) = 0.2875

     iter     time        total  log10-change:
                         energy   eigst   dens
iter:   1 18:59:09  -125.405190   -4.17
iter:   2 18:59:13  -125.403263   -4.79  -2.36
iter:   3 18:59:18  -125.403060c  -5.01  -2.87
iter:   4 18:59:23  -125.402845c  -5.64c -3.04
iter:   5 18:59:28  -125.402801c  -5.44c -3.26
iter:   6 18:59:33  -125.402792c  -5.71c -3.19
iter:   7 18:59:37  -125.402818c  -6.27c -3.60
iter:   8 18:59:42  -125.402799c  -6.05c -3.54
iter:   9 18:59:47  -125.402796c  -6.54c -3.96
iter:  10 18:59:52  -125.402786c  -6.54c -4.06c

Converged after 10 iterations.

Dipole moment: (-9.582660, -4.819843, 0.256931) |e|*Ang

Energy contributions relative to reference atoms: (reference = -14803.510878)

Kinetic:        +99.512636
Potential:      -89.220973
External:        +0.000000
XC:            -134.659716
Entropy (-ST):   -1.152324
Local:           -0.458571
SIC:             +0.000000
--------------------------
Free energy:   -125.978948
Extrapolated:  -125.402786

Showing all kpts
 Kpt  Band  Eigenvalues  Occupancy
  0    34     -1.83824    1.13792
  0    35     -1.78200    0.85859
  0    36     -1.76707    0.78634
  0    37     -1.73063    0.62070

  1    34     -1.94975    1.60206
  1    35     -1.94698    1.59317
  1    36     -1.85442    1.21626
  1    37     -1.75419    0.72579


Fermi level: -1.81048

No gap
No difference between direct/indirect transitions

Forces in eV/Ang:
  0 Li   -0.00045   -0.00133    0.06262
  1 Li   -0.00350   -0.00580   -0.03601
  2 Li    0.00832    0.00303   -0.07409
  3 Li   -0.01097   -0.00291   -0.10812
  4 Li   -0.01215   -0.02090    0.02984
  5 Li   -0.04077    0.00955    0.08954
  6 Li   -0.05795   -0.03768   -0.05047
  7 Li   -0.07500   -0.06459    0.11264
  8 Li   -0.00445    0.00447    0.07454
  9 Li    0.00315    0.00874    0.09528
 10 Li    0.00615    0.00351   -0.07746
 11 Li   -0.01339    0.01414   -0.09376
 12 Li    0.00599    0.01699    0.05254
 13 Li   -0.00542   -0.00673   -0.02267
 14 Li   -0.01729    0.00716   -0.01148
 15 Li   -0.06770   -0.04389    0.21646
 16 Li   -0.00034   -0.00200    0.04624
 17 Li    0.00286    0.00146    0.18498
 18 Li    0.00345   -0.01766   -0.09721
 19 Li   -0.00604    0.01221   -0.15304
 20 Li   -0.00137    0.00074    0.03398
 21 Li    0.00014   -0.00940   -0.04689
 22 Li    0.00874    0.03431   -0.04901
 23 Li   -0.01217   -0.00072   -0.01997
 24 Li   -0.00007   -0.00496    0.06392
 25 Li    0.00555   -0.00487    0.18143
 26 Li    0.00308   -0.00027   -0.05823
 27 Li    0.00977   -0.00538   -0.11084
 28 Li    0.00844   -0.00522    0.02217
 29 Li   -0.00313    0.00229   -0.00192
 30 Li    0.04399   -0.00781    0.01280
 31 Li   -0.01662   -0.00283    0.00548
 32 Li   -0.00132    0.00039    0.04845
 33 Li   -0.00139   -0.00184    0.18198
 34 Li    0.00550    0.00132   -0.05517
 35 Li    0.00153   -0.00730   -0.16385
 36 Li   -0.00142   -0.00121    0.03234
 37 Li   -0.00051   -0.00328   -0.00231
 38 Li    0.05529   -0.01378   -0.02626
 39 Li    0.00776   -0.00247   -0.00675
 40 Li   -0.00215    0.00574    0.03435
 41 Li   -0.00041    0.00304    0.18443
 42 Li    0.00541   -0.00050   -0.05859
 43 Li    0.00015    0.00215   -0.21461
 44 Li    0.00229    0.00314    0.03223
 45 Li   -0.00649    0.00269   -0.00554
 46 Li    0.00972   -0.02015    0.00474
 47 Li    0.01236   -0.00312   -0.00888
 48 Li   -0.00110    0.00051    0.04009
 49 Li    0.00076    0.00156    0.18251
 50 Li   -0.01052    0.00821   -0.08460
 51 Li   -0.00103   -0.00401   -0.17785
 52 Li   -0.00213   -0.00153    0.03163
 53 Li    0.01001    0.00233   -0.01085
 54 Li   -0.00727    0.00909   -0.00099
 55 Li   -0.01376   -0.00787   -0.00524
 56 Li    0.00350   -0.00336    0.03688
 57 Li   -0.00276    0.00398    0.18192
 58 Li   -0.00422    0.01071   -0.07590
 59 Li    0.00223   -0.00207   -0.19988
 60 Li    0.00110    0.00498    0.02077
 61 Li    0.00772   -0.00924   -0.02443
 62 Li   -0.02558    0.02093    0.00007
 63 Li    0.04726   -0.02824    0.01784
 64 Li    0.00011   -0.00241    0.04152
 65 Li   -0.00225   -0.00181    0.18275
 66 Li   -0.00074    0.00153   -0.05584
 67 Li    0.00430    0.00077   -0.18929
 68 Li   -0.00083   -0.00007    0.02705
 69 Li    0.00220    0.00087   -0.00100
 70 Li   -0.01953   -0.00008   -0.00007
 71 Li   -0.00054    0.00922    0.00273
 72 Li    0.16613    0.14799   -0.19318

System changes: positions 

Initializing position-dependent things.

Density initialized from wave functions
                                                                       
                                                                       
                                                                       
                                                                       
                                                                       
                                                                       
                               Li          Li          Li              
                                                                       
                        Li            Li          Li          Li       
                 Li   Li           Lii        LiLi                     
                             LiLi        LiLi        LiLi              
                Li        LiLi        LiLi        Li          Li       
              Li      LiLi         Lii         Lii                     
       Li          LiLi        LiLi        LiLi        Li              
                Li          Lii         Lii          Li                
              Li        LiLi        LiLi        Li                     
                     Lii         LiLi        LiLi                      
       Li          Li          Li                                      
              LiLi        LiLi        LiLi                             
                                                                       
       Li          Li          Li                                      
                                                                       
                                                                       
                                                                       
                                                                       

Atomic positions and initial magnetic moments

Positions:
   0 Li     0.000000    0.000000   10.000000    ( 0.0000,  0.0000,  0.0000)
   1 Li     2.467803    1.424787   11.007476    ( 0.0000,  0.0000,  0.0000)
   2 Li     4.935605    2.849573   12.014952    ( 0.0000,  0.0000,  0.0000)
   3 Li     0.000000    0.000000   13.022429    ( 0.0000,  0.0000,  0.0000)
   4 Li     2.461280    1.420795   13.726763    ( 0.0000,  0.0000,  0.0000)
   5 Li     4.920600    2.848414   15.046543    ( 0.0000,  0.0000,  0.0000)
   6 Li    -0.004347   -0.005395   15.897844    ( 0.0000,  0.0000,  0.0000)
   7 Li     2.474974    1.409649   16.363617    ( 0.0000,  0.0000,  0.0000)
   8 Li     2.467803    4.274360   10.000000    ( 0.0000,  0.0000,  0.0000)
   9 Li     4.935605    5.699146   11.007476    ( 0.0000,  0.0000,  0.0000)
  10 Li     7.403408    7.123933   12.014952    ( 0.0000,  0.0000,  0.0000)
  11 Li     2.467803    4.274360   13.022429    ( 0.0000,  0.0000,  0.0000)
  12 Li     4.931996    5.706028   13.885349    ( 0.0000,  0.0000,  0.0000)
  13 Li     7.398112    7.119042   15.063625    ( 0.0000,  0.0000,  0.0000)
  14 Li     2.461148    4.274162   15.927616    ( 0.0000,  0.0000,  0.0000)
  15 Li     4.955912    5.667896   16.695098    ( 0.0000,  0.0000,  0.0000)
  16 Li     4.935605    8.548719   10.000000    ( 0.0000,  0.0000,  0.0000)
  17 Li     7.403408    9.973506   11.007476    ( 0.0000,  0.0000,  0.0000)
  18 Li     9.871211   11.398292   12.014952    ( 0.0000,  0.0000,  0.0000)
  19 Li     4.935605    8.548719   13.022429    ( 0.0000,  0.0000,  0.0000)
  20 Li     7.396267    9.973845   14.033885    ( 0.0000,  0.0000,  0.0000)
  21 Li     9.869710   11.400924   15.043895    ( 0.0000,  0.0000,  0.0000)
  22 Li     4.938302    8.547613   15.872319    ( 0.0000,  0.0000,  0.0000)
  23 Li     7.455335    9.944259   16.978834    ( 0.0000,  0.0000,  0.0000)
  24 Li     4.935605    0.000000   10.000000    ( 0.0000,  0.0000,  0.0000)
  25 Li     7.403408    1.424787   11.007476    ( 0.0000,  0.0000,  0.0000)
  26 Li     9.871211    2.849573   12.014952    ( 0.0000,  0.0000,  0.0000)
  27 Li     4.935605    0.000000   13.022429    ( 0.0000,  0.0000,  0.0000)
  28 Li     7.409161    1.417705   14.033003    ( 0.0000,  0.0000,  0.0000)
  29 Li     9.869799    2.848981   15.085669    ( 0.0000,  0.0000,  0.0000)
  30 Li     4.935965    0.006209   15.887303    ( 0.0000,  0.0000,  0.0000)
  31 Li     7.373218    1.455804   16.982419    ( 0.0000,  0.0000,  0.0000)
  32 Li     7.403408    4.274360   10.000000    ( 0.0000,  0.0000,  0.0000)
  33 Li     9.871211    5.699146   11.007476    ( 0.0000,  0.0000,  0.0000)
  34 Li    12.339013    7.123933   12.014952    ( 0.0000,  0.0000,  0.0000)
  35 Li     7.403408    4.274360   13.022429    ( 0.0000,  0.0000,  0.0000)
  36 Li     9.873996    5.697814   14.014275    ( 0.0000,  0.0000,  0.0000)
  37 Li    12.333927    7.122244   15.082506    ( 0.0000,  0.0000,  0.0000)
  38 Li     7.389928    4.262450   15.839997    ( 0.0000,  0.0000,  0.0000)
  39 Li     9.867604    5.718457   16.941354    ( 0.0000,  0.0000,  0.0000)
  40 Li     9.871211    8.548719   10.000000    ( 0.0000,  0.0000,  0.0000)
  41 Li    12.339013    9.973506   11.007476    ( 0.0000,  0.0000,  0.0000)
  42 Li    14.806816   11.398292   12.014952    ( 0.0000,  0.0000,  0.0000)
  43 Li     9.871211    8.548719   13.022429    ( 0.0000,  0.0000,  0.0000)
  44 Li    12.343671    9.969285   14.022850    ( 0.0000,  0.0000,  0.0000)
  45 Li    14.805779   11.391436   15.090402    ( 0.0000,  0.0000,  0.0000)
  46 Li     9.862626    8.560728   15.798518    ( 0.0000,  0.0000,  0.0000)
  47 Li    12.300177    9.956476   16.958658    ( 0.0000,  0.0000,  0.0000)
  48 Li     9.871211    0.000000   10.000000    ( 0.0000,  0.0000,  0.0000)
  49 Li    12.339013    1.424787   11.007476    ( 0.0000,  0.0000,  0.0000)
  50 Li    14.806816    2.849573   12.014952    ( 0.0000,  0.0000,  0.0000)
  51 Li     9.871211    0.000000   13.022429    ( 0.0000,  0.0000,  0.0000)
  52 Li    12.333049    1.421101   14.030105    ( 0.0000,  0.0000,  0.0000)
  53 Li    14.806654    2.846223   15.052855    ( 0.0000,  0.0000,  0.0000)
  54 Li     9.864310    0.004453   15.852388    ( 0.0000,  0.0000,  0.0000)
  55 Li    12.341259    1.465855   16.965051    ( 0.0000,  0.0000,  0.0000)
  56 Li    12.339013    4.274360   10.000000    ( 0.0000,  0.0000,  0.0000)
  57 Li    14.806816    5.699146   11.007476    ( 0.0000,  0.0000,  0.0000)
  58 Li    17.274619    7.123933   12.014952    ( 0.0000,  0.0000,  0.0000)
  59 Li    12.339013    4.274360   13.022429    ( 0.0000,  0.0000,  0.0000)
  60 Li    14.802464    5.704235   14.030891    ( 0.0000,  0.0000,  0.0000)
  61 Li    17.271372    7.126560   15.072256    ( 0.0000,  0.0000,  0.0000)
  62 Li    12.351519    4.270226   15.815617    ( 0.0000,  0.0000,  0.0000)
  63 Li    14.779601    5.690482   16.979715    ( 0.0000,  0.0000,  0.0000)
  64 Li    14.806816    8.548719   10.000000    ( 0.0000,  0.0000,  0.0000)
  65 Li    17.274619    9.973506   11.007476    ( 0.0000,  0.0000,  0.0000)
  66 Li    19.742421   11.398292   12.014952    ( 0.0000,  0.0000,  0.0000)
  67 Li    14.806816    8.548719   13.022429    ( 0.0000,  0.0000,  0.0000)
  68 Li    17.271838    9.975091   14.026002    ( 0.0000,  0.0000,  0.0000)
  69 Li    19.733122   11.397020   15.097015    ( 0.0000,  0.0000,  0.0000)
  70 Li    14.803510    8.538676   15.834244    ( 0.0000,  0.0000,  0.0000)
  71 Li    17.252698    9.959017   16.949597    ( 0.0000,  0.0000,  0.0000)
  72 Li     3.307280    2.852642   18.598482    ( 0.0000,  0.0000,  0.0000)

Unit cell:
           periodic     x           y           z      points  spacing
  1. axis:    yes   14.806816    0.000000    0.000000    49     0.2617
  2. axis:    yes    7.403408   12.823079    0.000000    49     0.2617
  3. axis:    no     0.000000    0.000000   27.052334    90     0.3006

  Lengths:  14.806816  14.806816  27.052334
  Angles:   90.000000  90.000000  60.000000

Effective grid spacing dv^(1/3) = 0.2875

     iter     time        total  log10-change:
                         energy   eigst   dens
iter:   1 19:04:03  -125.414319   -3.91
iter:   2 19:04:07  -125.410742   -4.56  -2.23
iter:   3 19:04:12  -125.410441c  -4.77  -2.74
iter:   4 19:04:17  -125.410152c  -5.55c -2.92
iter:   5 19:04:22  -125.410105c  -5.29  -3.15
iter:   6 19:04:27  -125.410086c  -5.70c -3.08
iter:   7 19:04:32  -125.410127c  -6.27c -3.50
iter:   8 19:04:37  -125.410109c  -6.29c -3.43
iter:   9 19:04:42  -125.410111c  -6.83c -3.84
iter:  10 19:04:47  -125.410102c  -6.84c -3.94
iter:  11 19:04:51  -125.410088c  -6.88c -4.08c

Converged after 11 iterations.

Dipole moment: (-9.519391, -4.801824, 0.254561) |e|*Ang

Energy contributions relative to reference atoms: (reference = -14803.510878)

Kinetic:        +99.503943
Potential:      -89.217898
External:        +0.000000
XC:            -134.661469
Entropy (-ST):   -1.152302
Local:           -0.458514
SIC:             +0.000000
--------------------------
Free energy:   -125.986239
Extrapolated:  -125.410088

Showing all kpts
 Kpt  Band  Eigenvalues  Occupancy
  0    34     -1.83854    1.13887
  0    35     -1.78187    0.85742
  0    36     -1.76704    0.78567
  0    37     -1.73079    0.62094

  1    34     -1.94971    1.60159
  1    35     -1.94693    1.59267
  1    36     -1.85457    1.21645
  1    37     -1.75422    0.72540


Fermi level: -1.81058

No gap
No difference between direct/indirect transitions

Forces in eV/Ang:
  0 Li   -0.00034   -0.00130    0.06254
  1 Li   -0.00361   -0.00572   -0.03542
  2 Li    0.00826    0.00317   -0.07217
  3 Li   -0.01133   -0.00325   -0.10939
  4 Li   -0.01114   -0.01935    0.03238
  5 Li   -0.03976    0.00896    0.08855
  6 Li   -0.05666   -0.03678   -0.04986
  7 Li   -0.07553   -0.06752    0.10456
  8 Li   -0.00450    0.00447    0.07427
  9 Li    0.00309    0.00881    0.09711
 10 Li    0.00604    0.00342   -0.07746
 11 Li   -0.01317    0.01412   -0.09431
 12 Li    0.00589    0.01557    0.05501
 13 Li   -0.00588   -0.00702   -0.02040
 14 Li   -0.01700    0.00580   -0.01277
 15 Li   -0.06408   -0.04181    0.20731
 16 Li   -0.00034   -0.00202    0.04608
 17 Li    0.00285    0.00152    0.18574
 18 Li    0.00333   -0.01768   -0.09790
 19 Li   -0.00598    0.01257   -0.15482
 20 Li   -0.00147    0.00041    0.03113
 21 Li    0.00046   -0.00884   -0.04425
 22 Li    0.00817    0.03005   -0.04639
 23 Li   -0.01151   -0.00083   -0.01867
 24 Li   -0.00002   -0.00496    0.06385
 25 Li    0.00568   -0.00487    0.18174
 26 Li    0.00293   -0.00023   -0.05803
 27 Li    0.01005   -0.00544   -0.11049
 28 Li    0.00709   -0.00430    0.02109
 29 Li   -0.00203    0.00167   -0.00219
 30 Li    0.03967   -0.00659    0.01229
 31 Li   -0.01596   -0.00212    0.00641
 32 Li   -0.00127    0.00036    0.04834
 33 Li   -0.00142   -0.00187    0.18262
 34 Li    0.00539    0.00129   -0.05488
 35 Li    0.00138   -0.00744   -0.16491
 36 Li   -0.00137   -0.00129    0.03003
 37 Li   -0.00030   -0.00300   -0.00236
 38 Li    0.04983   -0.01153   -0.02408
 39 Li    0.00732   -0.00232   -0.00531
 40 Li   -0.00212    0.00569    0.03437
 41 Li   -0.00043    0.00305    0.18508
 42 Li    0.00547   -0.00036   -0.05848
 43 Li    0.00022    0.00221   -0.21425
 44 Li    0.00236    0.00275    0.02995
 45 Li   -0.00537    0.00211   -0.00539
 46 Li    0.00903   -0.01931    0.00465
 47 Li    0.01175   -0.00289   -0.00777
 48 Li   -0.00120    0.00053    0.04008
 49 Li    0.00080    0.00163    0.18323
 50 Li   -0.01044    0.00814   -0.08476
 51 Li   -0.00102   -0.00411   -0.17773
 52 Li   -0.00212   -0.00124    0.02954
 53 Li    0.00887    0.00190   -0.00994
 54 Li   -0.00737    0.00870   -0.00099
 55 Li   -0.01321   -0.00730   -0.00453
 56 Li    0.00347   -0.00331    0.03682
 57 Li   -0.00267    0.00391    0.18236
 58 Li   -0.00398    0.01061   -0.07592
 59 Li    0.00226   -0.00202   -0.19974
 60 Li    0.00097    0.00472    0.01980
 61 Li    0.00749   -0.00860   -0.02244
 62 Li   -0.02355    0.01984    0.00041
 63 Li    0.04630   -0.02760    0.01760
 64 Li    0.00006   -0.00241    0.04152
 65 Li   -0.00219   -0.00182    0.18335
 66 Li   -0.00057    0.00145   -0.05549
 67 Li    0.00426    0.00087   -0.18907
 68 Li   -0.00090   -0.00008    0.02529
 69 Li    0.00020    0.00103   -0.00152
 70 Li   -0.01794   -0.00093    0.00016
 71 Li   -0.00053    0.00865    0.00301
 72 Li    0.16941    0.15049   -0.18671

System changes: positions 

Initializing position-dependent things.

Density initialized from wave functions
                                                                       
                                                                       
                                                                       
                                                                       
                                                                       
                                                                       
                               Li          Li          Li              
                                                                       
                        Li            Li          Li          Li       
                 Li   Li           Lii        LiLi                     
                             LiLi        LiLi        LiLi              
                Li        LiLi        LiLi        Li          Li       
              Li      LiLi         Lii         Lii                     
       Li          LiLi        LiLi        LiLi        Li              
                Li          Lii         Lii          Li                
              Li        LiLi        LiLi        Li                     
                     Lii         LiLi        LiLi                      
       Li          Li          Li                                      
              LiLi        LiLi        LiLi                             
                                                                       
       Li          Li          Li                                      
                                                                       
                                                                       
                                                                       
                                                                       

Atomic positions and initial magnetic moments

Positions:
   0 Li     0.000000    0.000000   10.000000    ( 0.0000,  0.0000,  0.0000)
   1 Li     2.467803    1.424787   11.007476    ( 0.0000,  0.0000,  0.0000)
   2 Li     4.935605    2.849573   12.014952    ( 0.0000,  0.0000,  0.0000)
   3 Li     0.000000    0.000000   13.022429    ( 0.0000,  0.0000,  0.0000)
   4 Li     2.460666    1.419715   13.727407    ( 0.0000,  0.0000,  0.0000)
   5 Li     4.918502    2.848860   15.051067    ( 0.0000,  0.0000,  0.0000)
   6 Li    -0.007316   -0.007307   15.895424    ( 0.0000,  0.0000,  0.0000)
   7 Li     2.471045    1.406393   16.367663    ( 0.0000,  0.0000,  0.0000)
   8 Li     2.467803    4.274360   10.000000    ( 0.0000,  0.0000,  0.0000)
   9 Li     4.935605    5.699146   11.007476    ( 0.0000,  0.0000,  0.0000)
  10 Li     7.403408    7.123933   12.014952    ( 0.0000,  0.0000,  0.0000)
  11 Li     2.467803    4.274360   13.022429    ( 0.0000,  0.0000,  0.0000)
  12 Li     4.932291    5.706911   13.888795    ( 0.0000,  0.0000,  0.0000)
  13 Li     7.397854    7.118704   15.062539    ( 0.0000,  0.0000,  0.0000)
  14 Li     2.460262    4.274525   15.927067    ( 0.0000,  0.0000,  0.0000)
  15 Li     4.952510    5.665556   16.707811    ( 0.0000,  0.0000,  0.0000)
  16 Li     4.935605    8.548719   10.000000    ( 0.0000,  0.0000,  0.0000)
  17 Li     7.403408    9.973506   11.007476    ( 0.0000,  0.0000,  0.0000)
  18 Li     9.871211   11.398292   12.014952    ( 0.0000,  0.0000,  0.0000)
  19 Li     4.935605    8.548719   13.022429    ( 0.0000,  0.0000,  0.0000)
  20 Li     7.396192    9.973867   14.035639    ( 0.0000,  0.0000,  0.0000)
  21 Li     9.869708   11.400443   15.041397    ( 0.0000,  0.0000,  0.0000)
  22 Li     4.938768    8.549385   15.869673    ( 0.0000,  0.0000,  0.0000)
  23 Li     7.454728    9.944247   16.977805    ( 0.0000,  0.0000,  0.0000)
  24 Li     4.935605    0.000000   10.000000    ( 0.0000,  0.0000,  0.0000)
  25 Li     7.403408    1.424787   11.007476    ( 0.0000,  0.0000,  0.0000)
  26 Li     9.871211    2.849573   12.014952    ( 0.0000,  0.0000,  0.0000)
  27 Li     4.935605    0.000000   13.022429    ( 0.0000,  0.0000,  0.0000)
  28 Li     7.409596    1.417416   14.034139    ( 0.0000,  0.0000,  0.0000)
  29 Li     9.869611    2.849112   15.085549    ( 0.0000,  0.0000,  0.0000)
  30 Li     4.938236    0.005744   15.888195    ( 0.0000,  0.0000,  0.0000)
  31 Li     7.372447    1.455788   16.982685    ( 0.0000,  0.0000,  0.0000)
  32 Li     7.403408    4.274360   10.000000    ( 0.0000,  0.0000,  0.0000)
  33 Li     9.871211    5.699146   11.007476    ( 0.0000,  0.0000,  0.0000)
  34 Li    12.339013    7.123933   12.014952    ( 0.0000,  0.0000,  0.0000)
  35 Li     7.403408    4.274360   13.022429    ( 0.0000,  0.0000,  0.0000)
  36 Li     9.873920    5.697766   14.015886    ( 0.0000,  0.0000,  0.0000)
  37 Li    12.333892    7.122059   15.082390    ( 0.0000,  0.0000,  0.0000)
  38 Li     7.392762    4.261700   15.838398    ( 0.0000,  0.0000,  0.0000)
  39 Li     9.868015    5.718222   16.940893    ( 0.0000,  0.0000,  0.0000)
  40 Li     9.871211    8.548719   10.000000    ( 0.0000,  0.0000,  0.0000)
  41 Li    12.339013    9.973506   11.007476    ( 0.0000,  0.0000,  0.0000)
  42 Li    14.806816   11.398292   12.014952    ( 0.0000,  0.0000,  0.0000)
  43 Li     9.871211    8.548719   13.022429    ( 0.0000,  0.0000,  0.0000)
  44 Li    12.343797    9.969438   14.024561    ( 0.0000,  0.0000,  0.0000)
  45 Li    14.805446   11.391561   15.090139    ( 0.0000,  0.0000,  0.0000)
  46 Li     9.863169    8.559770   15.798751    ( 0.0000,  0.0000,  0.0000)
  47 Li    12.300703    9.956271   16.958286    ( 0.0000,  0.0000,  0.0000)
  48 Li     9.871211    0.000000   10.000000    ( 0.0000,  0.0000,  0.0000)
  49 Li    12.339013    1.424787   11.007476    ( 0.0000,  0.0000,  0.0000)
  50 Li    14.806816    2.849573   12.014952    ( 0.0000,  0.0000,  0.0000)
  51 Li     9.871211    0.000000   13.022429    ( 0.0000,  0.0000,  0.0000)
  52 Li    12.332931    1.421009   14.031750    ( 0.0000,  0.0000,  0.0000)
  53 Li    14.807200    2.846342   15.052187    ( 0.0000,  0.0000,  0.0000)
  54 Li     9.863961    0.004940   15.852331    ( 0.0000,  0.0000,  0.0000)
  55 Li    12.340579    1.465553   16.964852    ( 0.0000,  0.0000,  0.0000)
  56 Li    12.339013    4.274360   10.000000    ( 0.0000,  0.0000,  0.0000)
  57 Li    14.806816    5.699146   11.007476    ( 0.0000,  0.0000,  0.0000)
  58 Li    17.274619    7.123933   12.014952    ( 0.0000,  0.0000,  0.0000)
  59 Li    12.339013    4.274360   13.022429    ( 0.0000,  0.0000,  0.0000)
  60 Li    14.802529    5.704516   14.031955    ( 0.0000,  0.0000,  0.0000)
  61 Li    17.271745    7.126103   15.071104    ( 0.0000,  0.0000,  0.0000)
  62 Li    12.350240    4.271250   15.815511    ( 0.0000,  0.0000,  0.0000)
  63 Li    14.781895    5.688866   16.980610    ( 0.0000,  0.0000,  0.0000)
  64 Li    14.806816    8.548719   10.000000    ( 0.0000,  0.0000,  0.0000)
  65 Li    17.274619    9.973506   11.007476    ( 0.0000,  0.0000,  0.0000)
  66 Li    19.742421   11.398292   12.014952    ( 0.0000,  0.0000,  0.0000)
  67 Li    14.806816    8.548719   13.022429    ( 0.0000,  0.0000,  0.0000)
  68 Li    17.271788    9.975069   14.027377    ( 0.0000,  0.0000,  0.0000)
  69 Li    19.733248   11.397034   15.096971    ( 0.0000,  0.0000,  0.0000)
  70 Li    14.802434    8.538690   15.834327    ( 0.0000,  0.0000,  0.0000)
  71 Li    17.252749    9.959545   16.949651    ( 0.0000,  0.0000,  0.0000)
  72 Li     3.311276    2.852578   18.588699    ( 0.0000,  0.0000,  0.0000)

Unit cell:
           periodic     x           y           z      points  spacing
  1. axis:    yes   14.806816    0.000000    0.000000    49     0.2617
  2. axis:    yes    7.403408   12.823079    0.000000    49     0.2617
  3. axis:    no     0.000000    0.000000   27.052334    90     0.3006

  Lengths:  14.806816  14.806816  27.052334
  Angles:   90.000000  90.000000  60.000000

Effective grid spacing dv^(1/3) = 0.2875

     iter     time        total  log10-change:
                         energy   eigst   dens
iter:   1 19:09:25  -125.425055   -3.74
iter:   2 19:09:30  -125.419774   -4.42  -2.15
iter:   3 19:09:35  -125.419290c  -4.60  -2.64
iter:   4 19:09:40  -125.418903c  -5.41c -2.83
iter:   5 19:09:45  -125.418835c  -5.14  -3.07
iter:   6 19:09:50  -125.418819c  -5.56c -3.00
iter:   7 19:09:55  -125.418871c  -6.19c -3.38
iter:   8 19:10:00  -125.418842c  -6.34c -3.33
iter:   9 19:10:05  -125.418847c  -7.08c -3.75
iter:  10 19:10:10  -125.418837c  -7.08c -3.85
iter:  11 19:10:15  -125.418822c  -7.19c -3.99
iter:  12 19:10:20  -125.418813c  -6.97c -4.16c

Converged after 12 iterations.

Dipole moment: (-9.443156, -4.780575, 0.251664) |e|*Ang

Energy contributions relative to reference atoms: (reference = -14803.510878)

Kinetic:        +99.493706
Potential:      -89.214290
External:        +0.000000
XC:            -134.663766
Entropy (-ST):   -1.152125
Local:           -0.458401
SIC:             +0.000000
--------------------------
Free energy:   -125.994876
Extrapolated:  -125.418813

Showing all kpts
 Kpt  Band  Eigenvalues  Occupancy
  0    34     -1.83891    1.14011
  0    35     -1.78173    0.85615
  0    36     -1.76698    0.78484
  0    37     -1.73101    0.62137

  1    34     -1.94966    1.60107
  1    35     -1.94687    1.59208
  1    36     -1.85472    1.21663
  1    37     -1.75424    0.72495


Fermi level: -1.81070

No gap
No difference between direct/indirect transitions

Forces in eV/Ang:
  0 Li   -0.00028   -0.00122    0.06255
  1 Li   -0.00392   -0.00582   -0.03470
  2 Li    0.00821    0.00318   -0.07008
  3 Li   -0.01190   -0.00369   -0.11082
  4 Li   -0.01023   -0.01769    0.03521
  5 Li   -0.03857    0.00804    0.08770
  6 Li   -0.05537   -0.03584   -0.04924
  7 Li   -0.07625   -0.07097    0.09513
  8 Li   -0.00469    0.00440    0.07389
  9 Li    0.00309    0.00905    0.09926
 10 Li    0.00604    0.00345   -0.07755
 11 Li   -0.01324    0.01405   -0.09504
 12 Li    0.00570    0.01401    0.05779
 13 Li   -0.00609   -0.00705   -0.01758
 14 Li   -0.01669    0.00412   -0.01405
 15 Li   -0.05991   -0.03929    0.19648
 16 Li   -0.00033   -0.00192    0.04585
 17 Li    0.00285    0.00168    0.18672
 18 Li    0.00312   -0.01771   -0.09873
 19 Li   -0.00587    0.01335   -0.15701
 20 Li   -0.00167    0.00025    0.02776
 21 Li    0.00069   -0.00836   -0.04105
 22 Li    0.00753    0.02531   -0.04301
 23 Li   -0.01080   -0.00076   -0.01725
 24 Li   -0.00004   -0.00511    0.06375
 25 Li    0.00599   -0.00499    0.18204
 26 Li    0.00294   -0.00021   -0.05777
 27 Li    0.01038   -0.00582   -0.11006
 28 Li    0.00568   -0.00342    0.01984
 29 Li   -0.00048    0.00095   -0.00250
 30 Li    0.03454   -0.00535    0.01179
 31 Li   -0.01509   -0.00134    0.00759
 32 Li   -0.00105    0.00035    0.04815
 33 Li   -0.00138   -0.00193    0.18341
 34 Li    0.00522    0.00124   -0.05452
 35 Li    0.00160   -0.00762   -0.16634
 36 Li   -0.00108   -0.00139    0.02733
 37 Li   -0.00014   -0.00266   -0.00235
 38 Li    0.04350   -0.00896   -0.02111
 39 Li    0.00698   -0.00215   -0.00368
 40 Li   -0.00203    0.00566    0.03437
 41 Li   -0.00050    0.00307    0.18588
 42 Li    0.00552   -0.00023   -0.05831
 43 Li    0.00034    0.00233   -0.21370
 44 Li    0.00246    0.00227    0.02725
 45 Li   -0.00411    0.00136   -0.00515
 46 Li    0.00829   -0.01827    0.00449
 47 Li    0.01105   -0.00265   -0.00660
 48 Li   -0.00120    0.00056    0.04008
 49 Li    0.00090    0.00168    0.18410
 50 Li   -0.01053    0.00792   -0.08494
 51 Li   -0.00086   -0.00421   -0.17751
 52 Li   -0.00204   -0.00099    0.02703
 53 Li    0.00729    0.00123   -0.00884
 54 Li   -0.00733    0.00822   -0.00101
 55 Li   -0.01252   -0.00673   -0.00387
 56 Li    0.00342   -0.00333    0.03682
 57 Li   -0.00269    0.00376    0.18293
 58 Li   -0.00380    0.01064   -0.07600
 59 Li    0.00226   -0.00206   -0.19949
 60 Li    0.00065    0.00438    0.01867
 61 Li    0.00706   -0.00774   -0.01987
 62 Li   -0.02120    0.01850    0.00076
 63 Li    0.04499   -0.02680    0.01728
 64 Li   -0.00006   -0.00236    0.04147
 65 Li   -0.00208   -0.00170    0.18405
 66 Li   -0.00032    0.00149   -0.05495
 67 Li    0.00411    0.00108   -0.18873
 68 Li   -0.00095    0.00006    0.02317
 69 Li   -0.00207    0.00128   -0.00214
 70 Li   -0.01619   -0.00182    0.00047
 71 Li   -0.00043    0.00810    0.00332
 72 Li    0.17352    0.15350   -0.17894

System changes: positions 

Initializing position-dependent things.

Density initialized from wave functions
                                                                       
                                                                       
                                                                       
                                                                       
                                                                       
                                                                       
                               Li          Li          Li              
                                                                       
                        Li            Li        LiLi          Li       
                 Li   Li           Lii         Li                      
                             LiLi        LiLi        LiLi              
                Li        LiLi        LiLi        Li          Li       
              Li      LiLi         Lii         Lii                     
       Li          LiLi        LiLi        LiLi        Li              
[...]
  8 Li   -0.00458    0.00393    0.04554
  9 Li    0.00090    0.00373    0.17946
 10 Li    0.00202    0.00537   -0.07270
 11 Li    0.00141   -0.02869   -0.11382
 12 Li    0.00183   -0.00852    0.02029
 13 Li   -0.00100    0.00230    0.01371
 14 Li   -0.00383    0.02631   -0.02057
 15 Li    0.00668    0.04272   -0.00446
 16 Li    0.00247    0.00339    0.04440
 17 Li    0.00072   -0.00012    0.19223
 18 Li    0.00218   -0.00317   -0.05969
 19 Li   -0.06133   -0.01773   -0.17528
 20 Li   -0.00177    0.00468    0.00138
 21 Li    0.00640   -0.01189    0.00400
 22 Li   -0.00949    0.01556    0.00452
 23 Li   -0.00875    0.00076    0.00339
 24 Li   -0.00042   -0.00537    0.04532
 25 Li    0.00159    0.00018    0.18533
 26 Li    0.00466    0.00018   -0.05896
 27 Li    0.00137    0.00090   -0.16398
 28 Li   -0.01551    0.00511   -0.01192
 29 Li    0.00872   -0.02048   -0.00776
 30 Li    0.00996    0.03199    0.02857
 31 Li    0.00431   -0.02130   -0.00009
 32 Li    0.00480    0.00420    0.04607
 33 Li   -0.00692   -0.00379    0.18767
 34 Li    0.00541    0.00185   -0.05646
 35 Li    0.00644   -0.00088   -0.09433
 36 Li   -0.00344   -0.00801    0.00307
 37 Li   -0.00459    0.00336   -0.00184
 38 Li    0.01587   -0.01695    0.00306
 39 Li   -0.00915    0.00458   -0.00774
 40 Li   -0.00055   -0.00078    0.03935
 41 Li    0.00306   -0.00196    0.19764
 42 Li    0.00044   -0.01122   -0.05090
 43 Li   -0.00709    0.00301   -0.19871
 44 Li   -0.00121   -0.00030    0.00357
 45 Li    0.00544   -0.01087   -0.01243
 46 Li    0.00424   -0.00210    0.00895
 47 Li   -0.00055    0.01558   -0.00716
 48 Li    0.00453    0.00161    0.04584
 49 Li    0.00353    0.00019    0.19652
 50 Li   -0.00207    0.00089   -0.07061
 51 Li   -0.05407   -0.06642   -0.17565
 52 Li    0.02556    0.00970   -0.00045
 53 Li    0.00914    0.01398    0.01990
 54 Li    0.04336   -0.03233   -0.02289
 55 Li   -0.00323   -0.00502    0.00404
 56 Li   -0.00006    0.00090    0.03890
 57 Li    0.00050    0.00455    0.19918
 58 Li   -0.00830    0.00764   -0.05940
 59 Li   -0.00526   -0.01237   -0.19576
 60 Li   -0.00661   -0.00177   -0.00671
 61 Li   -0.00816    0.01081   -0.00780
 62 Li   -0.00412    0.00811    0.00659
 63 Li    0.02024   -0.01708   -0.00349
 64 Li    0.00232    0.00115    0.04799
 65 Li    0.01144    0.00646    0.19559
 66 Li    0.00338    0.00342   -0.06166
 67 Li   -0.08547   -0.05754   -0.19355
 68 Li    0.02284    0.00900   -0.00150
 69 Li    0.04743    0.01904   -0.00234
 70 Li   -0.00248   -0.00117    0.00496
 71 Li    0.00313    0.00260   -0.00092
 72 Li   -0.04054    0.05259    0.01793

System changes: positions 

Initializing position-dependent things.

Density initialized from wave functions
                                                                         
                                                                         
                                                                         
                                                                         
                                                                         
                                 Li          Li          Li              
                                                                         
                                       Li           Li         Li        
                       Li Li        LiLi        LiLi                     
                     Li          Li          Li          Li              
                             LiLi       LLiLi       Li Li       Li       
              Li Li       LLi         LLi         Li                     
                      LiLi        LiLi        LiLi                       
       Li           Li         LLii        LiLi        LiLi              
               LiLi        LiLi        LiLi                              
                        LiLi        LiLi        LiLi                     
                      Li          Li          Li                         
        Li       Li Li       Li Li       Li                              
               Li          Li          Li                                
                                                                         
        Li          Li          Li                                       
                                                                         
                                                                         
                                                                         
                                                                         

Atomic positions and initial magnetic moments

Positions:
   0 Li     0.000000    0.000000   10.000000    ( 0.0000,  0.0000,  0.0000)
   1 Li     2.467803    1.424787   11.007476    ( 0.0000,  0.0000,  0.0000)
   2 Li     4.935605    2.849573   12.014952    ( 0.0000,  0.0000,  0.0000)
   3 Li     0.000000    0.000000   13.022429    ( 0.0000,  0.0000,  0.0000)
   4 Li     2.408799    1.357375   14.076867    ( 0.0000,  0.0000,  0.0000)
   5 Li     4.947094    2.825081   14.891089    ( 0.0000,  0.0000,  0.0000)
   6 Li    -0.416231   -0.225123   15.720043    ( 0.0000,  0.0000,  0.0000)
   7 Li     1.890660    1.045162   17.032879    ( 0.0000,  0.0000,  0.0000)
   8 Li     2.467803    4.274360   10.000000    ( 0.0000,  0.0000,  0.0000)
   9 Li     4.935605    5.699146   11.007476    ( 0.0000,  0.0000,  0.0000)
  10 Li     7.403408    7.123933   12.014952    ( 0.0000,  0.0000,  0.0000)
  11 Li     2.467803    4.274360   13.022429    ( 0.0000,  0.0000,  0.0000)
  12 Li     4.926850    5.709867   14.004853    ( 0.0000,  0.0000,  0.0000)
  13 Li     7.418769    7.047757   15.063421    ( 0.0000,  0.0000,  0.0000)
  14 Li     2.457025    3.930764   15.923028    ( 0.0000,  0.0000,  0.0000)
  15 Li     4.698472    5.647221   16.934031    ( 0.0000,  0.0000,  0.0000)
  16 Li     4.935605    8.548719   10.000000    ( 0.0000,  0.0000,  0.0000)
  17 Li     7.403408    9.973506   11.007476    ( 0.0000,  0.0000,  0.0000)
  18 Li     9.871211   11.398292   12.014952    ( 0.0000,  0.0000,  0.0000)
  19 Li     4.935605    8.548719   13.022429    ( 0.0000,  0.0000,  0.0000)
  20 Li     7.353887    9.905645   14.039533    ( 0.0000,  0.0000,  0.0000)
  21 Li     9.725238   11.345217   15.086461    ( 0.0000,  0.0000,  0.0000)
  22 Li     4.965658    8.490291   15.835605    ( 0.0000,  0.0000,  0.0000)
  23 Li     7.479558    9.917901   16.975038    ( 0.0000,  0.0000,  0.0000)
  24 Li     4.935605    0.000000   10.000000    ( 0.0000,  0.0000,  0.0000)
  25 Li     7.403408    1.424787   11.007476    ( 0.0000,  0.0000,  0.0000)
  26 Li     9.871211    2.849573   12.014952    ( 0.0000,  0.0000,  0.0000)
  27 Li     4.935605    0.000000   13.022429    ( 0.0000,  0.0000,  0.0000)
  28 Li     7.429484    1.403736   14.014637    ( 0.0000,  0.0000,  0.0000)
  29 Li     9.796885    2.918602   15.107017    ( 0.0000,  0.0000,  0.0000)
  30 Li     4.757956    0.057504   15.864472    ( 0.0000,  0.0000,  0.0000)
  31 Li     7.450673    1.300962   16.904098    ( 0.0000,  0.0000,  0.0000)
  32 Li     7.403408    4.274360   10.000000    ( 0.0000,  0.0000,  0.0000)
  33 Li     9.871211    5.699146   11.007476    ( 0.0000,  0.0000,  0.0000)
  34 Li    12.339013    7.123933   12.014952    ( 0.0000,  0.0000,  0.0000)
  35 Li     7.403408    4.274360   13.022429    ( 0.0000,  0.0000,  0.0000)
  36 Li     9.881829    5.707401   14.035663    ( 0.0000,  0.0000,  0.0000)
  37 Li    12.351004    7.110622   15.065745    ( 0.0000,  0.0000,  0.0000)
  38 Li     7.184191    4.201126   15.983035    ( 0.0000,  0.0000,  0.0000)
  39 Li     9.814436    5.624183   16.958799    ( 0.0000,  0.0000,  0.0000)
  40 Li     9.871211    8.548719   10.000000    ( 0.0000,  0.0000,  0.0000)
  41 Li    12.339013    9.973506   11.007476    ( 0.0000,  0.0000,  0.0000)
  42 Li    14.806816   11.398292   12.014952    ( 0.0000,  0.0000,  0.0000)
  43 Li     9.871211    8.548719   13.022429    ( 0.0000,  0.0000,  0.0000)
  44 Li    12.304544    9.992559   14.059985    ( 0.0000,  0.0000,  0.0000)
  45 Li    14.746974   11.408220   15.118216    ( 0.0000,  0.0000,  0.0000)
  46 Li     9.894040    8.489118   15.821621    ( 0.0000,  0.0000,  0.0000)
  47 Li    12.288503   10.028530   16.986514    ( 0.0000,  0.0000,  0.0000)
  48 Li     9.871211    0.000000   10.000000    ( 0.0000,  0.0000,  0.0000)
  49 Li    12.339013    1.424787   11.007476    ( 0.0000,  0.0000,  0.0000)
  50 Li    14.806816    2.849573   12.014952    ( 0.0000,  0.0000,  0.0000)
  51 Li     9.871211    0.000000   13.022429    ( 0.0000,  0.0000,  0.0000)
  52 Li    12.219423    1.410442   14.049774    ( 0.0000,  0.0000,  0.0000)
  53 Li    14.690499    2.723680   15.052189    ( 0.0000,  0.0000,  0.0000)
  54 Li     9.875337    0.017633   15.837982    ( 0.0000,  0.0000,  0.0000)
  55 Li    12.298108    1.516328   16.994391    ( 0.0000,  0.0000,  0.0000)
  56 Li    12.339013    4.274360   10.000000    ( 0.0000,  0.0000,  0.0000)
  57 Li    14.806816    5.699146   11.007476    ( 0.0000,  0.0000,  0.0000)
  58 Li    17.274619    7.123933   12.014952    ( 0.0000,  0.0000,  0.0000)
  59 Li    12.339013    4.274360   13.022429    ( 0.0000,  0.0000,  0.0000)
  60 Li    14.816451    5.646290   14.051555    ( 0.0000,  0.0000,  0.0000)
  61 Li    17.250654    7.014158   15.108053    ( 0.0000,  0.0000,  0.0000)
  62 Li    12.335721    4.301199   15.823616    ( 0.0000,  0.0000,  0.0000)
  63 Li    14.880198    5.619730   16.960187    ( 0.0000,  0.0000,  0.0000)
  64 Li    14.806816    8.548719   10.000000    ( 0.0000,  0.0000,  0.0000)
  65 Li    17.274619    9.973506   11.007476    ( 0.0000,  0.0000,  0.0000)
  66 Li    19.742421   11.398292   12.014952    ( 0.0000,  0.0000,  0.0000)
  67 Li    14.806816    8.548719   13.022429    ( 0.0000,  0.0000,  0.0000)
  68 Li    17.155410    9.890797   14.029387    ( 0.0000,  0.0000,  0.0000)
  69 Li    19.494899   11.245383   14.981966    ( 0.0000,  0.0000,  0.0000)
  70 Li    14.764738    8.515292   15.842161    ( 0.0000,  0.0000,  0.0000)
  71 Li    17.238998    9.920529   16.937587    ( 0.0000,  0.0000,  0.0000)
  72 Li     4.703062    2.561442   17.628313    ( 0.0000,  0.0000,  0.0000)

Unit cell:
           periodic     x           y           z      points  spacing
  1. axis:    yes   14.806816    0.000000    0.000000    49     0.2617
  2. axis:    yes    7.403408   12.823079    0.000000    49     0.2617
  3. axis:    no     0.000000    0.000000   27.052334    90     0.3006

  Lengths:  14.806816  14.806816  27.052334
  Angles:   90.000000  90.000000  60.000000

Effective grid spacing dv^(1/3) = 0.2875

     iter     time        total  log10-change:
                         energy   eigst   dens
iter:   1 23:03:56  -125.972819   -2.79
iter:   2 23:04:10  -125.950796   -4.11  -1.78
iter:   3 23:04:24  -125.942972c  -3.39  -1.96
iter:   4 23:04:35  -125.941175c  -4.52  -2.30
iter:   5 23:04:47  -125.941326c  -4.25  -2.44
iter:   6 23:04:58  -125.940424c  -4.61  -2.67
iter:   7 23:05:09  -125.940032c  -5.27  -2.61
iter:   8 23:05:21  -125.940357c  -5.25  -2.99
iter:   9 23:05:32  -125.940289c  -6.15c -3.11
iter:  10 23:05:43  -125.940230c  -6.22c -3.21
iter:  11 23:05:54  -125.940271c  -6.48c -3.36
iter:  12 23:06:04  -125.940232c  -6.87c -3.53
iter:  13 23:06:14  -125.940199c  -7.04c -3.63
iter:  14 23:06:25  -125.940187c  -6.96c -3.72
iter:  15 23:06:35  -125.940202c  -7.07c -3.93
iter:  16 23:06:45  -125.940215c  -7.26c -4.08c

Converged after 16 iterations.

Dipole moment: (-9.832483, -4.505241, 0.029062) |e|*Ang

Energy contributions relative to reference atoms: (reference = -14803.510878)

Kinetic:        +99.065304
Potential:      -89.073471
External:        +0.000000
XC:            -134.901725
Entropy (-ST):   -1.145079
Local:           -0.457783
SIC:             +0.000000
--------------------------
Free energy:   -126.512755
Extrapolated:  -125.940215

Showing all kpts
 Kpt  Band  Eigenvalues  Occupancy
  0    34     -1.85505    1.12890
  0    35     -1.79606    0.83616
  0    36     -1.77802    0.74989
  0    37     -1.72858    0.53576

  1    34     -1.96378    1.58713
  1    35     -1.96154    1.57974
  1    36     -1.86862    1.19496
  1    37     -1.77581    0.73956


Fermi level: -1.82913

No gap
No difference between direct/indirect transitions

Forces in eV/Ang:
  0 Li    0.00078    0.00054    0.03674
  1 Li   -0.00129    0.00052    0.20595
  2 Li    0.00068   -0.00162   -0.12576
  3 Li   -0.02924   -0.00984   -0.22130
  4 Li    0.01304    0.01581   -0.00905
  5 Li   -0.00815   -0.00065    0.00117
  6 Li    0.03900    0.02272    0.01687
  7 Li    0.04152    0.00275   -0.04214
  8 Li   -0.00439    0.00409    0.04513
  9 Li    0.00085    0.00292    0.17795
 10 Li    0.00222    0.00603   -0.07329
 11 Li    0.00305   -0.03038   -0.11400
 12 Li    0.00130   -0.01175    0.01856
 13 Li   -0.00333    0.00324    0.01591
 14 Li   -0.00055    0.03437   -0.01996
 15 Li    0.00866    0.04381   -0.00025
 16 Li    0.00237    0.00318    0.04477
 17 Li    0.00026   -0.00027    0.19182
 18 Li    0.00155   -0.00342   -0.05286
 19 Li   -0.05805   -0.01497   -0.18290
 20 Li   -0.00293    0.00343    0.00297
 21 Li    0.01299   -0.00809   -0.00194
 22 Li   -0.00984    0.01267    0.00751
 23 Li   -0.00884    0.00151    0.00168
 24 Li   -0.00029   -0.00525    0.04489
 25 Li    0.00087    0.00058    0.18100
 26 Li    0.00490    0.00035   -0.06057
 27 Li   -0.00190    0.00244   -0.16636
 28 Li   -0.01650    0.00589   -0.00613
 29 Li    0.00819   -0.02144   -0.00652
 30 Li    0.01421    0.03284    0.03760
 31 Li   -0.02554   -0.00366    0.01878
 32 Li    0.00464    0.00419    0.04660
 33 Li   -0.00677   -0.00345    0.18710
 34 Li    0.00591    0.00264   -0.05739
 35 Li    0.00715   -0.00008   -0.09437
 36 Li   -0.00462   -0.00773    0.00417
 37 Li   -0.00452    0.00364   -0.00182
 38 Li    0.01772   -0.01130    0.00159
 39 Li   -0.00876    0.00362   -0.00682
 40 Li   -0.00058   -0.00095    0.03969
 41 Li    0.00353   -0.00218    0.19859
 42 Li    0.00013   -0.01174   -0.05215
 43 Li   -0.00757    0.00054   -0.19894
 44 Li    0.00191   -0.00055    0.00216
 45 Li    0.00820   -0.01116   -0.01601
 46 Li    0.00514   -0.00224    0.01149
 47 Li   -0.00111    0.01391   -0.01030
 48 Li    0.00422    0.00153    0.04639
 49 Li    0.00296   -0.00014    0.19591
 50 Li   -0.00201    0.00055   -0.06512
 51 Li   -0.04931   -0.06196   -0.18194
 52 Li    0.02537    0.00543    0.00075
 53 Li    0.00812    0.01553    0.01501
 54 Li    0.03865   -0.02799   -0.02210
 55 Li   -0.00387   -0.00538    0.00048
 56 Li   -0.00032    0.00107    0.03962
 57 Li    0.00059    0.00510    0.19740
 58 Li   -0.00856    0.00792   -0.06196
 59 Li   -0.00545   -0.01001   -0.19584
 60 Li   -0.00813   -0.00042   -0.00436
 61 Li   -0.00751    0.01253   -0.00738
 62 Li   -0.00245    0.00809    0.00659
 63 Li    0.02007   -0.01672   -0.00095
 64 Li    0.00205    0.00090    0.04704
 65 Li    0.01107    0.00621    0.19523
 66 Li    0.00223    0.00292   -0.06446
 67 Li   -0.08145   -0.05351   -0.19166
 68 Li    0.01647    0.00435   -0.00275
 69 Li    0.05575    0.00781   -0.00117
 70 Li   -0.00364   -0.00209    0.00816
 71 Li    0.00406    0.00486   -0.00034
 72 Li   -0.02592    0.02685    0.02772

Timing:                                      incl.     excl.
-------------------------------------------------------------------
Density initialized from wave functions:    43.536    43.530   0.2% |
 Symmetrize density:                         0.006     0.006   0.0% |
Forces:                                    169.748   169.748   0.8% |
Hamiltonian:                                62.615     0.600   0.0% |
 Atomic:                                    26.338     0.124   0.0% |
  XC Correction:                            26.214    26.214   0.1% |
 Calculate atomic Hamiltonians:             22.342    22.342   0.1% |
 Communicate:                                0.001     0.001   0.0% |
 Initialize Hamiltonian:                     0.008     0.008   0.0% |
 Poisson:                                    1.933     1.933   0.0% |
 XC 3D grid:                                11.394    11.394   0.1% |
LCAO initialization:                        22.841     0.006   0.0% |
 LCAO eigensolver:                           0.420     0.000   0.0% |
  Calculate projections:                     0.004     0.004   0.0% |
  DenseAtomicCorrection:                     0.044     0.044   0.0% |
  Distribute overlap matrix:                 0.000     0.000   0.0% |
  Orbital Layouts:                           0.077     0.077   0.0% |
  Potential matrix:                          0.290     0.290   0.0% |
  Sum over cells:                            0.003     0.003   0.0% |
 LCAO to grid:                              21.790    21.790   0.1% |
 Set positions (LCAO WFS):                   0.625     0.164   0.0% |
  Basic WFS set positions:                   0.001     0.001   0.0% |
  Basis functions set positions:             0.000     0.000   0.0% |
  P tci:                                     0.309     0.309   0.0% |
  ST tci:                                    0.129     0.129   0.0% |
  mktci:                                     0.022     0.022   0.0% |
PWDescriptor:                                0.017     0.017   0.0% |
Redistribute:                                0.104     0.104   0.0% |
SCF-cycle:                                3258.375     0.629   0.0% |
 Davidson:                                1957.545   359.335   1.7% ||
  Apply H:                                 345.498   342.018   1.6% ||
   HMM T:                                    3.479     3.479   0.0% |
  Subspace diag:                           393.844     0.171   0.0% |
   calc_h_matrix:                          366.184    21.915   0.1% |
    Apply H:                               344.269   339.956   1.6% ||
     HMM T:                                  4.313     4.313   0.0% |
   diagonalize:                              0.848     0.848   0.0% |
   rotate_psi:                              26.641    26.641   0.1% |
  calc. matrices:                          800.092   106.582   0.5% |
   Apply H:                                693.510   686.712   3.2% ||
    HMM T:                                   6.798     6.798   0.0% |
  diagonalize:                               6.414     6.414   0.0% |
  rotate_psi:                               52.364    52.364   0.2% |
 Density:                                  460.146     0.007   0.0% |
  Atomic density matrices:                   1.508     1.508   0.0% |
  Mix:                                     291.513   291.513   1.4% ||
  Multipole moments:                         0.333     0.333   0.0% |
  Pseudo density:                          166.784   166.776   0.8% |
   Symmetrize density:                       0.008     0.008   0.0% |
 Hamiltonian:                              825.882     1.976   0.0% |
  Atomic:                                  356.786     1.395   0.0% |
   XC Correction:                          355.391   355.391   1.7% ||
  Calculate atomic Hamiltonians:           319.408   319.408   1.5% ||
  Communicate:                               0.003     0.003   0.0% |
  Poisson:                                   1.284     1.284   0.0% |
  XC 3D grid:                              146.425   146.425   0.7% |
 Orthonormalize:                            14.173     0.014   0.0% |
  calc_s_matrix:                             0.833     0.833   0.0% |
  inverse-cholesky:                          0.041     0.041   0.0% |
  projections:                               8.605     8.605   0.0% |
  rotate_psi_s:                              4.680     4.680   0.0% |
Set symmetry:                                0.000     0.000   0.0% |
Other:                                   17719.495 17719.495  83.3% |--------------------------------|
-------------------------------------------------------------------
Total:                                             21276.731 100.0%

Memory usage: 4.13 GiB
Date: Tue Nov 25 00:17:01 2025
