
  ___ ___ ___ _ _ _  
 |   |   |_  | | | | 
 | | | | | . | | | | 
 |__ |  _|___|_____|  25.7.0
 |___|_|             

User:   tew@Mathuss-MacBook-Air-357.local
Date:   Mon Nov 24 13:55:32 2025
Arch:   arm64
Pid:    76608
CWD:    /Users/tew/Documents/Project/GitHub/chem-com
Python: 3.13.5
gpaw:   /Users/tew/Documents/Project/GitHub/chem-com/.venv/lib/python3.13/site-packages/gpaw
_gpaw:  /Users/tew/Documents/Project/GitHub/chem-com/.venv/lib/python3.13/site-packages/
        _gpaw.cpython-313-darwin.so
ase:    /Users/tew/Documents/Project/GitHub/chem-com/.venv/lib/python3.13/site-packages/ase (version 3.26.0)
numpy:  /Users/tew/Documents/Project/GitHub/chem-com/.venv/lib/python3.13/site-packages/numpy (version 2.3.5)
scipy:  /Users/tew/Documents/Project/GitHub/chem-com/.venv/lib/python3.13/site-packages/scipy (version 1.16.3)
libxc:  2.x.y
units:  Angstrom and eV
cores: 1
OpenMP: False
OMP_NUM_THREADS: 1

Input parameters:
  convergence: {density: 0.0001,
                eigenstates: 5e-06}
  kpts: [2 2 1]
  mode: {ecut: 200.0,
         name: pw}
  xc: PBE

System changes: positions, numbers, cell, pbc, initial_charges, initial_magmoms 

Initialize ...

species:
  Li:
    name: Lithium
    id: 830b4218f175192f93f959cfc0aad614
    Z: 3.0
    valence: 1
    core: 2
    charge: 0.0
    file: /Users/tew/Documents/Project/GitHub/chem-com/.venv/lib/python3.13/site-packages/gpaw_data/setups/Li.PBE.gz
    compensation charges: {type: gauss,
                           rc: 0.33,
                           lmax: 2}
    cutoffs: {filter: 1.91,
              core: 2.55}
    projectors:
      #              energy  rcut
      - 2s(1.00)    -2.874   1.058
      - 2p(0.00)    -1.090   1.058
      -  s          24.337   1.058
  
    # Using partial waves for Li as LCAO basis

Reference energy: -14803.510878  # eV

Spin-paired calculation

Convergence criteria:
 Maximum [total energy] change in last 3 cyles: 0.0005 eV / valence electron
 Maximum integral of absolute [dens]ity change: 0.0001 electrons / valence electron
 Maximum integral of absolute [eigenst]ate change: 5e-06 eV^2 / valence electron
 Maximum number of scf [iter]ations: 333
 (Square brackets indicate name in SCF output, whereas a 'c' in
 the SCF output indicates the quantity has converged.)

Symmetries present (total): 2

  ( 1  0  0)  ( 0  1  0)
  ( 0  1  0)  ( 1  0  0)
  ( 0  0  1)  ( 0  0  1)

4 k-points: 2 x 2 x 1 Monkhorst-Pack grid
2 k-points in the irreducible part of the Brillouin zone
       k-points in crystal coordinates                weights
   0:     0.25000000   -0.25000000    0.00000000          2/4
   1:     0.25000000    0.25000000    0.00000000          2/4

Wave functions: Plane wave expansion
  Cutoff energy: 200.000 eV
  Number of coefficients (min, max): 33010, 33019
  Pulay-stress correction: 0.000000 eV/Ang^3 (de/decut=0.000000)
  Using Numpy's FFT
  ScaLapack parameters: grid=1x1, blocksize=None
  Wavefunction extrapolation:
    Improved wavefunction reuse through dual PAW basis 

Occupation numbers: Fermi-Dirac:
  width: 0.1000  # eV
 

Eigensolver
   Davidson(niter=2) 

Densities:
  Coarse grid: 49*49*90 grid
  Fine grid: 98*98*180 grid
  Total Charge: 0.000000 

Density mixing:
  Method: separate
  Backend: pulay
  Linear mixing parameter: 0.05
  old densities: 5
  Damping of long wavelength oscillations: 50 

Hamiltonian:
  XC and Coulomb potentials evaluated on a 98*98*180 grid
  Using the PBE Exchange-Correlation functional
  External potential:
    NoExternalPotential
 

XC parameters: PBE with 2 nearest neighbor stencil

Memory estimate:
  Process memory now: 2373.62 MiB
  Calculator: 211.72 MiB
    Density: 94.25 MiB
      Arrays: 42.86 MiB
      Localized functions: 34.90 MiB
      Mixer: 16.49 MiB
    Hamiltonian: 28.74 MiB
      Arrays: 28.03 MiB
      XC: 0.00 MiB
      Poisson: 0.00 MiB
      vbar: 0.71 MiB
    Wavefunctions: 88.74 MiB
      Arrays psit_nG: 48.37 MiB
      Eigensolver: 27.06 MiB
      Projections: 0.53 MiB
      Projectors: 3.53 MiB
      PW-descriptor: 9.25 MiB

Total number of cores used: 1

Number of atoms: 73
Number of atomic orbitals: 292
Number of bands in calculation: 48
Number of valence electrons: 73
Bands to converge: occupied

... initialized

Initializing position-dependent things.

Density initialized from atomic densities
Creating initial wave functions:
  48 bands from LCAO basis set

                                                                       
                                                                       
                                                                       
                                                                       
                                                                       
                                                                       
                                                                       
                               Li          Li          Li              
                                                                       
              Li      LiLi         LiiLi       LiiLi          Li       
                                                                       
                Li          LiiLi       LiiLi        LiLi              
              Li          Li          Li          Li          Li       
                      LiLi         Lii         Lii                     
       Li          LiLi        LiLi        LiLi        Li              
                Li          Lii         Lii          Li                
              Li        LiLi        LiLi        Li                     
                     Lii         LiLi        LiLi                      
       Li          Li          Li                                      
              LiLi        LiLi        LiLi                             
                                                                       
       Li          Li          Li                                      
                                                                       
                                                                       
                                                                       
                                                                       

Atomic positions and initial magnetic moments

Positions:
   0 Li     0.000000    0.000000   10.000000    ( 0.0000,  0.0000,  0.0000)
   1 Li     2.467803    1.424787   11.007476    ( 0.0000,  0.0000,  0.0000)
   2 Li     4.935605    2.849573   12.014952    ( 0.0000,  0.0000,  0.0000)
   3 Li     0.000000    0.000000   13.022429    ( 0.0000,  0.0000,  0.0000)
   4 Li     2.467803    1.424787   14.029905    ( 0.0000,  0.0000,  0.0000)
   5 Li     4.935605    2.849573   15.037381    ( 0.0000,  0.0000,  0.0000)
   6 Li     0.000000    0.000000   16.044857    ( 0.0000,  0.0000,  0.0000)
   7 Li     2.467803    1.424787   17.052334    ( 0.0000,  0.0000,  0.0000)
   8 Li     2.467803    4.274360   10.000000    ( 0.0000,  0.0000,  0.0000)
   9 Li     4.935605    5.699146   11.007476    ( 0.0000,  0.0000,  0.0000)
  10 Li     7.403408    7.123933   12.014952    ( 0.0000,  0.0000,  0.0000)
  11 Li     2.467803    4.274360   13.022429    ( 0.0000,  0.0000,  0.0000)
  12 Li     4.935605    5.699146   14.029905    ( 0.0000,  0.0000,  0.0000)
  13 Li     7.403408    7.123933   15.037381    ( 0.0000,  0.0000,  0.0000)
  14 Li     2.467803    4.274360   16.044857    ( 0.0000,  0.0000,  0.0000)
  15 Li     4.935605    5.699146   17.052334    ( 0.0000,  0.0000,  0.0000)
  16 Li     4.935605    8.548719   10.000000    ( 0.0000,  0.0000,  0.0000)
  17 Li     7.403408    9.973506   11.007476    ( 0.0000,  0.0000,  0.0000)
  18 Li     9.871211   11.398292   12.014952    ( 0.0000,  0.0000,  0.0000)
  19 Li     4.935605    8.548719   13.022429    ( 0.0000,  0.0000,  0.0000)
  20 Li     7.403408    9.973506   14.029905    ( 0.0000,  0.0000,  0.0000)
  21 Li     9.871211   11.398292   15.037381    ( 0.0000,  0.0000,  0.0000)
  22 Li     4.935605    8.548719   16.044857    ( 0.0000,  0.0000,  0.0000)
  23 Li     7.403408    9.973506   17.052334    ( 0.0000,  0.0000,  0.0000)
  24 Li     4.935605    0.000000   10.000000    ( 0.0000,  0.0000,  0.0000)
  25 Li     7.403408    1.424787   11.007476    ( 0.0000,  0.0000,  0.0000)
  26 Li     9.871211    2.849573   12.014952    ( 0.0000,  0.0000,  0.0000)
  27 Li     4.935605    0.000000   13.022429    ( 0.0000,  0.0000,  0.0000)
  28 Li     7.403408    1.424787   14.029905    ( 0.0000,  0.0000,  0.0000)
  29 Li     9.871211    2.849573   15.037381    ( 0.0000,  0.0000,  0.0000)
  30 Li     4.935605    0.000000   16.044857    ( 0.0000,  0.0000,  0.0000)
  31 Li     7.403408    1.424787   17.052334    ( 0.0000,  0.0000,  0.0000)
  32 Li     7.403408    4.274360   10.000000    ( 0.0000,  0.0000,  0.0000)
  33 Li     9.871211    5.699146   11.007476    ( 0.0000,  0.0000,  0.0000)
  34 Li    12.339013    7.123933   12.014952    ( 0.0000,  0.0000,  0.0000)
  35 Li     7.403408    4.274360   13.022429    ( 0.0000,  0.0000,  0.0000)
  36 Li     9.871211    5.699146   14.029905    ( 0.0000,  0.0000,  0.0000)
  37 Li    12.339013    7.123933   15.037381    ( 0.0000,  0.0000,  0.0000)
  38 Li     7.403408    4.274360   16.044857    ( 0.0000,  0.0000,  0.0000)
  39 Li     9.871211    5.699146   17.052334    ( 0.0000,  0.0000,  0.0000)
  40 Li     9.871211    8.548719   10.000000    ( 0.0000,  0.0000,  0.0000)
  41 Li    12.339013    9.973506   11.007476    ( 0.0000,  0.0000,  0.0000)
  42 Li    14.806816   11.398292   12.014952    ( 0.0000,  0.0000,  0.0000)
  43 Li     9.871211    8.548719   13.022429    ( 0.0000,  0.0000,  0.0000)
  44 Li    12.339013    9.973506   14.029905    ( 0.0000,  0.0000,  0.0000)
  45 Li    14.806816   11.398292   15.037381    ( 0.0000,  0.0000,  0.0000)
  46 Li     9.871211    8.548719   16.044857    ( 0.0000,  0.0000,  0.0000)
  47 Li    12.339013    9.973506   17.052334    ( 0.0000,  0.0000,  0.0000)
  48 Li     9.871211    0.000000   10.000000    ( 0.0000,  0.0000,  0.0000)
  49 Li    12.339013    1.424787   11.007476    ( 0.0000,  0.0000,  0.0000)
  50 Li    14.806816    2.849573   12.014952    ( 0.0000,  0.0000,  0.0000)
  51 Li     9.871211    0.000000   13.022429    ( 0.0000,  0.0000,  0.0000)
  52 Li    12.339013    1.424787   14.029905    ( 0.0000,  0.0000,  0.0000)
  53 Li    14.806816    2.849573   15.037381    ( 0.0000,  0.0000,  0.0000)
  54 Li     9.871211    0.000000   16.044857    ( 0.0000,  0.0000,  0.0000)
  55 Li    12.339013    1.424787   17.052334    ( 0.0000,  0.0000,  0.0000)
  56 Li    12.339013    4.274360   10.000000    ( 0.0000,  0.0000,  0.0000)
  57 Li    14.806816    5.699146   11.007476    ( 0.0000,  0.0000,  0.0000)
  58 Li    17.274619    7.123933   12.014952    ( 0.0000,  0.0000,  0.0000)
  59 Li    12.339013    4.274360   13.022429    ( 0.0000,  0.0000,  0.0000)
  60 Li    14.806816    5.699146   14.029905    ( 0.0000,  0.0000,  0.0000)
  61 Li    17.274619    7.123933   15.037381    ( 0.0000,  0.0000,  0.0000)
  62 Li    12.339013    4.274360   16.044857    ( 0.0000,  0.0000,  0.0000)
  63 Li    14.806816    5.699146   17.052334    ( 0.0000,  0.0000,  0.0000)
  64 Li    14.806816    8.548719   10.000000    ( 0.0000,  0.0000,  0.0000)
  65 Li    17.274619    9.973506   11.007476    ( 0.0000,  0.0000,  0.0000)
  66 Li    19.742421   11.398292   12.014952    ( 0.0000,  0.0000,  0.0000)
  67 Li    14.806816    8.548719   13.022429    ( 0.0000,  0.0000,  0.0000)
  68 Li    17.274619    9.973506   14.029905    ( 0.0000,  0.0000,  0.0000)
  69 Li    19.742421   11.398292   15.037381    ( 0.0000,  0.0000,  0.0000)
  70 Li    14.806816    8.548719   16.044857    ( 0.0000,  0.0000,  0.0000)
  71 Li    17.274619    9.973506   17.052334    ( 0.0000,  0.0000,  0.0000)
  72 Li     2.467803    1.424787   19.052334    ( 0.0000,  0.0000,  0.0000)

Unit cell:
           periodic     x           y           z      points  spacing
  1. axis:    yes   14.806816    0.000000    0.000000    49     0.2617
  2. axis:    yes    7.403408   12.823079    0.000000    49     0.2617
  3. axis:    no     0.000000    0.000000   27.052334    90     0.3006

  Lengths:  14.806816  14.806816  27.052334
  Angles:   90.000000  90.000000  60.000000

Effective grid spacing dv^(1/3) = 0.2875

     iter     time        total  log10-change:
                         energy   eigst   dens
iter:   1 13:56:09  -132.946128
iter:   2 13:56:15  -128.708127   -0.96  -0.53
iter:   3 13:56:24  -125.043697   -0.81  -0.64
iter:   4 13:56:32  -125.551903   -1.54  -0.90
iter:   5 13:56:39  -125.488235   -1.97  -0.90
iter:   6 13:56:46  -124.811079   -1.24  -0.90
iter:   7 13:56:53  -124.301203   -2.31  -1.09
iter:   8 13:56:59  -124.357747   -2.11  -1.32
iter:   9 13:57:06  -124.486335   -2.08  -1.43
iter:  10 13:57:12  -124.297152   -2.47  -1.29
iter:  11 13:57:18  -124.338419   -3.08  -1.73
iter:  12 13:57:24  -124.303837   -3.13  -1.64
iter:  13 13:57:30  -124.305289c  -3.63  -2.12
iter:  14 13:57:37  -124.301365c  -3.98  -2.21
iter:  15 13:57:43  -124.302213c  -4.23  -2.37
iter:  16 13:57:51  -124.301170c  -4.50  -2.47
iter:  17 13:57:57  -124.300815c  -4.47  -2.61
iter:  18 13:58:04  -124.301295c  -4.72  -2.65
iter:  19 13:58:12  -124.301315c  -5.09  -2.87
iter:  20 13:58:19  -124.301270c  -5.22  -2.95
iter:  21 13:58:26  -124.301458c  -5.26  -3.03
iter:  22 13:58:34  -124.301115c  -5.10  -3.23
iter:  23 13:58:41  -124.301123c  -5.45c -3.41
iter:  24 13:58:48  -124.301118c  -5.23  -3.51
iter:  25 13:58:54  -124.301027c  -5.51c -3.60
iter:  26 13:59:00  -124.301010c  -5.63c -3.67
iter:  27 13:59:06  -124.300943c  -5.70c -3.77
iter:  28 13:59:13  -124.300898c  -5.65c -3.85
iter:  29 13:59:20  -124.300879c  -5.77c -3.94
iter:  30 13:59:28  -124.300851c  -5.78c -3.98
iter:  31 13:59:36  -124.300820c  -5.88c -4.03c

Converged after 31 iterations.

Dipole moment: (-10.913552, -6.300942, 0.209525) |e|*Ang

Energy contributions relative to reference atoms: (reference = -14803.510878)

Kinetic:        +92.308157
Potential:      -83.913802
External:        +0.000000
XC:            -131.661622
Entropy (-ST):   -1.176455
Local:           -0.445326
SIC:             +0.000000
--------------------------
Free energy:   -124.889047
Extrapolated:  -124.300820

Showing all kpts
 Kpt  Band  Eigenvalues  Occupancy
  0    34     -1.89190    1.32864
  0    35     -1.78494    0.80891
  0    36     -1.74011    0.60506
  0    37     -1.73890    0.59999

  1    34     -1.91856    1.44191
  1    35     -1.91778    1.43876
  1    36     -1.88535    1.29915
  1    37     -1.80715    0.91773


Fermi level: -1.82364

No gap
No difference between direct/indirect transitions

Forces in eV/Ang:
  0 Li   -0.00409   -0.00236    0.04550
  1 Li   -0.00068   -0.00039    0.16639
  2 Li    0.00717    0.00414   -0.09631
  3 Li    0.00735    0.00424   -0.03990
  4 Li   -0.00256   -0.00148   -0.03271
  5 Li    0.00233    0.00134    0.10095
  6 Li    0.06754    0.03899   -0.04821
  7 Li   -0.00114   -0.00066   -2.16394
  8 Li   -0.00136    0.00507    0.04386
  9 Li   -0.00410   -0.00089    0.19166
 10 Li    0.00269    0.00265   -0.09347
 11 Li   -0.00018   -0.00723   -0.03960
 12 Li   -0.00199    0.00090    0.06931
 13 Li   -0.00658    0.00158    0.09739
 14 Li   -0.00208   -0.07490   -0.04861
 15 Li   -0.01921   -0.02332   -0.01577
 16 Li    0.00034   -0.00106    0.03802
 17 Li    0.00093    0.00284    0.19144
 18 Li    0.00251   -0.00476   -0.09830
 19 Li    0.00125    0.00048   -0.07395
 20 Li   -0.00141   -0.00017    0.06914
 21 Li   -0.00165   -0.00727    0.10023
 22 Li    0.00289   -0.00140   -0.19664
 23 Li    0.01155    0.02911   -0.01556
 24 Li    0.00371   -0.00371    0.04386
 25 Li   -0.00282   -0.00310    0.19166
 26 Li    0.00364    0.00100   -0.09347
 27 Li   -0.00635    0.00346   -0.03960
 28 Li   -0.00022   -0.00217    0.06931
 29 Li   -0.00193   -0.00649    0.09739
 30 Li   -0.06591    0.03565   -0.04861
 31 Li   -0.02980   -0.00498   -0.01577
 32 Li   -0.00552   -0.00319    0.03781
 33 Li    0.00086    0.00050    0.20032
 34 Li    0.00374    0.00216   -0.09285
 35 Li   -0.00040   -0.00023   -0.06847
 36 Li    0.00030    0.00018    0.06948
 37 Li    0.00175    0.00101    0.09661
 38 Li    0.00986    0.00569   -0.20040
 39 Li   -0.00027   -0.00016   -0.04065
 40 Li   -0.00049    0.00724    0.03543
 41 Li   -0.00011    0.00300    0.19213
 42 Li    0.00131    0.00108   -0.09659
 43 Li    0.00155    0.00193   -0.06783
 44 Li    0.00118    0.00017    0.06931
 45 Li   -0.00205   -0.00325    0.08387
 46 Li    0.00004   -0.01003   -0.20086
 47 Li   -0.01114    0.03057   -0.01757
 48 Li   -0.00075    0.00082    0.03802
 49 Li    0.00292   -0.00061    0.19144
 50 Li   -0.00286    0.00455   -0.09830
 51 Li    0.00104    0.00084   -0.07395
 52 Li   -0.00085   -0.00113    0.06914
 53 Li   -0.00712    0.00221    0.10023
 54 Li    0.00023    0.00320   -0.19664
 55 Li    0.03099   -0.00455   -0.01556
 56 Li    0.00603   -0.00404    0.03543
 57 Li    0.00255   -0.00160    0.19213
 58 Li    0.00159    0.00059   -0.09659
 59 Li    0.00244    0.00037   -0.06783
 60 Li    0.00074    0.00094    0.06931
 61 Li   -0.00384   -0.00015    0.08387
 62 Li   -0.00867    0.00505   -0.20086
 63 Li    0.02090   -0.02494   -0.01757
 64 Li   -0.00078   -0.00045    0.03809
 65 Li   -0.00096   -0.00055    0.19409
 66 Li    0.00349    0.00201   -0.09586
 67 Li   -0.00048   -0.00028   -0.07550
 68 Li   -0.00128   -0.00074    0.07360
 69 Li   -0.00424   -0.00245    0.08618
 70 Li   -0.00274   -0.00158   -0.19516
 71 Li    0.00038    0.00022   -0.04166
 72 Li    0.00084    0.00048    1.64899

System changes: positions 

Initializing position-dependent things.

Density initialized from wave functions
                                                                       
                                                                       
                                                                       
                                                                       
                                                                       
                                                                       
                                                                       
                               Li          Li          Li              
                                                                       
              Li      LiLi        LiLiLi       LiiLi          Li       
                                                                       
                Li          LiiLi       LiiLi        LiLi              
              Li          Li          Li          Li          Li       
                      LiLi         Lii         Lii                     
       Li          LiLi        LiLi        LiLi        Li              
                Li          Lii         Lii          Li                
              Li        LiLi        LiLi        Li                     
                     Lii         LiLi        LiLi                      
       Li          Li          Li                                      
              LiLi        LiLi        LiLi                             
                                                                       
       Li          Li          Li                                      
                                                                       
                                                                       
                                                                       
                                                                       

Atomic positions and initial magnetic moments

Positions:
   0 Li     0.000000    0.000000   10.000000    ( 0.0000,  0.0000,  0.0000)
   1 Li     2.467803    1.424787   11.007476    ( 0.0000,  0.0000,  0.0000)
   2 Li     4.935605    2.849573   12.014952    ( 0.0000,  0.0000,  0.0000)
   3 Li     0.000000    0.000000   13.022429    ( 0.0000,  0.0000,  0.0000)
   4 Li     2.467766    1.424765   14.029438    ( 0.0000,  0.0000,  0.0000)
   5 Li     4.935639    2.849592   15.038823    ( 0.0000,  0.0000,  0.0000)
   6 Li     0.000965    0.000557   16.044169    ( 0.0000,  0.0000,  0.0000)
   7 Li     2.467786    1.424777   17.021420    ( 0.0000,  0.0000,  0.0000)
   8 Li     2.467803    4.274360   10.000000    ( 0.0000,  0.0000,  0.0000)
   9 Li     4.935605    5.699146   11.007476    ( 0.0000,  0.0000,  0.0000)
  10 Li     7.403408    7.123933   12.014952    ( 0.0000,  0.0000,  0.0000)
  11 Li     2.467803    4.274360   13.022429    ( 0.0000,  0.0000,  0.0000)
  12 Li     4.935577    5.699159   14.030895    ( 0.0000,  0.0000,  0.0000)
  13 Li     7.403314    7.123955   15.038772    ( 0.0000,  0.0000,  0.0000)
  14 Li     2.467773    4.273290   16.044163    ( 0.0000,  0.0000,  0.0000)
  15 Li     4.935331    5.698813   17.052108    ( 0.0000,  0.0000,  0.0000)
  16 Li     4.935605    8.548719   10.000000    ( 0.0000,  0.0000,  0.0000)
  17 Li     7.403408    9.973506   11.007476    ( 0.0000,  0.0000,  0.0000)
  18 Li     9.871211   11.398292   12.014952    ( 0.0000,  0.0000,  0.0000)
  19 Li     4.935605    8.548719   13.022429    ( 0.0000,  0.0000,  0.0000)
  20 Li     7.403388    9.973503   14.030893    ( 0.0000,  0.0000,  0.0000)
  21 Li     9.871187   11.398188   15.038813    ( 0.0000,  0.0000,  0.0000)
  22 Li     4.935647    8.548699   16.042048    ( 0.0000,  0.0000,  0.0000)
  23 Li     7.403573    9.973922   17.052111    ( 0.0000,  0.0000,  0.0000)
  24 Li     4.935605    0.000000   10.000000    ( 0.0000,  0.0000,  0.0000)
  25 Li     7.403408    1.424787   11.007476    ( 0.0000,  0.0000,  0.0000)
  26 Li     9.871211    2.849573   12.014952    ( 0.0000,  0.0000,  0.0000)
  27 Li     4.935605    0.000000   13.022429    ( 0.0000,  0.0000,  0.0000)
  28 Li     7.403405    1.424756   14.030895    ( 0.0000,  0.0000,  0.0000)
  29 Li     9.871183    2.849480   15.038772    ( 0.0000,  0.0000,  0.0000)
  30 Li     4.934664    0.000509   16.044163    ( 0.0000,  0.0000,  0.0000)
  31 Li     7.402982    1.424715   17.052108    ( 0.0000,  0.0000,  0.0000)
  32 Li     7.403408    4.274360   10.000000    ( 0.0000,  0.0000,  0.0000)
  33 Li     9.871211    5.699146   11.007476    ( 0.0000,  0.0000,  0.0000)
  34 Li    12.339013    7.123933   12.014952    ( 0.0000,  0.0000,  0.0000)
  35 Li     7.403408    4.274360   13.022429    ( 0.0000,  0.0000,  0.0000)
  36 Li     9.871215    5.699149   14.030897    ( 0.0000,  0.0000,  0.0000)
  37 Li    12.339038    7.123947   15.038761    ( 0.0000,  0.0000,  0.0000)
  38 Li     7.403549    4.274441   16.041995    ( 0.0000,  0.0000,  0.0000)
  39 Li     9.871207    5.699144   17.051753    ( 0.0000,  0.0000,  0.0000)
  40 Li     9.871211    8.548719   10.000000    ( 0.0000,  0.0000,  0.0000)
  41 Li    12.339013    9.973506   11.007476    ( 0.0000,  0.0000,  0.0000)
  42 Li    14.806816   11.398292   12.014952    ( 0.0000,  0.0000,  0.0000)
  43 Li     9.871211    8.548719   13.022429    ( 0.0000,  0.0000,  0.0000)
  44 Li    12.339030    9.973508   14.030895    ( 0.0000,  0.0000,  0.0000)
  45 Li    14.806787   11.398246   15.038579    ( 0.0000,  0.0000,  0.0000)
  46 Li     9.871211    8.548576   16.041988    ( 0.0000,  0.0000,  0.0000)
  47 Li    12.338854    9.973942   17.052083    ( 0.0000,  0.0000,  0.0000)
  48 Li     9.871211    0.000000   10.000000    ( 0.0000,  0.0000,  0.0000)
  49 Li    12.339013    1.424787   11.007476    ( 0.0000,  0.0000,  0.0000)
  50 Li    14.806816    2.849573   12.014952    ( 0.0000,  0.0000,  0.0000)
  51 Li     9.871211    0.000000   13.022429    ( 0.0000,  0.0000,  0.0000)
  52 Li    12.339001    1.424770   14.030893    ( 0.0000,  0.0000,  0.0000)
  53 Li    14.806714    2.849605   15.038813    ( 0.0000,  0.0000,  0.0000)
  54 Li     9.871214    0.000046   16.042048    ( 0.0000,  0.0000,  0.0000)
  55 Li    12.339456    1.424721   17.052111    ( 0.0000,  0.0000,  0.0000)
  56 Li    12.339013    4.274360   10.000000    ( 0.0000,  0.0000,  0.0000)
  57 Li    14.806816    5.699146   11.007476    ( 0.0000,  0.0000,  0.0000)
  58 Li    17.274619    7.123933   12.014952    ( 0.0000,  0.0000,  0.0000)
  59 Li    12.339013    4.274360   13.022429    ( 0.0000,  0.0000,  0.0000)
  60 Li    14.806827    5.699160   14.030895    ( 0.0000,  0.0000,  0.0000)
  61 Li    17.274564    7.123931   15.038579    ( 0.0000,  0.0000,  0.0000)
  62 Li    12.338889    4.274432   16.041988    ( 0.0000,  0.0000,  0.0000)
  63 Li    14.807115    5.698790   17.052083    ( 0.0000,  0.0000,  0.0000)
  64 Li    14.806816    8.548719   10.000000    ( 0.0000,  0.0000,  0.0000)
  65 Li    17.274619    9.973506   11.007476    ( 0.0000,  0.0000,  0.0000)
  66 Li    19.742421   11.398292   12.014952    ( 0.0000,  0.0000,  0.0000)
  67 Li    14.806816    8.548719   13.022429    ( 0.0000,  0.0000,  0.0000)
  68 Li    17.274600    9.973495   14.030956    ( 0.0000,  0.0000,  0.0000)
  69 Li    19.742361   11.398257   15.038612    ( 0.0000,  0.0000,  0.0000)
  70 Li    14.806777    8.548697   16.042069    ( 0.0000,  0.0000,  0.0000)
  71 Li    17.274624    9.973509   17.051738    ( 0.0000,  0.0000,  0.0000)
  72 Li     2.467815    1.424793   19.075891    ( 0.0000,  0.0000,  0.0000)

Unit cell:
           periodic     x           y           z      points  spacing
  1. axis:    yes   14.806816    0.000000    0.000000    49     0.2617
  2. axis:    yes    7.403408   12.823079    0.000000    49     0.2617
  3. axis:    no     0.000000    0.000000   27.052334    90     0.3006

  Lengths:  14.806816  14.806816  27.052334
  Angles:   90.000000  90.000000  60.000000

Effective grid spacing dv^(1/3) = 0.2875

     iter     time        total  log10-change:
                         energy   eigst   dens
iter:   1 13:59:52  -124.409946   -3.76
iter:   2 13:59:59  -124.407737   -4.99  -2.25
iter:   3 14:00:06  -124.407508c  -4.17  -2.42
iter:   4 14:00:12  -124.406781c  -5.39c -2.74
iter:   5 14:00:18  -124.406563c  -5.37c -2.93
iter:   6 14:00:24  -124.406698c  -5.48c -3.24
iter:   7 14:00:30  -124.406415c  -5.75c -3.22
iter:   8 14:00:35  -124.406476c  -6.19c -3.44
iter:   9 14:00:41  -124.406587c  -5.92c -3.53
iter:  10 14:00:47  -124.406482c  -6.05c -3.56
iter:  11 14:00:53  -124.406471c  -6.35c -3.76
iter:  12 14:01:00  -124.406458c  -6.21c -3.85
iter:  13 14:01:06  -124.406453c  -6.35c -4.14c

Converged after 13 iterations.

Dipole moment: (-10.950904, -6.322507, 0.226710) |e|*Ang

Energy contributions relative to reference atoms: (reference = -14803.510878)

Kinetic:        +92.204392
Potential:      -83.929045
External:        +0.000000
XC:            -131.654159
Entropy (-ST):   -1.175585
Local:           -0.439849
SIC:             +0.000000
--------------------------
Free energy:   -124.994246
Extrapolated:  -124.406453

Showing all kpts
 Kpt  Band  Eigenvalues  Occupancy
  0    34     -1.89098    1.33459
  0    35     -1.78242    0.80763
  0    36     -1.73812    0.60619
  0    37     -1.73684    0.60078

  1    34     -1.91647    1.44258
  1    35     -1.91578    1.43980
  1    36     -1.88360    1.30141
  1    37     -1.80523    0.91941


Fermi level: -1.82138

No gap
No difference between direct/indirect transitions

Forces in eV/Ang:
  0 Li   -0.00382   -0.00221    0.04557
  1 Li   -0.00073   -0.00042    0.16551
  2 Li    0.00719    0.00415   -0.09631
  3 Li    0.00788    0.00455   -0.03884
  4 Li   -0.00250   -0.00144   -0.04572
  5 Li    0.00304    0.00175    0.09600
  6 Li    0.06158    0.03555   -0.05060
  7 Li   -0.00118   -0.00068   -1.92271
  8 Li   -0.00134    0.00483    0.04390
  9 Li   -0.00429   -0.00115    0.19186
 10 Li    0.00275    0.00272   -0.09196
 11 Li   -0.00008   -0.00783   -0.03857
 12 Li   -0.00205    0.00071    0.06828
 13 Li   -0.00622    0.00132    0.09518
 14 Li   -0.00183   -0.06810   -0.05103
 15 Li   -0.01802   -0.02190   -0.01636
 16 Li    0.00042   -0.00117    0.03782
 17 Li    0.00100    0.00305    0.19173
 18 Li    0.00250   -0.00483   -0.09828
 19 Li    0.00128    0.00053   -0.07451
 20 Li   -0.00136   -0.00009    0.06811
 21 Li   -0.00171   -0.00809    0.09518
 22 Li    0.00275   -0.00127   -0.19360
 23 Li    0.01092    0.02728   -0.01617
 24 Li    0.00352   -0.00357    0.04390
 25 Li   -0.00313   -0.00314    0.19186
 26 Li    0.00373    0.00102   -0.09196
 27 Li   -0.00682    0.00385   -0.03857
 28 Li   -0.00041   -0.00213    0.06828
 29 Li   -0.00197   -0.00605    0.09518
 30 Li   -0.05989    0.03247   -0.05103
 31 Li   -0.02798   -0.00466   -0.01636
 32 Li   -0.00592   -0.00342    0.03747
 33 Li    0.00080    0.00046    0.20072
 34 Li    0.00364    0.00210   -0.09148
 35 Li   -0.00021   -0.00012   -0.06956
 36 Li    0.00027    0.00016    0.06853
 37 Li    0.00136    0.00078    0.09450
 38 Li    0.00957    0.00552   -0.19756
 39 Li   -0.00032   -0.00019   -0.04029
 40 Li   -0.00056    0.00768    0.03518
 41 Li   -0.00028    0.00326    0.19239
 42 Li    0.00133    0.00115   -0.09560
 43 Li    0.00149    0.00179   -0.06915
 44 Li    0.00101    0.00019    0.06840
 45 Li   -0.00258   -0.00289    0.08290
 46 Li    0.00006   -0.00966   -0.19798
 47 Li   -0.01054    0.02867   -0.01821
 48 Li   -0.00080    0.00095    0.03782
 49 Li    0.00314   -0.00066    0.19173
 50 Li   -0.00293    0.00458   -0.09828
 51 Li    0.00110    0.00085   -0.07451
 52 Li   -0.00076   -0.00114    0.06811
 53 Li   -0.00786    0.00256    0.09518
 54 Li    0.00028    0.00301   -0.19360
 55 Li    0.02909   -0.00419   -0.01617
 56 Li    0.00637   -0.00432    0.03518
 57 Li    0.00269   -0.00187    0.19239
 58 Li    0.00166    0.00058   -0.09560
 59 Li    0.00229    0.00039   -0.06915
 60 Li    0.00067    0.00078    0.06840
 61 Li   -0.00379   -0.00079    0.08290
 62 Li   -0.00833    0.00488   -0.19798
 63 Li    0.01956   -0.02347   -0.01821
 64 Li   -0.00069   -0.00040    0.03799
 65 Li   -0.00102   -0.00059    0.19420
 66 Li    0.00364    0.00210   -0.09474
 67 Li   -0.00030   -0.00017   -0.07610
 68 Li   -0.00131   -0.00076    0.07222
 69 Li   -0.00364   -0.00210    0.08490
 70 Li   -0.00259   -0.00149   -0.19231
 71 Li    0.00036    0.00021   -0.04132
 72 Li    0.00088    0.00051    1.43985

System changes: positions 

Initializing position-dependent things.

Density initialized from wave functions
                                                                       
                                                                       
                                                                       
                                                                       
                                                                       
                                                                       
                                                                       
                               Li          Li          Li              
                                                                       
              Li        Li          LiLi        LiLi          Li       
                      Li          Li           Li                      
                             LiLi        LiLi        LiLi              
              LiLi        LiLi        LiLi        Li          Li       
                      LiLi         Lii         Lii                     
       Li          LiLi        LiLi        LiLi        Li              
                Li          Lii         Lii          Li                
              Li        LiLi        LiLi        Li                     
                     Lii         LiLi        LiLi                      
       Li          Li          Li                                      
              LiLi        LiLi        LiLi                             
                                                                       
       Li          Li          Li                                      
                                                                       
                                                                       
                                                                       
                                                                       

Atomic positions and initial magnetic moments

Positions:
   0 Li     0.000000    0.000000   10.000000    ( 0.0000,  0.0000,  0.0000)
   1 Li     2.467803    1.424787   11.007476    ( 0.0000,  0.0000,  0.0000)
   2 Li     4.935605    2.849573   12.014952    ( 0.0000,  0.0000,  0.0000)
   3 Li     0.000000    0.000000   13.022429    ( 0.0000,  0.0000,  0.0000)
   4 Li     2.467506    1.424615   14.024691    ( 0.0000,  0.0000,  0.0000)
   5 Li     4.935954    2.849774   15.048805    ( 0.0000,  0.0000,  0.0000)
   6 Li     0.007369    0.004255   16.038909    ( 0.0000,  0.0000,  0.0000)
   7 Li     2.467664    1.424707   16.821420    ( 0.0000,  0.0000,  0.0000)
   8 Li     2.467803    4.274360   10.000000    ( 0.0000,  0.0000,  0.0000)
   9 Li     4.935605    5.699146   11.007476    ( 0.0000,  0.0000,  0.0000)
  10 Li     7.403408    7.123933   12.014952    ( 0.0000,  0.0000,  0.0000)
  11 Li     2.467803    4.274360   13.022429    ( 0.0000,  0.0000,  0.0000)
  12 Li     4.935364    5.699233   14.037994    ( 0.0000,  0.0000,  0.0000)
  13 Li     7.402667    7.124093   15.048668    ( 0.0000,  0.0000,  0.0000)
  14 Li     2.467583    4.266206   16.038860    ( 0.0000,  0.0000,  0.0000)
  15 Li     4.933457    5.696536   17.050408    ( 0.0000,  0.0000,  0.0000)
  16 Li     4.935605    8.548719   10.000000    ( 0.0000,  0.0000,  0.0000)
  17 Li     7.403408    9.973506   11.007476    ( 0.0000,  0.0000,  0.0000)
  18 Li     9.871211   11.398292   12.014952    ( 0.0000,  0.0000,  0.0000)
  19 Li     4.935605    8.548719   13.022429    ( 0.0000,  0.0000,  0.0000)
  20 Li     7.403246    9.973494   14.037974    ( 0.0000,  0.0000,  0.0000)
  21 Li     9.871009   11.397348   15.048710    ( 0.0000,  0.0000,  0.0000)
  22 Li     4.935933    8.548567   16.021920    ( 0.0000,  0.0000,  0.0000)
  23 Li     7.404708    9.976759   17.050431    ( 0.0000,  0.0000,  0.0000)
  24 Li     4.935605    0.000000   10.000000    ( 0.0000,  0.0000,  0.0000)
  25 Li     7.403408    1.424787   11.007476    ( 0.0000,  0.0000,  0.0000)
  26 Li     9.871211    2.849573   12.014952    ( 0.0000,  0.0000,  0.0000)
  27 Li     4.935605    0.000000   13.022429    ( 0.0000,  0.0000,  0.0000)
  28 Li     7.403362    1.424534   14.037994    ( 0.0000,  0.0000,  0.0000)
  29 Li     9.870979    2.848851   15.048668    ( 0.0000,  0.0000,  0.0000)
  30 Li     4.928434    0.003886   16.038860    ( 0.0000,  0.0000,  0.0000)
  31 Li     7.400073    1.424231   17.050408    ( 0.0000,  0.0000,  0.0000)
  32 Li     7.403408    4.274360   10.000000    ( 0.0000,  0.0000,  0.0000)
  33 Li     9.871211    5.699146   11.007476    ( 0.0000,  0.0000,  0.0000)
  34 Li    12.339013    7.123933   12.014952    ( 0.0000,  0.0000,  0.0000)
  35 Li     7.403408    4.274360   13.022429    ( 0.0000,  0.0000,  0.0000)
  36 Li     9.871244    5.699165   14.038022    ( 0.0000,  0.0000,  0.0000)
  37 Li    12.339180    7.124029   15.048587    ( 0.0000,  0.0000,  0.0000)
  38 Li     7.404544    4.275015   16.021455    ( 0.0000,  0.0000,  0.0000)
  39 Li     9.871173    5.699125   17.047564    ( 0.0000,  0.0000,  0.0000)
  40 Li     9.871211    8.548719   10.000000    ( 0.0000,  0.0000,  0.0000)
  41 Li    12.339013    9.973506   11.007476    ( 0.0000,  0.0000,  0.0000)
  42 Li    14.806816   11.398292   12.014952    ( 0.0000,  0.0000,  0.0000)
  43 Li     9.871211    8.548719   13.022429    ( 0.0000,  0.0000,  0.0000)
  44 Li    12.339135    9.973528   14.038006    ( 0.0000,  0.0000,  0.0000)
  45 Li    14.806519   11.397945   15.047197    ( 0.0000,  0.0000,  0.0000)
  46 Li     9.871218    8.547572   16.021405    ( 0.0000,  0.0000,  0.0000)
  47 Li    12.337758    9.976924   17.050190    ( 0.0000,  0.0000,  0.0000)
  48 Li     9.871211    0.000000   10.000000    ( 0.0000,  0.0000,  0.0000)
  49 Li    12.339013    1.424787   11.007476    ( 0.0000,  0.0000,  0.0000)
  50 Li    14.806816    2.849573   12.014952    ( 0.0000,  0.0000,  0.0000)
  51 Li     9.871211    0.000000   13.022429    ( 0.0000,  0.0000,  0.0000)
  52 Li    12.338923    1.424652   14.037974    ( 0.0000,  0.0000,  0.0000)
  53 Li    14.805898    2.849871   15.048710    ( 0.0000,  0.0000,  0.0000)
  54 Li     9.871243    0.000359   16.021920    ( 0.0000,  0.0000,  0.0000)
  55 Li    12.342481    1.424286   17.050431    ( 0.0000,  0.0000,  0.0000)
  56 Li    12.339013    4.274360   10.000000    ( 0.0000,  0.0000,  0.0000)
  57 Li    14.806816    5.699146   11.007476    ( 0.0000,  0.0000,  0.0000)
  58 Li    17.274619    7.123933   12.014952    ( 0.0000,  0.0000,  0.0000)
  59 Li    12.339013    4.274360   13.022429    ( 0.0000,  0.0000,  0.0000)
  60 Li    14.806896    5.699240   14.038006    ( 0.0000,  0.0000,  0.0000)
  61 Li    17.274170    7.123849   15.047197    ( 0.0000,  0.0000,  0.0000)
  62 Li    12.338023    4.274939   16.021405    ( 0.0000,  0.0000,  0.0000)
  63 Li    14.809148    5.696350   17.050190    ( 0.0000,  0.0000,  0.0000)
  64 Li    14.806816    8.548719   10.000000    ( 0.0000,  0.0000,  0.0000)
  65 Li    17.274619    9.973506   11.007476    ( 0.0000,  0.0000,  0.0000)
  66 Li    19.742421   11.398292   12.014952    ( 0.0000,  0.0000,  0.0000)
  67 Li    14.806816    8.548719   13.022429    ( 0.0000,  0.0000,  0.0000)
  68 Li    17.274464    9.973417   14.038465    ( 0.0000,  0.0000,  0.0000)
  69 Li    19.741982   11.398039   15.047438    ( 0.0000,  0.0000,  0.0000)
  70 Li    14.806508    8.548541   16.022076    ( 0.0000,  0.0000,  0.0000)
  71 Li    17.274661    9.973530   17.047443    ( 0.0000,  0.0000,  0.0000)
  72 Li     2.467906    1.424846   19.225678    ( 0.0000,  0.0000,  0.0000)

Unit cell:
           periodic     x           y           z      points  spacing
  1. axis:    yes   14.806816    0.000000    0.000000    49     0.2617
  2. axis:    yes    7.403408   12.823079    0.000000    49     0.2617
  3. axis:    no     0.000000    0.000000   27.052334    90     0.3006

  Lengths:  14.806816  14.806816  27.052334
  Angles:   90.000000  90.000000  60.000000

Effective grid spacing dv^(1/3) = 0.2875

     iter     time        total  log10-change:
                         energy   eigst   dens
iter:   1 14:01:19  -125.062103   -2.11
iter:   2 14:01:24  -124.933406   -3.48  -1.42
iter:   3 14:01:29  -124.859646   -2.42  -1.57
iter:   4 14:01:35  -124.851359   -3.22  -1.86
iter:   5 14:01:40  -124.834164c  -3.82  -2.01
iter:   6 14:01:46  -124.836252c  -3.63  -2.33
iter:   7 14:01:51  -124.832586c  -4.44  -2.38
iter:   8 14:01:57  -124.833194c  -5.16  -2.66
iter:   9 14:02:02  -124.833264c  -5.30c -2.80
iter:  10 14:02:08  -124.833069c  -5.74c -2.97
iter:  11 14:02:13  -124.833136c  -5.94c -3.02
iter:  12 14:02:18  -124.833060c  -6.18c -3.17
iter:  13 14:02:23  -124.833090c  -6.35c -3.35
iter:  14 14:02:29  -124.833061c  -6.25c -3.47
iter:  15 14:02:34  -124.832980c  -6.47c -3.48
iter:  16 14:02:40  -124.832988c  -6.91c -3.69
iter:  17 14:02:45  -124.833052c  -6.47c -3.75
iter:  18 14:02:50  -124.833009c  -6.67c -3.92
iter:  19 14:02:56  -124.833009c  -6.83c -4.02c

Converged after 19 iterations.

Dipole moment: (-11.197957, -6.465144, 0.304811) |e|*Ang

Energy contributions relative to reference atoms: (reference = -14803.510878)

Kinetic:        +91.732843
Potential:      -83.904084
External:        +0.000000
XC:            -131.636542
Entropy (-ST):   -1.168025
Local:           -0.441213
SIC:             +0.000000
--------------------------
Free energy:   -125.417021
Extrapolated:  -124.833009

Showing all kpts
 Kpt  Band  Eigenvalues  Occupancy
  0    34     -1.88267    1.35226
  0    35     -1.76862    0.80051
  0    36     -1.72948    0.62184
  0    37     -1.72584    0.60633

  1    34     -1.90601    1.45001
  1    35     -1.90598    1.44990
  1    36     -1.87398    1.31364
  1    37     -1.79268    0.91826


Fermi level: -1.80906

No gap
No difference between direct/indirect transitions

Forces in eV/Ang:
  0 Li   -0.00398   -0.00230    0.04604
  1 Li   -0.00070   -0.00041    0.15811
  2 Li    0.00878    0.00507   -0.09437
  3 Li    0.01091    0.00630   -0.03085
  4 Li   -0.00213   -0.00123   -0.15394
  5 Li    0.00714    0.00412    0.06544
  6 Li    0.02551    0.01473   -0.06172
  7 Li   -0.00113   -0.00066   -0.69790
  8 Li   -0.00129    0.00516    0.04439
  9 Li   -0.00516   -0.00173    0.19452
 10 Li    0.00309    0.00285   -0.08394
 11 Li   -0.00010   -0.01149   -0.03062
 12 Li   -0.00174    0.00047    0.06051
 13 Li   -0.00479    0.00080    0.08165
 14 Li   -0.00136   -0.02744   -0.06228
 15 Li   -0.01098   -0.01431   -0.01792
 16 Li    0.00013   -0.00125    0.03744
 17 Li    0.00137    0.00373    0.19451
 18 Li    0.00263   -0.00703   -0.09640
 19 Li    0.00053    0.00075   -0.08134
 20 Li   -0.00105   -0.00025    0.06044
 21 Li   -0.00163   -0.01259    0.06444
 22 Li    0.00268   -0.00126   -0.17226
 23 Li    0.00750    0.01736   -0.01784
 24 Li    0.00382   -0.00370    0.04439
 25 Li   -0.00407   -0.00360    0.19452
 26 Li    0.00401    0.00125   -0.08394
 27 Li   -0.01000    0.00566   -0.03062
 28 Li   -0.00046   -0.00174    0.06051
 29 Li   -0.00170   -0.00455    0.08165
 30 Li   -0.02445    0.01255   -0.06228
 31 Li   -0.01788   -0.00235   -0.01792
 32 Li   -0.00745   -0.00430    0.03684
 33 Li    0.00109    0.00063    0.20322
 34 Li    0.00321    0.00185   -0.08388
 35 Li    0.00021    0.00012   -0.07861
 36 Li    0.00014    0.00008    0.05904
 37 Li    0.00054    0.00031    0.08136
 38 Li    0.00750    0.00433   -0.17751
 39 Li   -0.00038   -0.00022   -0.03584
 40 Li   -0.00046    0.00927    0.03523
 41 Li   -0.00049    0.00406    0.19503
 42 Li    0.00141    0.00095   -0.09017
 43 Li    0.00133    0.00094   -0.07903
 44 Li    0.00055   -0.00036    0.06052
 45 Li   -0.00569   -0.00051    0.07524
 46 Li    0.00010   -0.00764   -0.17811
 47 Li   -0.00704    0.01809   -0.01959
 48 Li   -0.00101    0.00074    0.03744
 49 Li    0.00391   -0.00068    0.19451
 50 Li   -0.00477    0.00580   -0.09640
 51 Li    0.00091    0.00009   -0.08134
 52 Li   -0.00075   -0.00079    0.06044
 53 Li   -0.01172    0.00489    0.06444
 54 Li    0.00025    0.00295   -0.17226
 55 Li    0.01878   -0.00218   -0.01784
 56 Li    0.00779   -0.00503    0.03523
 57 Li    0.00327   -0.00246    0.19503
 58 Li    0.00153    0.00074   -0.09017
 59 Li    0.00148    0.00068   -0.07903
 60 Li   -0.00003    0.00066    0.06052
 61 Li   -0.00329   -0.00467    0.07524
 62 Li   -0.00656    0.00391   -0.17811
 63 Li    0.01215   -0.01514   -0.01959
 64 Li   -0.00053   -0.00031    0.03807
 65 Li   -0.00150   -0.00086    0.19607
 66 Li    0.00389    0.00225   -0.08889
 67 Li    0.00038    0.00022   -0.08299
 68 Li   -0.00135   -0.00078    0.06040
 69 Li    0.00068    0.00039    0.07682
 70 Li   -0.00268   -0.00155   -0.17102
 71 Li    0.00026    0.00015   -0.03693
 72 Li    0.00083    0.00048    0.42706

System changes: positions 

Initializing position-dependent things.

Density initialized from wave functions
                                                                       
                                                                       
                                                                       
                                                                       
                                                                       
                                                                       
                                                                       
                               Li          Li          Li              
                                                                       
              Li        Li          LiLi        LiLi          Li       
                      Li          Li           Li                      
                             LiLi        LiLi        LiLi              
                Li        LiLi        LiLi        Li          Li       
              Li      LiLi         Lii         Lii                     
       Li          LiLi        LiLi        LiLi        Li              
                Li          Lii         Lii          Li                
              Li        LiLi        LiLi        Li                     
                     Lii         LiLi        LiLi                      
       Li          Li          Li                                      
              LiLi        LiLi        LiLi                             
                                                                       
       Li          Li          Li                                      
                                                                       
                                                                       
                                                                       
                                                                       

Atomic positions and initial magnetic moments

Positions:
   0 Li     0.000000    0.000000   10.000000    ( 0.0000,  0.0000,  0.0000)
   1 Li     2.467803    1.424787   11.007476    ( 0.0000,  0.0000,  0.0000)
   2 Li     4.935605    2.849573   12.014952    ( 0.0000,  0.0000,  0.0000)
   3 Li     0.000000    0.000000   13.022429    ( 0.0000,  0.0000,  0.0000)
   4 Li     2.467324    1.424510   14.018743    ( 0.0000,  0.0000,  0.0000)
   5 Li     4.936279    2.849962   15.055461    ( 0.0000,  0.0000,  0.0000)
   6 Li     0.011266    0.006505   16.034786    ( 0.0000,  0.0000,  0.0000)
   7 Li     2.467575    1.424655   16.701923    ( 0.0000,  0.0000,  0.0000)
   8 Li     2.467803    4.274360   10.000000    ( 0.0000,  0.0000,  0.0000)
   9 Li     4.935605    5.699146   11.007476    ( 0.0000,  0.0000,  0.0000)
  10 Li     7.403408    7.123933   12.014952    ( 0.0000,  0.0000,  0.0000)
  11 Li     2.467803    4.274360   13.022429    ( 0.0000,  0.0000,  0.0000)
  12 Li     4.935214    5.699282   14.043044    ( 0.0000,  0.0000,  0.0000)
  13 Li     7.402223    7.124182   15.055646    ( 0.0000,  0.0000,  0.0000)
  14 Li     2.467453    4.261913   16.034701    ( 0.0000,  0.0000,  0.0000)
  15 Li     4.932237    5.695031   17.049122    ( 0.0000,  0.0000,  0.0000)
  16 Li     4.935605    8.548719   10.000000    ( 0.0000,  0.0000,  0.0000)
  17 Li     7.403408    9.973506   11.007476    ( 0.0000,  0.0000,  0.0000)
  18 Li     9.871211   11.398292   12.014952    ( 0.0000,  0.0000,  0.0000)
  19 Li     4.935605    8.548719   13.022429    ( 0.0000,  0.0000,  0.0000)
  20 Li     7.403149    9.973484   14.043013    ( 0.0000,  0.0000,  0.0000)
  21 Li     9.870880   11.396627   15.055299    ( 0.0000,  0.0000,  0.0000)
  22 Li     4.936141    8.548471   16.007587    ( 0.0000,  0.0000,  0.0000)
  23 Li     7.405466    9.978623   17.049156    ( 0.0000,  0.0000,  0.0000)
  24 Li     4.935605    0.000000   10.000000    ( 0.0000,  0.0000,  0.0000)
  25 Li     7.403408    1.424787   11.007476    ( 0.0000,  0.0000,  0.0000)
  26 Li     9.871211    2.849573   12.014952    ( 0.0000,  0.0000,  0.0000)
  27 Li     4.935605    0.000000   13.022429    ( 0.0000,  0.0000,  0.0000)
  28 Li     7.403330    1.424380   14.043044    ( 0.0000,  0.0000,  0.0000)
  29 Li     9.870834    2.848422   15.055646    ( 0.0000,  0.0000,  0.0000)
  30 Li     4.924652    0.005920   16.034701    ( 0.0000,  0.0000,  0.0000)
  31 Li     7.398160    1.423927   17.049122    ( 0.0000,  0.0000,  0.0000)
  32 Li     7.403408    4.274360   10.000000    ( 0.0000,  0.0000,  0.0000)
  33 Li     9.871211    5.699146   11.007476    ( 0.0000,  0.0000,  0.0000)
  34 Li    12.339013    7.123933   12.014952    ( 0.0000,  0.0000,  0.0000)
  35 Li     7.403408    4.274360   13.022429    ( 0.0000,  0.0000,  0.0000)
  36 Li     9.871262    5.699176   14.043051    ( 0.0000,  0.0000,  0.0000)
  37 Li    12.339266    7.124078   15.055522    ( 0.0000,  0.0000,  0.0000)
  38 Li     7.405229    4.275411   16.006790    ( 0.0000,  0.0000,  0.0000)
  39 Li     9.871148    5.699110   17.044582    ( 0.0000,  0.0000,  0.0000)
  40 Li     9.871211    8.548719   10.000000    ( 0.0000,  0.0000,  0.0000)
  41 Li    12.339013    9.973506   11.007476    ( 0.0000,  0.0000,  0.0000)
  42 Li    14.806816   11.398292   12.014952    ( 0.0000,  0.0000,  0.0000)
  43 Li     9.871211    8.548719   13.022429    ( 0.0000,  0.0000,  0.0000)
  44 Li    12.339202    9.973531   14.043062    ( 0.0000,  0.0000,  0.0000)
  45 Li    14.806251   11.397778   15.053368    ( 0.0000,  0.0000,  0.0000)
  46 Li     9.871223    8.546878   16.006704    ( 0.0000,  0.0000,  0.0000)
  47 Li    12.337030    9.978879   17.048765    ( 0.0000,  0.0000,  0.0000)
  48 Li     9.871211    0.000000   10.000000    ( 0.0000,  0.0000,  0.0000)
  49 Li    12.339013    1.424787   11.007476    ( 0.0000,  0.0000,  0.0000)
  50 Li    14.806816    2.849573   12.014952    ( 0.0000,  0.0000,  0.0000)
  51 Li     9.871211    0.000000   13.022429    ( 0.0000,  0.0000,  0.0000)
  52 Li    12.338865    1.424573   14.043013    ( 0.0000,  0.0000,  0.0000)
  53 Li    14.805209    2.850119   15.055299    ( 0.0000,  0.0000,  0.0000)
  54 Li     9.871263    0.000589   16.007587    ( 0.0000,  0.0000,  0.0000)
  55 Li    12.344474    1.424011   17.049156    ( 0.0000,  0.0000,  0.0000)
  56 Li    12.339013    4.274360   10.000000    ( 0.0000,  0.0000,  0.0000)
  57 Li    14.806816    5.699146   11.007476    ( 0.0000,  0.0000,  0.0000)
  58 Li    17.274619    7.123933   12.014952    ( 0.0000,  0.0000,  0.0000)
  59 Li    12.339013    4.274360   13.022429    ( 0.0000,  0.0000,  0.0000)
  60 Li    14.806932    5.699297   14.043062    ( 0.0000,  0.0000,  0.0000)
  61 Li    17.273891    7.123700   15.053368    ( 0.0000,  0.0000,  0.0000)
  62 Li    12.337426    4.275291   16.006704    ( 0.0000,  0.0000,  0.0000)
  63 Li    14.810478    5.694742   17.048765    ( 0.0000,  0.0000,  0.0000)
  64 Li    14.806816    8.548719   10.000000    ( 0.0000,  0.0000,  0.0000)
  65 Li    17.274619    9.973506   11.007476    ( 0.0000,  0.0000,  0.0000)
  66 Li    19.742421   11.398292   12.014952    ( 0.0000,  0.0000,  0.0000)
  67 Li    14.806816    8.548719   13.022429    ( 0.0000,  0.0000,  0.0000)
  68 Li    17.274363    9.973358   14.043724    ( 0.0000,  0.0000,  0.0000)
  69 Li    19.741801   11.397934   15.053753    ( 0.0000,  0.0000,  0.0000)
  70 Li    14.806308    8.548426   16.007840    ( 0.0000,  0.0000,  0.0000)
  71 Li    17.274687    9.973545   17.044380    ( 0.0000,  0.0000,  0.0000)
  72 Li     2.467972    1.424884   19.313017    ( 0.0000,  0.0000,  0.0000)

Unit cell:
           periodic     x           y           z      points  spacing
  1. axis:    yes   14.806816    0.000000    0.000000    49     0.2617
  2. axis:    yes    7.403408   12.823079    0.000000    49     0.2617
  3. axis:    no     0.000000    0.000000   27.052334    90     0.3006

  Lengths:  14.806816  14.806816  27.052334
  Angles:   90.000000  90.000000  60.000000

Effective grid spacing dv^(1/3) = 0.2875

     iter     time        total  log10-change:
                         energy   eigst   dens
iter:   1 14:03:08  -125.032157   -2.46
iter:   2 14:03:14  -124.975549   -3.84  -1.59
iter:   3 14:03:19  -124.943997   -2.77  -1.74
iter:   4 14:03:25  -124.938489   -3.59  -2.03
iter:   5 14:03:30  -124.930749c  -4.07  -2.20
iter:   6 14:03:35  -124.930860c  -4.71  -2.62
iter:   7 14:03:41  -124.930777c  -5.05  -2.79
iter:   8 14:03:46  -124.930710c  -5.32c -2.87
iter:   9 14:03:51  -124.930791c  -5.64c -2.92
iter:  10 14:03:57  -124.930931c  -6.13c -3.15
iter:  11 14:04:02  -124.930972c  -6.22c -3.22
iter:  12 14:04:08  -124.930885c  -6.26c -3.28
iter:  13 14:04:13  -124.930920c  -6.18c -3.44
iter:  14 14:04:19  -124.930875c  -6.74c -3.54
iter:  15 14:04:25  -124.930853c  -7.10c -3.78
iter:  16 14:04:30  -124.930844c  -7.02c -3.83
iter:  17 14:04:37  -124.930840c  -7.07c -3.92
iter:  18 14:04:42  -124.930847c  -7.18c -4.06c

Converged after 18 iterations.

Dipole moment: (-11.355662, -6.556194, 0.334816) |e|*Ang

Energy contributions relative to reference atoms: (reference = -14803.510878)

Kinetic:        +91.658316
Potential:      -83.907137
External:        +0.000000
XC:            -131.657633
Entropy (-ST):   -1.165191
Local:           -0.441797
SIC:             +0.000000
--------------------------
Free energy:   -125.513443
Extrapolated:  -124.930847

Showing all kpts
 Kpt  Band  Eigenvalues  Occupancy
  0    34     -1.87711    1.35038
  0    35     -1.76227    0.79461
  0    36     -1.72774    0.63645
  0    37     -1.72174    0.61069

  1    34     -1.90298    1.45833
  1    35     -1.90252    1.45653
  1    36     -1.86931    1.31572
  1    37     -1.78591    0.91010


Fermi level: -1.80394

No gap
No difference between direct/indirect transitions

Forces in eV/Ang:
  0 Li   -0.00381   -0.00220    0.04688
  1 Li   -0.00071   -0.00041    0.15333
  2 Li    0.00897    0.00518   -0.09169
  3 Li    0.01292    0.00746   -0.02689
  4 Li   -0.00186   -0.00108   -0.24215
  5 Li    0.01009    0.00583    0.04782
  6 Li    0.00568    0.00328   -0.06426
  7 Li   -0.00087   -0.00050   -0.19911
  8 Li   -0.00121    0.00493    0.04528
  9 Li   -0.00544   -0.00179    0.19610
 10 Li    0.00326    0.00298   -0.07898
 11 Li   -0.00016   -0.01388   -0.02655
 12 Li   -0.00140    0.00085    0.05440
 13 Li   -0.00404    0.00064    0.07236
 14 Li   -0.00125   -0.00522   -0.06488
 15 Li   -0.00724   -0.01073   -0.01761
 16 Li    0.00000   -0.00133    0.03671
 17 Li    0.00158    0.00381    0.19612
 18 Li    0.00266   -0.00751   -0.09370
 19 Li    0.00012    0.00084   -0.08649
 20 Li   -0.00113   -0.00078    0.05437
 21 Li   -0.00141   -0.01579    0.04690
 22 Li    0.00255   -0.00132   -0.15739
 23 Li    0.00615    0.01222   -0.01761
 24 Li    0.00367   -0.00351    0.04528
 25 Li   -0.00427   -0.00382    0.19610
 26 Li    0.00421    0.00133   -0.07898
 27 Li   -0.01210    0.00680   -0.02655
 28 Li    0.00004   -0.00164    0.05440
 29 Li   -0.00147   -0.00382    0.07236
 30 Li   -0.00515    0.00152   -0.06488
 31 Li   -0.01291   -0.00090   -0.01761
 32 Li   -0.00795   -0.00459    0.03596
 33 Li    0.00138    0.00080    0.20453
 34 Li    0.00306    0.00177   -0.07911
 35 Li    0.00028    0.00016   -0.08439
 36 Li    0.00016    0.00009    0.05210
 37 Li    0.00022    0.00013    0.07223
 38 Li    0.00646    0.00373   -0.16318
 39 Li   -0.00034   -0.00020   -0.03292
 40 Li   -0.00047    0.00962    0.03492
 41 Li   -0.00042    0.00403    0.19668
 42 Li    0.00136    0.00079   -0.08608
 43 Li    0.00130    0.00056   -0.08525
 44 Li    0.00069   -0.00119    0.05432
 45 Li   -0.00716    0.00066    0.06913
 46 Li    0.00016   -0.00674   -0.16392
 47 Li   -0.00561    0.01260   -0.01914
 48 Li   -0.00115    0.00067    0.03671
 49 Li    0.00409   -0.00053    0.19612
 50 Li   -0.00517    0.00606   -0.09370
 51 Li    0.00078   -0.00032   -0.08649
 52 Li   -0.00124   -0.00059    0.05437
 53 Li   -0.01438    0.00667    0.04690
 54 Li    0.00013    0.00286   -0.15739
 55 Li    0.01366   -0.00078   -0.01761
 56 Li    0.00809   -0.00522    0.03492
 57 Li    0.00327   -0.00238    0.19668
 58 Li    0.00137    0.00078   -0.08608
 59 Li    0.00113    0.00085   -0.08525
 60 Li   -0.00069    0.00119    0.05432
 61 Li   -0.00301   -0.00653    0.06913
 62 Li   -0.00575    0.00351   -0.16392
 63 Li    0.00811   -0.01116   -0.01914
 64 Li   -0.00049   -0.00029    0.03779
 65 Li   -0.00188   -0.00108    0.19689
 66 Li    0.00412    0.00238   -0.08454
 67 Li    0.00070    0.00041   -0.08829
 68 Li   -0.00144   -0.00083    0.05232
 69 Li    0.00293    0.00169    0.07041
 70 Li   -0.00270   -0.00156   -0.15627
 71 Li    0.00015    0.00008   -0.03402
 72 Li    0.00078    0.00045    0.06137

System changes: positions 

Initializing position-dependent things.

Density initialized from wave functions
                                                                       
                                                                       
                                                                       
                                                                       
                                                                       
                                                                       
                                                                       
                               Li          Li          Li              
                                                                       
              Li        Li          LiLi        LiLi          Li       
                      Li          Li           Li                      
                             LiLi        LiLi        LiLi              
                Li        LiLi        LiLi        Li          Li       
              Li      LiLi         Lii         Lii                     
       Li          LiLi        LiLi        LiLi        Li              
                Li          Lii         Lii          Li                
              Li        LiLi        LiLi        Li                     
                     Lii         LiLi        LiLi                      
       Li          Li          Li                                      
              LiLi        LiLi        LiLi                             
                                                                       
       Li          Li          Li                                      
                                                                       
                                                                       
                                                                       
                                                                       

Atomic positions and initial magnetic moments

Positions:
   0 Li     0.000000    0.000000   10.000000    ( 0.0000,  0.0000,  0.0000)
   1 Li     2.467803    1.424787   11.007476    ( 0.0000,  0.0000,  0.0000)
   2 Li     4.935605    2.849573   12.014952    ( 0.0000,  0.0000,  0.0000)
   3 Li     0.000000    0.000000   13.022429    ( 0.0000,  0.0000,  0.0000)
   4 Li     2.467195    1.424436   14.011190    ( 0.0000,  0.0000,  0.0000)
   5 Li     4.936632    2.850166   15.059795    ( 0.0000,  0.0000,  0.0000)
   6 Li     0.013409    0.007742   16.031499    ( 0.0000,  0.0000,  0.0000)
   7 Li     2.467514    1.424620   16.634970    ( 0.0000,  0.0000,  0.0000)
   8 Li     2.467803    4.274360   10.000000    ( 0.0000,  0.0000,  0.0000)
   9 Li     4.935605    5.699146   11.007476    ( 0.0000,  0.0000,  0.0000)
  10 Li     7.403408    7.123933   12.014952    ( 0.0000,  0.0000,  0.0000)
  11 Li     2.467803    4.274360   13.022429    ( 0.0000,  0.0000,  0.0000)
  12 Li     4.935112    5.699325   14.046649    ( 0.0000,  0.0000,  0.0000)
  13 Li     7.401918    7.124241   15.060581    ( 0.0000,  0.0000,  0.0000)
  14 Li     2.467362    4.259570   16.031384    ( 0.0000,  0.0000,  0.0000)
  15 Li     4.931468    5.694050   17.048140    ( 0.0000,  0.0000,  0.0000)
  16 Li     4.935605    8.548719   10.000000    ( 0.0000,  0.0000,  0.0000)
  17 Li     7.403408    9.973506   11.007476    ( 0.0000,  0.0000,  0.0000)
  18 Li     9.871211   11.398292   12.014952    ( 0.0000,  0.0000,  0.0000)
  19 Li     4.935605    8.548719   13.022429    ( 0.0000,  0.0000,  0.0000)
  20 Li     7.403077    9.973463   14.046611    ( 0.0000,  0.0000,  0.0000)
  21 Li     9.870788   11.395966   15.059583    ( 0.0000,  0.0000,  0.0000)
  22 Li     4.936296    8.548396   15.997293    ( 0.0000,  0.0000,  0.0000)
  23 Li     7.405975    9.979818   17.048181    ( 0.0000,  0.0000,  0.0000)
  24 Li     4.935605    0.000000   10.000000    ( 0.0000,  0.0000,  0.0000)
  25 Li     7.403408    1.424787   11.007476    ( 0.0000,  0.0000,  0.0000)
  26 Li     9.871211    2.849573   12.014952    ( 0.0000,  0.0000,  0.0000)
  27 Li     4.935605    0.000000   13.022429    ( 0.0000,  0.0000,  0.0000)
  28 Li     7.403316    1.424270   14.046649    ( 0.0000,  0.0000,  0.0000)
  29 Li     9.870733    2.848128   15.060581    ( 0.0000,  0.0000,  0.0000)
  30 Li     4.922577    0.007013   16.031384    ( 0.0000,  0.0000,  0.0000)
  31 Li     7.396926    1.423752   17.048140    ( 0.0000,  0.0000,  0.0000)
  32 Li     7.403408    4.274360   10.000000    ( 0.0000,  0.0000,  0.0000)
  33 Li     9.871211    5.699146   11.007476    ( 0.0000,  0.0000,  0.0000)
  34 Li    12.339013    7.123933   12.014952    ( 0.0000,  0.0000,  0.0000)
  35 Li     7.403408    4.274360   13.022429    ( 0.0000,  0.0000,  0.0000)
  36 Li     9.871274    5.699183   14.046605    ( 0.0000,  0.0000,  0.0000)
  37 Li    12.339315    7.124107   15.060431    ( 0.0000,  0.0000,  0.0000)
  38 Li     7.405703    4.275685   15.996219    ( 0.0000,  0.0000,  0.0000)
  39 Li     9.871128    5.699099   17.042436    ( 0.0000,  0.0000,  0.0000)
  40 Li     9.871211    8.548719   10.000000    ( 0.0000,  0.0000,  0.0000)
  41 Li    12.339013    9.973506   11.007476    ( 0.0000,  0.0000,  0.0000)
  42 Li    14.806816   11.398292   12.014952    ( 0.0000,  0.0000,  0.0000)
  43 Li     9.871211    8.548719   13.022429    ( 0.0000,  0.0000,  0.0000)
  44 Li    12.339251    9.973508   14.046668    ( 0.0000,  0.0000,  0.0000)
  45 Li    14.805985   11.397702   15.057822    ( 0.0000,  0.0000,  0.0000)
  46 Li     9.871229    8.546394   15.996101    ( 0.0000,  0.0000,  0.0000)
  47 Li    12.336547    9.980129   17.047684    ( 0.0000,  0.0000,  0.0000)
  48 Li     9.871211    0.000000   10.000000    ( 0.0000,  0.0000,  0.0000)
  49 Li    12.339013    1.424787   11.007476    ( 0.0000,  0.0000,  0.0000)
  50 Li    14.806816    2.849573   12.014952    ( 0.0000,  0.0000,  0.0000)
  51 Li     9.871211    0.000000   13.022429    ( 0.0000,  0.0000,  0.0000)
  52 Li    12.338810    1.424521   14.046611    ( 0.0000,  0.0000,  0.0000)
  53 Li    14.804590    2.850370   15.059583    ( 0.0000,  0.0000,  0.0000)
  54 Li     9.871276    0.000760   15.997293    ( 0.0000,  0.0000,  0.0000)
  55 Li    12.345764    1.423854   17.048181    ( 0.0000,  0.0000,  0.0000)
  56 Li    12.339013    4.274360   10.000000    ( 0.0000,  0.0000,  0.0000)
  57 Li    14.806816    5.699146   11.007476    ( 0.0000,  0.0000,  0.0000)
  58 Li    17.274619    7.123933   12.014952    ( 0.0000,  0.0000,  0.0000)
  59 Li    12.339013    4.274360   13.022429    ( 0.0000,  0.0000,  0.0000)
  60 Li    14.806937    5.699351   14.046668    ( 0.0000,  0.0000,  0.0000)
  61 Li    17.273691    7.123508   15.057822    ( 0.0000,  0.0000,  0.0000)
  62 Li    12.337009    4.275538   15.996101    ( 0.0000,  0.0000,  0.0000)
  63 Li    14.811319    5.693698   17.047684    ( 0.0000,  0.0000,  0.0000)
  64 Li    14.806816    8.548719   10.000000    ( 0.0000,  0.0000,  0.0000)
  65 Li    17.274619    9.973506   11.007476    ( 0.0000,  0.0000,  0.0000)
  66 Li    19.742421   11.398292   12.014952    ( 0.0000,  0.0000,  0.0000)
  67 Li    14.806816    8.548719   13.022429    ( 0.0000,  0.0000,  0.0000)
  68 Li    17.274284    9.973313   14.047402    ( 0.0000,  0.0000,  0.0000)
  69 Li    19.741758   11.397909   15.058305    ( 0.0000,  0.0000,  0.0000)
  70 Li    14.806155    8.548338   15.997617    ( 0.0000,  0.0000,  0.0000)
  71 Li    17.274702    9.973554   17.042173    ( 0.0000,  0.0000,  0.0000)
  72 Li     2.468020    1.424912   19.360746    ( 0.0000,  0.0000,  0.0000)

Unit cell:
           periodic     x           y           z      points  spacing
  1. axis:    yes   14.806816    0.000000    0.000000    49     0.2617
  2. axis:    yes    7.403408   12.823079    0.000000    49     0.2617
  3. axis:    no     0.000000    0.000000   27.052334    90     0.3006

  Lengths:  14.806816  14.806816  27.052334
  Angles:   90.000000  90.000000  60.000000

Effective grid spacing dv^(1/3) = 0.2875

     iter     time        total  log10-change:
                         energy   eigst   dens
iter:   1 14:04:56  -124.990599   -2.88
iter:   2 14:05:02  -124.969629   -4.27  -1.79
iter:   3 14:05:07  -124.959278c  -3.19  -1.93
iter:   4 14:05:13  -124.955561c  -4.04  -2.23
iter:   5 14:05:18  -124.952975c  -4.44  -2.41
iter:   6 14:05:25  -124.953071c  -5.44c -2.89
iter:   7 14:05:31  -124.953202c  -5.35c -2.96
iter:   8 14:05:37  -124.953032c  -5.42c -3.09
iter:   9 14:05:43  -124.953118c  -6.26c -2.97
iter:  10 14:05:49  -124.953347c  -5.88c -3.12
iter:  11 14:05:55  -124.953299c  -6.83c -3.42
iter:  12 14:06:00  -124.953237c  -6.83c -3.51
iter:  13 14:06:05  -124.953248c  -7.14c -3.71
iter:  14 14:06:11  -124.953214c  -7.30c -3.78
iter:  15 14:06:16  -124.953209c  -7.58c -3.92
iter:  16 14:06:23  -124.953242c  -7.36c -3.94
iter:  17 14:06:28  -124.953214c  -7.35c -4.10c

Converged after 17 iterations.

Dipole moment: (-11.442919, -6.606572, 0.348809) |e|*Ang

Energy contributions relative to reference atoms: (reference = -14803.510878)

Kinetic:        +91.732421
Potential:      -83.965739
External:        +0.000000
XC:            -131.695580
Entropy (-ST):   -1.163856
Local:           -0.442388
SIC:             +0.000000
--------------------------
Free energy:   -125.535142
Extrapolated:  -124.953214

Showing all kpts
 Kpt  Band  Eigenvalues  Occupancy
  0    34     -1.87367    1.34610
  0    35     -1.75881    0.78987
  0    36     -1.72770    0.64699
  0    37     -1.72010    0.61421

  1    34     -1.90204    1.46434
  1    35     -1.90128    1.46137
  1    36     -1.86656    1.31443
  1    37     -1.78206    0.90325


Fermi level: -1.80147

No gap
No difference between direct/indirect transitions

Forces in eV/Ang:
  0 Li   -0.00382   -0.00221    0.04697
  1 Li   -0.00070   -0.00041    0.14810
  2 Li    0.00913    0.00527   -0.08951
  3 Li    0.01390    0.00802   -0.02464
  4 Li   -0.00171   -0.00099   -0.29390
  5 Li    0.01136    0.00656    0.03695
  6 Li   -0.00462   -0.00267   -0.06471
  7 Li   -0.00067   -0.00039    0.02403
  8 Li   -0.00115    0.00492    0.04539
  9 Li   -0.00548   -0.00168    0.19685
 10 Li    0.00329    0.00307   -0.07551
 11 Li   -0.00021   -0.01509   -0.02415
 12 Li   -0.00109    0.00121    0.04995
 13 Li   -0.00366    0.00060    0.06568
 14 Li   -0.00123    0.00633   -0.06530
 15 Li   -0.00500   -0.00875   -0.01717
 16 Li    0.00013   -0.00136    0.03620
 17 Li    0.00159    0.00367    0.19683
 18 Li    0.00265   -0.00784   -0.09156
 19 Li   -0.00011    0.00088   -0.09040
 20 Li   -0.00128   -0.00130    0.04989
 21 Li   -0.00118   -0.01706    0.03612
 22 Li    0.00254   -0.00148   -0.14689
 23 Li    0.00549    0.00917   -0.01719
 24 Li    0.00368   -0.00346    0.04539
 25 Li   -0.00419   -0.00390    0.19685
 26 Li    0.00430    0.00131   -0.07551
 27 Li   -0.01317    0.00736   -0.02415
 28 Li    0.00050   -0.00155    0.04995
 29 Li   -0.00131   -0.00347    0.06568
 30 Li    0.00487   -0.00423   -0.06530
 31 Li   -0.01008    0.00005   -0.01717
 32 Li   -0.00822   -0.00475    0.03536
 33 Li    0.00157    0.00091    0.20530
 34 Li    0.00305    0.00176   -0.07563
 35 Li    0.00049    0.00028   -0.08870
 36 Li    0.00016    0.00009    0.04689
 37 Li    0.00021    0.00012    0.06567
 38 Li    0.00562    0.00324   -0.15295
 39 Li   -0.00028   -0.00016   -0.03092
 40 Li   -0.00051    0.00982    0.03461
 41 Li   -0.00030    0.00381    0.19753
 42 Li    0.00149    0.00064   -0.08318
 43 Li    0.00131    0.00011   -0.08980
 44 Li    0.00085   -0.00185    0.04981
 45 Li   -0.00793    0.00130    0.06452
 46 Li    0.00021   -0.00604   -0.15377
 47 Li   -0.00493    0.00944   -0.01858
 48 Li   -0.00112    0.00079    0.03620
 49 Li    0.00397   -0.00046    0.19683
 50 Li   -0.00547    0.00622   -0.09156
 51 Li    0.00070   -0.00054   -0.09040
 52 Li   -0.00176   -0.00046    0.04989
 53 Li   -0.01536    0.00751    0.03612
 54 Li   -0.00001    0.00294   -0.14689
 55 Li    0.01068    0.00017   -0.01719
 56 Li    0.00825   -0.00536    0.03461
 57 Li    0.00315   -0.00216    0.19753
 58 Li    0.00130    0.00097   -0.08318
 59 Li    0.00075    0.00108   -0.08980
 60 Li   -0.00117    0.00166    0.04981
 61 Li   -0.00284   -0.00752    0.06452
 62 Li   -0.00512    0.00321   -0.15377
 63 Li    0.00571   -0.00899   -0.01858
 64 Li   -0.00058   -0.00034    0.03745
 65 Li   -0.00204   -0.00118    0.19749
 66 Li    0.00411    0.00237   -0.08164
 67 Li    0.00074    0.00043   -0.09214
 68 Li   -0.00151   -0.00087    0.04664
 69 Li    0.00416    0.00240    0.06564
 70 Li   -0.00284   -0.00164   -0.14583
 71 Li    0.00003    0.00002   -0.03199
 72 Li    0.00073    0.00042   -0.08561

System changes: positions 

Initializing position-dependent things.

Density initialized from wave functions
                                                                       
                                                                       
                                                                       
                                                                       
                                                                       
                                                                       
                                                                       
                               Li          Li          Li              
                                                                       
              Li        Li          LiLi        LiLi          Li       
                      Li          Li           Li                      
                             LiLi        LiLi        LiLi              
                Li        LiLi        LiLi        Li          Li       
              Li      LiLi         Lii         Lii                     
       Li          LiLi        LiLi        LiLi        Li              
                Li          Lii         Lii          Li                
              Li        LiLi        LiLi        Li                     
                     Lii         LiLi        LiLi                      
       Li          Li          Li                                      
              LiLi        LiLi        LiLi                             
                                                                       
       Li          Li          Li                                      
                                                                       
                                                                       
                                                                       
                                                                       

Atomic positions and initial magnetic moments

Positions:
   0 Li     0.000000    0.000000   10.000000    ( 0.0000,  0.0000,  0.0000)
   1 Li     2.467803    1.424787   11.007476    ( 0.0000,  0.0000,  0.0000)
   2 Li     4.935605    2.849573   12.014952    ( 0.0000,  0.0000,  0.0000)
   3 Li     0.000000    0.000000   13.022429    ( 0.0000,  0.0000,  0.0000)
   4 Li     2.467104    1.424383   14.002490    ( 0.0000,  0.0000,  0.0000)
   5 Li     4.936995    2.850375   15.062482    ( 0.0000,  0.0000,  0.0000)
   6 Li     0.014348    0.008284   16.028832    ( 0.0000,  0.0000,  0.0000)
   7 Li     2.467474    1.424597   16.603232    ( 0.0000,  0.0000,  0.0000)
   8 Li     2.467803    4.274360   10.000000    ( 0.0000,  0.0000,  0.0000)
   9 Li     4.935605    5.699146   11.007476    ( 0.0000,  0.0000,  0.0000)
  10 Li     7.403408    7.123933   12.014952    ( 0.0000,  0.0000,  0.0000)
  11 Li     2.467803    4.274360   13.022429    ( 0.0000,  0.0000,  0.0000)
  12 Li     4.935045    5.699368   14.049214    ( 0.0000,  0.0000,  0.0000)
  13 Li     7.401710    7.124280   15.064047    ( 0.0000,  0.0000,  0.0000)
  14 Li     2.467297    4.258566   16.028692    ( 0.0000,  0.0000,  0.0000)
  15 Li     4.931018    5.693432   17.047380    ( 0.0000,  0.0000,  0.0000)
  16 Li     4.935605    8.548719   10.000000    ( 0.0000,  0.0000,  0.0000)
  17 Li     7.403408    9.973506   11.007476    ( 0.0000,  0.0000,  0.0000)
  18 Li     9.871211   11.398292   12.014952    ( 0.0000,  0.0000,  0.0000)
  19 Li     4.935605    8.548719   13.022429    ( 0.0000,  0.0000,  0.0000)
  20 Li     7.403020    9.973429   14.049172    ( 0.0000,  0.0000,  0.0000)
  21 Li     9.870725   11.395359   15.062232    ( 0.0000,  0.0000,  0.0000)
  22 Li     4.936413    8.548334   15.989889    ( 0.0000,  0.0000,  0.0000)
  23 Li     7.406312    9.980543   17.047424    ( 0.0000,  0.0000,  0.0000)
  24 Li     4.935605    0.000000   10.000000    ( 0.0000,  0.0000,  0.0000)
  25 Li     7.403408    1.424787   11.007476    ( 0.0000,  0.0000,  0.0000)
  26 Li     9.871211    2.849573   12.014952    ( 0.0000,  0.0000,  0.0000)
  27 Li     4.935605    0.000000   13.022429    ( 0.0000,  0.0000,  0.0000)
  28 Li     7.403320    1.424191   14.049214    ( 0.0000,  0.0000,  0.0000)
  29 Li     9.870663    2.847929   15.064047    ( 0.0000,  0.0000,  0.0000)
  30 Li     4.921675    0.007459   16.028692    ( 0.0000,  0.0000,  0.0000)
  31 Li     7.396166    1.423671   17.047380    ( 0.0000,  0.0000,  0.0000)
  32 Li     7.403408    4.274360   10.000000    ( 0.0000,  0.0000,  0.0000)
  33 Li     9.871211    5.699146   11.007476    ( 0.0000,  0.0000,  0.0000)
  34 Li    12.339013    7.123933   12.014952    ( 0.0000,  0.0000,  0.0000)
  35 Li     7.403408    4.274360   13.022429    ( 0.0000,  0.0000,  0.0000)
  36 Li     9.871283    5.699188   14.049092    ( 0.0000,  0.0000,  0.0000)
  37 Li    12.339343    7.124123   15.063885    ( 0.0000,  0.0000,  0.0000)
  38 Li     7.406024    4.275870   15.988580    ( 0.0000,  0.0000,  0.0000)
  39 Li     9.871115    5.699091   17.040887    ( 0.0000,  0.0000,  0.0000)
  40 Li     9.871211    8.548719   10.000000    ( 0.0000,  0.0000,  0.0000)
  41 Li    12.339013    9.973506   11.007476    ( 0.0000,  0.0000,  0.0000)
  42 Li    14.806816   11.398292   12.014952    ( 0.0000,  0.0000,  0.0000)
  43 Li     9.871211    8.548719   13.022429    ( 0.0000,  0.0000,  0.0000)
  44 Li    12.339290    9.973464   14.049231    ( 0.0000,  0.0000,  0.0000)
  45 Li    14.805722   11.397688   15.061040    ( 0.0000,  0.0000,  0.0000)
  46 Li     9.871236    8.546061   15.988431    ( 0.0000,  0.0000,  0.0000)
  47 Li    12.336232    9.980885   17.046854    ( 0.0000,  0.0000,  0.0000)
  48 Li     9.871211    0.000000   10.000000    ( 0.0000,  0.0000,  0.0000)
  49 Li    12.339013    1.424787   11.007476    ( 0.0000,  0.0000,  0.0000)
  50 Li    14.806816    2.849573   12.014952    ( 0.0000,  0.0000,  0.0000)
  51 Li     9.871211    0.000000   13.022429    ( 0.0000,  0.0000,  0.0000)
  52 Li    12.338753    1.424489   14.049172    ( 0.0000,  0.0000,  0.0000)
  53 Li    14.804033    2.850619   15.062232    ( 0.0000,  0.0000,  0.0000)
  54 Li     9.871281    0.000892   15.989889    ( 0.0000,  0.0000,  0.0000)
  55 Li    12.346560    1.423783   17.047424    ( 0.0000,  0.0000,  0.0000)
  56 Li    12.339013    4.274360   10.000000    ( 0.0000,  0.0000,  0.0000)
  57 Li    14.806816    5.699146   11.007476    ( 0.0000,  0.0000,  0.0000)
  58 Li    17.274619    7.123933   12.014952    ( 0.0000,  0.0000,  0.0000)
  59 Li    12.339013    4.274360   13.022429    ( 0.0000,  0.0000,  0.0000)
  60 Li    14.806918    5.699406   14.049231    ( 0.0000,  0.0000,  0.0000)
  61 Li    17.273548    7.123287   15.061040    ( 0.0000,  0.0000,  0.0000)
  62 Li    12.336724    4.275711   15.988431    ( 0.0000,  0.0000,  0.0000)
  63 Li    14.811815    5.693048   17.046854    ( 0.0000,  0.0000,  0.0000)
  64 Li    14.806816    8.548719   10.000000    ( 0.0000,  0.0000,  0.0000)
  65 Li    17.274619    9.973506   11.007476    ( 0.0000,  0.0000,  0.0000)
  66 Li    19.742421   11.398292   12.014952    ( 0.0000,  0.0000,  0.0000)
  67 Li    14.806816    8.548719   13.022429    ( 0.0000,  0.0000,  0.0000)
  68 Li    17.274221    9.973276   14.049945    ( 0.0000,  0.0000,  0.0000)
  69 Li    19.741809   11.397939   15.061589    ( 0.0000,  0.0000,  0.0000)
  70 Li    14.806033    8.548267   15.990264    ( 0.0000,  0.0000,  0.0000)
  71 Li    17.274710    9.973558   17.040576    ( 0.0000,  0.0000,  0.0000)
  72 Li     2.468056    1.424933   19.382335    ( 0.0000,  0.0000,  0.0000)

Unit cell:
           periodic     x           y           z      points  spacing
  1. axis:    yes   14.806816    0.000000    0.000000    49     0.2617
  2. axis:    yes    7.403408   12.823079    0.000000    49     0.2617
  3. axis:    no     0.000000    0.000000   27.052334    90     0.3006

  Lengths:  14.806816  14.806816  27.052334
  Angles:   90.000000  90.000000  60.000000

Effective grid spacing dv^(1/3) = 0.2875

     iter     time        total  log10-change:
                         energy   eigst   dens
iter:   1 14:06:40  -124.972304   -3.39
iter:   2 14:06:45  -124.966045   -4.81  -2.01
iter:   3 14:06:50  -124.964093c  -3.66  -2.16
iter:   4 14:06:56  -124.962138c  -4.34  -2.46
iter:   5 14:07:02  -124.961039c  -5.13  -2.51
iter:   6 14:07:09  -124.961241c  -5.22  -2.78
iter:   7 14:07:14  -124.961565c  -5.58c -3.22
iter:   8 14:07:19  -124.961413c  -5.98c -3.22
iter:   9 14:07:25  -124.961346c  -6.22c -3.29
iter:  10 14:07:30  -124.961492c  -6.50c -3.50
iter:  11 14:07:35  -124.961439c  -6.97c -3.59
iter:  12 14:07:41  -124.961409c  -7.37c -3.82
iter:  13 14:07:46  -124.961401c  -7.61c -3.92
iter:  14 14:07:53  -124.961399c  -7.51c -4.04c

Converged after 14 iterations.

Dipole moment: (-11.483483, -6.629992, 0.354931) |e|*Ang

Energy contributions relative to reference atoms: (reference = -14803.510878)

Kinetic:        +91.825358
Potential:      -84.029358
External:        +0.000000
XC:            -131.733107
Entropy (-ST):   -1.163117
Local:           -0.442734
SIC:             +0.000000
--------------------------
Free energy:   -125.542958
Extrapolated:  -124.961399

Showing all kpts
 Kpt  Band  Eigenvalues  Occupancy
  0    34     -1.87166    1.34322
  0    35     -1.75681    0.78683
  0    36     -1.72780    0.65342
  0    37     -1.71930    0.61658

  1    34     -1.90160    1.46794
  1    35     -1.90070    1.46444
  1    36     -1.86485    1.31284
  1    37     -1.77982    0.89892


Fermi level: -1.80011

No gap
No difference between direct/indirect transitions

Forces in eV/Ang:
  0 Li   -0.00386   -0.00223    0.04784
  1 Li   -0.00073   -0.00042    0.14351
  2 Li    0.00926    0.00534   -0.08830
  3 Li    0.01340    0.00774   -0.02456
  4 Li   -0.00160   -0.00092   -0.30979
  5 Li    0.01126    0.00650    0.03129
  6 Li   -0.00932   -0.00538   -0.06342
  7 Li   -0.00051   -0.00029    0.11373
  8 Li   -0.00115    0.00489    0.04626
  9 Li   -0.00542   -0.00148    0.19766
 10 Li    0.00332    0.00310   -0.07335
 11 Li   -0.00024   -0.01455   -0.02399
 12 Li   -0.00103    0.00160    0.04648
 13 Li   -0.00346    0.00060    0.06115
 14 Li   -0.00115    0.01142   -0.06405
 15 Li   -0.00369   -0.00777   -0.01645
 16 Li   -0.00008   -0.00127    0.03610
 17 Li    0.00152    0.00353    0.19763
 18 Li    0.00267   -0.00807   -0.09036
 19 Li   -0.00032    0.00095   -0.09352
 20 Li   -0.00157   -0.00157    0.04640
 21 Li   -0.00110   -0.01674    0.03046
 22 Li    0.00234   -0.00145   -0.13918
 23 Li    0.00525    0.00745   -0.01646
 24 Li    0.00366   -0.00344    0.04626
 25 Li   -0.00399   -0.00396    0.19766
 26 Li    0.00434    0.00133   -0.07335
 27 Li   -0.01272    0.00707   -0.02399
 28 Li    0.00087   -0.00169    0.04648
 29 Li   -0.00121   -0.00329    0.06115
 30 Li    0.00932   -0.00671   -0.06405
 31 Li   -0.00857    0.00069   -0.01645
 32 Li   -0.00805   -0.00465    0.03522
 33 Li    0.00162    0.00094    0.20574
 34 Li    0.00299    0.00172   -0.07346
 35 Li    0.00048    0.00028   -0.09210
 36 Li    0.00018    0.00010    0.04317
 37 Li    0.00018    0.00010    0.06120
 38 Li    0.00511    0.00295   -0.14523
 39 Li   -0.00020   -0.00011   -0.02941
 40 Li   -0.00059    0.00956    0.03457
 41 Li   -0.00020    0.00363    0.19833
 42 Li    0.00168    0.00050   -0.08110
 43 Li    0.00128   -0.00002   -0.09324
 44 Li    0.00118   -0.00219    0.04628
 45 Li   -0.00812    0.00161    0.06095
 46 Li    0.00021   -0.00566   -0.14604
 47 Li   -0.00466    0.00759   -0.01773
 48 Li   -0.00114    0.00057    0.03610
 49 Li    0.00381   -0.00045    0.19763
[...]
  1 Li    0.00123    0.00071   -0.21384
  2 Li    0.01669    0.00964   -0.08462
  3 Li   -0.01282   -0.00740   -0.07463
  4 Li    0.00107    0.00062    0.00979
  5 Li    0.00420    0.00242    0.00255
  6 Li   -0.01427   -0.00824    0.03620
  7 Li   -0.00092   -0.00053   -0.02463
  8 Li   -0.00130    0.00456    0.08094
  9 Li   -0.00193    0.00400    0.18197
 10 Li    0.00380    0.00375   -0.05773
 11 Li   -0.00434    0.01218   -0.07275
 12 Li   -0.00391    0.00608    0.03197
 13 Li    0.00686   -0.00167   -0.00018
 14 Li   -0.00031    0.01393    0.03702
 15 Li   -0.01729    0.00498   -0.00516
 16 Li    0.00005   -0.00081    0.03680
 17 Li   -0.00076   -0.00237    0.18203
 18 Li    0.00339   -0.01952   -0.08849
 19 Li   -0.00676    0.00301   -0.17759
 20 Li   -0.00702   -0.00077    0.03119
 21 Li   -0.00094   -0.00191    0.00172
 22 Li    0.01338   -0.00990    0.00147
 23 Li   -0.01292    0.01177   -0.00493
 24 Li    0.00330   -0.00341    0.08094
 25 Li    0.00250   -0.00367    0.18197
 26 Li    0.00515    0.00141   -0.05773
 27 Li    0.00838   -0.00985   -0.07275
 28 Li    0.00331   -0.00643    0.03197
 29 Li    0.00198    0.00678   -0.00018
 30 Li    0.01191   -0.00723    0.03702
 31 Li   -0.00433   -0.01746   -0.00516
 32 Li   -0.00454   -0.00262    0.03689
 33 Li    0.00268    0.00155    0.17897
 34 Li    0.00248    0.00143   -0.05472
 35 Li   -0.00268   -0.00155   -0.21060
 36 Li    0.00014    0.00008    0.03303
 37 Li   -0.00711   -0.00411   -0.00227
 38 Li    0.04000    0.02310    0.00505
 39 Li    0.00134    0.00077   -0.00241
 40 Li   -0.00186    0.00520    0.03974
 41 Li    0.00401   -0.00253    0.18331
 42 Li    0.00621   -0.00452   -0.06081
 43 Li   -0.00019    0.00032   -0.21430
 44 Li    0.00826   -0.00104    0.03110
 45 Li   -0.01020    0.00668   -0.00832
 46 Li   -0.00036   -0.05240    0.00344
 47 Li    0.01358    0.01150   -0.00408
 48 Li   -0.00068    0.00045    0.03680
 49 Li   -0.00243    0.00053    0.18203
 50 Li   -0.01521    0.01270   -0.08849
 51 Li   -0.00077   -0.00736   -0.17759
 52 Li   -0.00418   -0.00569    0.03119
 53 Li   -0.00212    0.00014    0.00172
 54 Li   -0.00189    0.01654    0.00147
 55 Li    0.00373   -0.01707   -0.00493
 56 Li    0.00358   -0.00421    0.03974
 57 Li   -0.00019    0.00474    0.18331
 58 Li   -0.00081    0.00764   -0.06081
 59 Li    0.00018   -0.00032   -0.21430
 60 Li    0.00322    0.00767    0.03110
 61 Li    0.00068   -0.01217   -0.00832
 62 Li   -0.04556    0.02589    0.00344
 63 Li    0.01675    0.00601   -0.00408
 64 Li    0.00051    0.00029    0.04227
 65 Li   -0.00348   -0.00201    0.17567
 66 Li   -0.00086   -0.00050   -0.06017
 67 Li    0.00488    0.00282   -0.17924
 68 Li   -0.00202   -0.00117    0.02771
 69 Li    0.01189    0.00687   -0.00844
 70 Li   -0.01372   -0.00792    0.00034
 71 Li   -0.00093   -0.00054    0.01506
 72 Li    0.00536    0.00309   -0.02877

System changes: positions 

Initializing position-dependent things.

Density initialized from wave functions
                                                                       
                                                                       
                                                                       
                                                                       
                                                                       
                                                                       
                               Li          Li          Li              
                                                                       
                                      Li          Li          Li       
              Li       Lii        LiLi        LiLi                     
                             LiLi        LiLi        LiLi              
                Li        LiLi        LiLi        Li          Li       
              Li      LiLi         Lii         Lii                     
       Li          LiLi        LiLi        LiLi        Li              
                Li          Lii         Lii          Li                
              Li        LiLi        LiLi        Li                     
                     Lii         LiLi        LiLi                      
       Li          Li          Li                                      
              LiLi        LiLi        LiLi                             
                                                                       
       Li          Li          Li                                      
                                                                       
                                                                       
                                                                       
                                                                       

Atomic positions and initial magnetic moments

Positions:
   0 Li     0.000000    0.000000   10.000000    ( 0.0000,  0.0000,  0.0000)
   1 Li     2.467803    1.424787   11.007476    ( 0.0000,  0.0000,  0.0000)
   2 Li     4.935605    2.849573   12.014952    ( 0.0000,  0.0000,  0.0000)
   3 Li     0.000000    0.000000   13.022429    ( 0.0000,  0.0000,  0.0000)
   4 Li     2.464430    1.422839   13.573106    ( 0.0000,  0.0000,  0.0000)
   5 Li     4.919949    2.840534   15.038352    ( 0.0000,  0.0000,  0.0000)
   6 Li    -0.000738   -0.000426   15.927618    ( 0.0000,  0.0000,  0.0000)
   7 Li     2.461619    1.421216   16.041120    ( 0.0000,  0.0000,  0.0000)
   8 Li     2.467803    4.274360   10.000000    ( 0.0000,  0.0000,  0.0000)
   9 Li     4.935605    5.699146   11.007476    ( 0.0000,  0.0000,  0.0000)
  10 Li     7.403408    7.123933   12.014952    ( 0.0000,  0.0000,  0.0000)
  11 Li     2.467803    4.274360   13.022429    ( 0.0000,  0.0000,  0.0000)
  12 Li     4.930106    5.706197   14.030913    ( 0.0000,  0.0000,  0.0000)
  13 Li     7.401525    7.120077   15.081065    ( 0.0000,  0.0000,  0.0000)
  14 Li     2.460915    4.270837   15.928627    ( 0.0000,  0.0000,  0.0000)
  15 Li     4.978211    5.658534   16.982678    ( 0.0000,  0.0000,  0.0000)
  16 Li     4.935605    8.548719   10.000000    ( 0.0000,  0.0000,  0.0000)
  17 Li     7.403408    9.973506   11.007476    ( 0.0000,  0.0000,  0.0000)
  18 Li     9.871211   11.398292   12.014952    ( 0.0000,  0.0000,  0.0000)
  19 Li     4.935605    8.548719   13.022429    ( 0.0000,  0.0000,  0.0000)
  20 Li     7.394586    9.969720   14.029897    ( 0.0000,  0.0000,  0.0000)
  21 Li     9.868950   11.403772   15.033170    ( 0.0000,  0.0000,  0.0000)
  22 Li     4.940095    8.541860   15.852376    ( 0.0000,  0.0000,  0.0000)
  23 Li     7.460330    9.949379   16.980502    ( 0.0000,  0.0000,  0.0000)
  24 Li     4.935605    0.000000   10.000000    ( 0.0000,  0.0000,  0.0000)
  25 Li     7.403408    1.424787   11.007476    ( 0.0000,  0.0000,  0.0000)
  26 Li     9.871211    2.849573   12.014952    ( 0.0000,  0.0000,  0.0000)
  27 Li     4.935605    0.000000   13.022429    ( 0.0000,  0.0000,  0.0000)
  28 Li     7.406765    1.416498   14.030913    ( 0.0000,  0.0000,  0.0000)
  29 Li     9.866930    2.849870   15.081065    ( 0.0000,  0.0000,  0.0000)
  30 Li     4.929111   -0.004203   15.928627    ( 0.0000,  0.0000,  0.0000)
  31 Li     7.389540    1.481990   16.982678    ( 0.0000,  0.0000,  0.0000)
  32 Li     7.403408    4.274360   10.000000    ( 0.0000,  0.0000,  0.0000)
  33 Li     9.871211    5.699146   11.007476    ( 0.0000,  0.0000,  0.0000)
  34 Li    12.339013    7.123933   12.014952    ( 0.0000,  0.0000,  0.0000)
  35 Li     7.403408    4.274360   13.022429    ( 0.0000,  0.0000,  0.0000)
  36 Li     9.872531    5.699908   14.001256    ( 0.0000,  0.0000,  0.0000)
  37 Li    12.332496    7.120170   15.083137    ( 0.0000,  0.0000,  0.0000)
  38 Li     7.375465    4.258227   15.800208    ( 0.0000,  0.0000,  0.0000)
  39 Li     9.869915    5.698398   16.923285    ( 0.0000,  0.0000,  0.0000)
  40 Li     9.871211    8.548719   10.000000    ( 0.0000,  0.0000,  0.0000)
  41 Li    12.339013    9.973506   11.007476    ( 0.0000,  0.0000,  0.0000)
  42 Li    14.806816   11.398292   12.014952    ( 0.0000,  0.0000,  0.0000)
  43 Li     9.871211    8.548719   13.022429    ( 0.0000,  0.0000,  0.0000)
  44 Li    12.345304    9.966861   14.028292    ( 0.0000,  0.0000,  0.0000)
  45 Li    14.808465   11.387617   15.095446    ( 0.0000,  0.0000,  0.0000)
  46 Li     9.869825    8.576979   15.797403    ( 0.0000,  0.0000,  0.0000)
  47 Li    12.279172    9.948567   16.977219    ( 0.0000,  0.0000,  0.0000)
  48 Li     9.871211    0.000000   10.000000    ( 0.0000,  0.0000,  0.0000)
  49 Li    12.339013    1.424787   11.007476    ( 0.0000,  0.0000,  0.0000)
  50 Li    14.806816    2.849573   12.014952    ( 0.0000,  0.0000,  0.0000)
  51 Li     9.871211    0.000000   13.022429    ( 0.0000,  0.0000,  0.0000)
  52 Li    12.331324    1.419039   14.029897    ( 0.0000,  0.0000,  0.0000)
  53 Li    14.810431    2.844875   15.033170    ( 0.0000,  0.0000,  0.0000)
  54 Li     9.867515    0.007318   15.852376    ( 0.0000,  0.0000,  0.0000)
  55 Li    12.346580    1.486146   16.980502    ( 0.0000,  0.0000,  0.0000)
  56 Li    12.339013    4.274360   10.000000    ( 0.0000,  0.0000,  0.0000)
  57 Li    14.806816    5.699146   11.007476    ( 0.0000,  0.0000,  0.0000)
  58 Li    17.274619    7.123933   12.014952    ( 0.0000,  0.0000,  0.0000)
  59 Li    12.339013    4.274360   13.022429    ( 0.0000,  0.0000,  0.0000)
  60 Li    14.804207    5.707917   14.028292    ( 0.0000,  0.0000,  0.0000)
  61 Li    17.266198    7.130699   15.095446    ( 0.0000,  0.0000,  0.0000)
  62 Li    12.362794    4.259030   15.797403    ( 0.0000,  0.0000,  0.0000)
  63 Li    14.755298    5.659792   16.977219    ( 0.0000,  0.0000,  0.0000)
  64 Li    14.806816    8.548719   10.000000    ( 0.0000,  0.0000,  0.0000)
  65 Li    17.274619    9.973506   11.007476    ( 0.0000,  0.0000,  0.0000)
  66 Li    19.742421   11.398292   12.014952    ( 0.0000,  0.0000,  0.0000)
  67 Li    14.806816    8.548719   13.022429    ( 0.0000,  0.0000,  0.0000)
  68 Li    17.270919    9.971370   14.019938    ( 0.0000,  0.0000,  0.0000)
  69 Li    19.730019   11.391132   15.097381    ( 0.0000,  0.0000,  0.0000)
  70 Li    14.792866    8.540665   15.852163    ( 0.0000,  0.0000,  0.0000)
  71 Li    17.266780    9.968980   16.934610    ( 0.0000,  0.0000,  0.0000)
  72 Li     2.478624    1.431034   18.618216    ( 0.0000,  0.0000,  0.0000)

Unit cell:
           periodic     x           y           z      points  spacing
  1. axis:    yes   14.806816    0.000000    0.000000    49     0.2617
  2. axis:    yes    7.403408   12.823079    0.000000    49     0.2617
  3. axis:    no     0.000000    0.000000   27.052334    90     0.3006

  Lengths:  14.806816  14.806816  27.052334
  Angles:   90.000000  90.000000  60.000000

Effective grid spacing dv^(1/3) = 0.2875

     iter     time        total  log10-change:
                         energy   eigst   dens
iter:   1 15:21:33  -125.168850   -3.65
iter:   2 15:21:42  -125.161782   -4.23  -2.11
iter:   3 15:21:51  -125.161021c  -4.58  -2.58
iter:   4 15:22:00  -125.160230c  -5.14  -2.80
iter:   5 15:22:09  -125.160175c  -5.28  -3.12
iter:   6 15:22:18  -125.160312c  -5.59c -3.19
iter:   7 15:22:28  -125.160271c  -6.43c -3.31
iter:   8 15:22:36  -125.160217c  -5.80c -3.36
iter:   9 15:22:45  -125.160232c  -6.43c -3.87
iter:  10 15:22:53  -125.160206c  -6.32c -3.98
iter:  11 15:23:03  -125.160199c  -6.74c -4.13c

Converged after 11 iterations.

Dipole moment: (-10.537806, -6.084005, 0.334369) |e|*Ang

Energy contributions relative to reference atoms: (reference = -14803.510878)

Kinetic:        +99.023974
Potential:      -88.648894
External:        +0.000000
XC:            -134.501822
Entropy (-ST):   -1.151591
Local:           -0.457661
SIC:             +0.000000
--------------------------
Free energy:   -125.735995
Extrapolated:  -125.160199

Showing all kpts
 Kpt  Band  Eigenvalues  Occupancy
  0    34     -1.81119    1.10024
  0    35     -1.77365    0.91311
  0    36     -1.74285    0.76342
  0    37     -1.69319    0.54626

  1    34     -1.93299    1.61042
  1    35     -1.92938    1.59896
  1    36     -1.82429    1.16457
  1    37     -1.72355    0.67464


Fermi level: -1.79107

No gap
No difference between direct/indirect transitions

Forces in eV/Ang:
  0 Li   -0.00539   -0.00311    0.08049
  1 Li    0.00114    0.00066   -0.20343
  2 Li    0.01673    0.00966   -0.08463
  3 Li   -0.01286   -0.00743   -0.07383
  4 Li    0.00106    0.00061   -0.00238
  5 Li    0.00492    0.00284    0.00366
  6 Li   -0.01278   -0.00738    0.03459
  7 Li   -0.00103   -0.00059   -0.02797
  8 Li   -0.00127    0.00479    0.08015
  9 Li   -0.00194    0.00390    0.18269
 10 Li    0.00375    0.00373   -0.05764
 11 Li   -0.00430    0.01223   -0.07193
 12 Li   -0.00356    0.00563    0.03089
 13 Li    0.00611   -0.00148    0.00008
 14 Li   -0.00031    0.01238    0.03540
 15 Li   -0.01653    0.00453   -0.00530
 16 Li   -0.00010   -0.00070    0.03686
 17 Li   -0.00072   -0.00224    0.18278
 18 Li    0.00336   -0.01946   -0.08854
 19 Li   -0.00673    0.00299   -0.17713
 20 Li   -0.00648   -0.00070    0.03009
 21 Li   -0.00091   -0.00303    0.00294
 22 Li    0.01282   -0.00942    0.00060
 23 Li   -0.01216    0.01134   -0.00512
 24 Li    0.00352   -0.00350    0.08015
 25 Li    0.00241   -0.00363    0.18269
 26 Li    0.00510    0.00138   -0.05764
 27 Li    0.00844   -0.00984   -0.07193
 28 Li    0.00309   -0.00589    0.03089
 29 Li    0.00177    0.00603    0.00008
 30 Li    0.01056   -0.00646    0.03540
 31 Li   -0.00434   -0.01658   -0.00530
 32 Li   -0.00464   -0.00268    0.03685
 33 Li    0.00270    0.00156    0.17992
 34 Li    0.00250    0.00144   -0.05471
 35 Li   -0.00307   -0.00177   -0.20938
 36 Li    0.00014    0.00008    0.03173
 37 Li   -0.00647   -0.00374   -0.00193
 38 Li    0.03796    0.02192    0.00400
 39 Li    0.00130    0.00075   -0.00213
 40 Li   -0.00187    0.00523    0.03970
 41 Li    0.00390   -0.00247    0.18408
 42 Li    0.00619   -0.00443   -0.06080
 43 Li   -0.00017    0.00071   -0.21312
 44 Li    0.00765   -0.00096    0.03002
 45 Li   -0.00931    0.00603   -0.00758
 46 Li   -0.00025   -0.04960    0.00250
 47 Li    0.01281    0.01102   -0.00425
 48 Li   -0.00066    0.00027    0.03686
 49 Li   -0.00230    0.00050    0.18278
 50 Li   -0.01517    0.01264   -0.08854
 51 Li   -0.00078   -0.00732   -0.17713
 52 Li   -0.00384   -0.00526    0.03009
 53 Li   -0.00308    0.00073    0.00294
 54 Li   -0.00175    0.01582    0.00060
 55 Li    0.00374   -0.01620   -0.00512
 56 Li    0.00360   -0.00423    0.03970
 57 Li   -0.00018    0.00461    0.18408
 58 Li   -0.00074    0.00757   -0.06080
 59 Li    0.00053   -0.00050   -0.21312
 60 Li    0.00299    0.00711    0.03002
 61 Li    0.00057   -0.01108   -0.00758
 62 Li   -0.04308    0.02458    0.00250
 63 Li    0.01595    0.00558   -0.00425
 64 Li    0.00061    0.00035    0.04234
 65 Li   -0.00345   -0.00199    0.17627
 66 Li   -0.00077   -0.00044   -0.06016
 67 Li    0.00479    0.00277   -0.17885
 68 Li   -0.00185   -0.00107    0.02681
 69 Li    0.01071    0.00619   -0.00771
 70 Li   -0.01320   -0.00762   -0.00049
 71 Li   -0.00090   -0.00052    0.01414
 72 Li    0.00538    0.00311   -0.02323

Timing:                                      incl.     excl.
-------------------------------------------------------------------
Density initialized from wave functions:    53.006    52.842   0.3% |
 Symmetrize density:                         0.163     0.163   0.0% |
Forces:                                    253.650   253.650   1.6% ||
Hamiltonian:                                82.341     0.239   0.0% |
 Atomic:                                    29.613     0.124   0.0% |
  XC Correction:                            29.489    29.489   0.2% |
 Calculate atomic Hamiltonians:             38.062    38.062   0.2% |
 Communicate:                                0.000     0.000   0.0% |
 Initialize Hamiltonian:                     0.001     0.001   0.0% |
 Poisson:                                    0.214     0.214   0.0% |
 XC 3D grid:                                14.211    14.211   0.1% |
LCAO initialization:                        28.361     0.010   0.0% |
 LCAO eigensolver:                           0.584     0.000   0.0% |
  Calculate projections:                     0.004     0.004   0.0% |
  DenseAtomicCorrection:                     0.055     0.055   0.0% |
  Distribute overlap matrix:                 0.000     0.000   0.0% |
  Orbital Layouts:                           0.166     0.166   0.0% |
  Potential matrix:                          0.307     0.307   0.0% |
  Sum over cells:                            0.052     0.052   0.0% |
 LCAO to grid:                              26.424    26.424   0.2% |
 Set positions (LCAO WFS):                   1.343     0.171   0.0% |
  Basic WFS set positions:                   0.002     0.002   0.0% |
  Basis functions set positions:             0.000     0.000   0.0% |
  P tci:                                     1.016     1.016   0.0% |
  ST tci:                                    0.125     0.125   0.0% |
  mktci:                                     0.029     0.029   0.0% |
PWDescriptor:                                0.018     0.018   0.0% |
Redistribute:                                0.122     0.122   0.0% |
SCF-cycle:                                4751.854     0.794   0.0% |
 Davidson:                                2649.403   459.947   2.9% ||
  Apply H:                                 488.742   483.258   3.0% ||
   HMM T:                                    5.485     5.485   0.0% |
  Subspace diag:                           558.311     0.360   0.0% |
   calc_h_matrix:                          515.327    26.846   0.2% |
    Apply H:                               488.481   475.071   3.0% ||
     HMM T:                                 13.410    13.410   0.1% |
   diagonalize:                              2.468     2.468   0.0% |
   rotate_psi:                              40.156    40.156   0.3% |
  calc. matrices:                         1073.652   130.587   0.8% |
   Apply H:                                943.065   934.627   5.8% |-|
    HMM T:                                   8.438     8.438   0.1% |
  diagonalize:                               7.320     7.320   0.0% |
  rotate_psi:                               61.432    61.432   0.4% |
 Density:                                  710.465     0.009   0.0% |
  Atomic density matrices:                   2.016     2.016   0.0% |
  Mix:                                     395.751   395.751   2.5% ||
  Multipole moments:                         0.391     0.391   0.0% |
  Pseudo density:                          312.297   310.142   1.9% ||
   Symmetrize density:                       2.155     2.155   0.0% |
 Hamiltonian:                              988.732     2.739   0.0% |
  Atomic:                                  421.167     2.186   0.0% |
   XC Correction:                          418.981   418.981   2.6% ||
  Calculate atomic Hamiltonians:           394.397   394.397   2.5% ||
  Communicate:                               0.005     0.005   0.0% |
  Poisson:                                   2.717     2.717   0.0% |
  XC 3D grid:                              167.708   167.708   1.0% |
 Orthonormalize:                           402.461     0.050   0.0% |
  calc_s_matrix:                             1.150     1.150   0.0% |
  inverse-cholesky:                          0.092     0.092   0.0% |
  projections:                             399.640   399.640   2.5% ||
  rotate_psi_s:                              1.529     1.529   0.0% |
Set symmetry:                                0.002     0.002   0.0% |
Other:                                   10842.792 10842.792  67.7% |--------------------------|
-------------------------------------------------------------------
Total:                                             16012.145 100.0%

Memory usage: 2.32 GiB
Date: Mon Nov 24 18:22:24 2025
