
  ___ ___ ___ _ _ _  
 |   |   |_  | | | | 
 | | | | | . | | | | 
 |__ |  _|___|_____|  25.7.0
 |___|_|             

User:   tew@Mathuss-MacBook-Air-357.local
Date:   Mon Nov 24 18:22:24 2025
Arch:   arm64
Pid:    76608
CWD:    /Users/tew/Documents/Project/GitHub/chem-com
Python: 3.13.5
gpaw:   /Users/tew/Documents/Project/GitHub/chem-com/.venv/lib/python3.13/site-packages/gpaw
_gpaw:  /Users/tew/Documents/Project/GitHub/chem-com/.venv/lib/python3.13/site-packages/
        _gpaw.cpython-313-darwin.so
ase:    /Users/tew/Documents/Project/GitHub/chem-com/.venv/lib/python3.13/site-packages/ase (version 3.26.0)
numpy:  /Users/tew/Documents/Project/GitHub/chem-com/.venv/lib/python3.13/site-packages/numpy (version 2.3.5)
scipy:  /Users/tew/Documents/Project/GitHub/chem-com/.venv/lib/python3.13/site-packages/scipy (version 1.16.3)
libxc:  2.x.y
units:  Angstrom and eV
cores: 1
OpenMP: False
OMP_NUM_THREADS: 1

Input parameters:
  convergence: {density: 0.0001,
                eigenstates: 5e-06}
  kpts: [2 2 1]
  mode: {ecut: 200.0,
         name: pw}
  xc: PBE

System changes: positions, numbers, cell, pbc, initial_charges, initial_magmoms 

Initialize ...

species:
  Li:
    name: Lithium
    id: 830b4218f175192f93f959cfc0aad614
    Z: 3.0
    valence: 1
    core: 2
    charge: 0.0
    file: /Users/tew/Documents/Project/GitHub/chem-com/.venv/lib/python3.13/site-packages/gpaw_data/setups/Li.PBE.gz
    compensation charges: {type: gauss,
                           rc: 0.33,
                           lmax: 2}
    cutoffs: {filter: 1.91,
              core: 2.55}
    projectors:
      #              energy  rcut
      - 2s(1.00)    -2.874   1.058
      - 2p(0.00)    -1.090   1.058
      -  s          24.337   1.058
  
    # Using partial waves for Li as LCAO basis

Reference energy: -14803.510878  # eV

Spin-paired calculation

Convergence criteria:
 Maximum [total energy] change in last 3 cyles: 0.0005 eV / valence electron
 Maximum integral of absolute [dens]ity change: 0.0001 electrons / valence electron
 Maximum integral of absolute [eigenst]ate change: 5e-06 eV^2 / valence electron
 Maximum number of scf [iter]ations: 333
 (Square brackets indicate name in SCF output, whereas a 'c' in
 the SCF output indicates the quantity has converged.)

Symmetries present (total): 1

  ( 1  0  0)
  ( 0  1  0)
  ( 0  0  1)

4 k-points: 2 x 2 x 1 Monkhorst-Pack grid
2 k-points in the irreducible part of the Brillouin zone
       k-points in crystal coordinates                weights
   0:     0.25000000   -0.25000000    0.00000000          2/4
   1:     0.25000000    0.25000000    0.00000000          2/4

Wave functions: Plane wave expansion
  Cutoff energy: 200.000 eV
  Number of coefficients (min, max): 33010, 33019
  Pulay-stress correction: 0.000000 eV/Ang^3 (de/decut=0.000000)
  Using Numpy's FFT
  ScaLapack parameters: grid=1x1, blocksize=None
  Wavefunction extrapolation:
    Improved wavefunction reuse through dual PAW basis 

Occupation numbers: Fermi-Dirac:
  width: 0.1000  # eV
 

Eigensolver
   Davidson(niter=2) 

Densities:
  Coarse grid: 49*49*90 grid
  Fine grid: 98*98*180 grid
  Total Charge: 0.000000 

Density mixing:
  Method: separate
  Backend: pulay
  Linear mixing parameter: 0.05
  old densities: 5
  Damping of long wavelength oscillations: 50 

Hamiltonian:
  XC and Coulomb potentials evaluated on a 98*98*180 grid
  Using the PBE Exchange-Correlation functional
  External potential:
    NoExternalPotential
 

XC parameters: PBE with 2 nearest neighbor stencil

Memory estimate:
  Process memory now: 2506.38 MiB
  Calculator: 211.72 MiB
    Density: 94.25 MiB
      Arrays: 42.86 MiB
      Localized functions: 34.90 MiB
      Mixer: 16.49 MiB
    Hamiltonian: 28.74 MiB
      Arrays: 28.03 MiB
      XC: 0.00 MiB
      Poisson: 0.00 MiB
      vbar: 0.71 MiB
    Wavefunctions: 88.74 MiB
      Arrays psit_nG: 48.37 MiB
      Eigensolver: 27.06 MiB
      Projections: 0.53 MiB
      Projectors: 3.53 MiB
      PW-descriptor: 9.25 MiB

Total number of cores used: 1

Number of atoms: 73
Number of atomic orbitals: 292
Number of bands in calculation: 48
Number of valence electrons: 73
Bands to converge: occupied

... initialized

Initializing position-dependent things.

Density initialized from atomic densities
Creating initial wave functions:
  48 bands from LCAO basis set

                                                                       
                                                                       
                                                                       
                                                                       
                                                                       
                                                                       
                               Li          Li          Li              
                                                                       
                    Li  Li            Li          Li          Li       
                                   Lii         Lii                     
                      Li     LiLi        LiLi        LiLi              
                Li        LiLi        LiLi        Li          Li       
              Li        Li         Lii         Lii                     
       Li          LiLii       LiLi        LiLi        Li              
                Li          Lii         Lii          Li                
              Li        LiLi        LiLi        Li                     
                     Lii         Lii         LiLi                      
       Li          Li          Li                                      
              LiLi        LiLi        LiLi                             
                                                                       
       Li          Li          Li                                      
                                                                       
                                                                       
                                                                       
                                                                       

Atomic positions and initial magnetic moments

Positions:
   0 Li     0.000000    0.000000   10.000000    ( 0.0000,  0.0000,  0.0000)
   1 Li     2.467803    1.424787   11.007476    ( 0.0000,  0.0000,  0.0000)
   2 Li     4.935605    2.849573   12.014952    ( 0.0000,  0.0000,  0.0000)
   3 Li     0.000000    0.000000   13.022429    ( 0.0000,  0.0000,  0.0000)
   4 Li     2.460730    1.423298   13.878179    ( 0.0000,  0.0000,  0.0000)
   5 Li     4.929731    2.854402   15.036653    ( 0.0000,  0.0000,  0.0000)
   6 Li     0.004048   -0.002621   15.877806    ( 0.0000,  0.0000,  0.0000)
   7 Li     2.503752    1.410353   16.668333    ( 0.0000,  0.0000,  0.0000)
   8 Li     2.467803    4.274360   10.000000    ( 0.0000,  0.0000,  0.0000)
   9 Li     4.935605    5.699146   11.007476    ( 0.0000,  0.0000,  0.0000)
  10 Li     7.403408    7.123933   12.014952    ( 0.0000,  0.0000,  0.0000)
  11 Li     2.467803    4.274360   13.022429    ( 0.0000,  0.0000,  0.0000)
  12 Li     4.932689    5.702122   13.726587    ( 0.0000,  0.0000,  0.0000)
  13 Li     7.395661    7.119294   15.050891    ( 0.0000,  0.0000,  0.0000)
  14 Li     2.464970    4.275805   15.928633    ( 0.0000,  0.0000,  0.0000)
  15 Li     4.947709    5.686820   16.355740    ( 0.0000,  0.0000,  0.0000)
  16 Li     4.935605    8.548719   10.000000    ( 0.0000,  0.0000,  0.0000)
  17 Li     7.403408    9.973506   11.007476    ( 0.0000,  0.0000,  0.0000)
  18 Li     9.871211   11.398292   12.014952    ( 0.0000,  0.0000,  0.0000)
  19 Li     4.935605    8.548719   13.022429    ( 0.0000,  0.0000,  0.0000)
  20 Li     7.398220    9.977815   14.030443    ( 0.0000,  0.0000,  0.0000)
  21 Li     9.870533   11.400075   15.064961    ( 0.0000,  0.0000,  0.0000)
  22 Li     4.934565    8.545588   15.903216    ( 0.0000,  0.0000,  0.0000)
  23 Li     7.452857    9.939167   16.981461    ( 0.0000,  0.0000,  0.0000)
  24 Li     4.935605    0.000000   10.000000    ( 0.0000,  0.0000,  0.0000)
  25 Li     7.403408    1.424787   11.007476    ( 0.0000,  0.0000,  0.0000)
  26 Li     9.871211    2.849573   12.014952    ( 0.0000,  0.0000,  0.0000)
  27 Li     4.935605    0.000000   13.022429    ( 0.0000,  0.0000,  0.0000)
  28 Li     7.409618    1.420219   14.030414    ( 0.0000,  0.0000,  0.0000)
  29 Li     9.873585    2.847477   15.090708    ( 0.0000,  0.0000,  0.0000)
  30 Li     4.933072    0.018706   15.842456    ( 0.0000,  0.0000,  0.0000)
  31 Li     7.360066    1.429783   16.981271    ( 0.0000,  0.0000,  0.0000)
  32 Li     7.403408    4.274360   10.000000    ( 0.0000,  0.0000,  0.0000)
  33 Li     9.871211    5.699146   11.007476    ( 0.0000,  0.0000,  0.0000)
  34 Li    12.339013    7.123933   12.014952    ( 0.0000,  0.0000,  0.0000)
  35 Li     7.403408    4.274360   13.022429    ( 0.0000,  0.0000,  0.0000)
  36 Li     9.875759    5.695894   14.020528    ( 0.0000,  0.0000,  0.0000)
  37 Li    12.335520    7.125104   15.082349    ( 0.0000,  0.0000,  0.0000)
  38 Li     7.392238    4.270053   15.886457    ( 0.0000,  0.0000,  0.0000)
  39 Li     9.863605    5.739464   16.961473    ( 0.0000,  0.0000,  0.0000)
  40 Li     9.871211    8.548719   10.000000    ( 0.0000,  0.0000,  0.0000)
  41 Li    12.339013    9.973506   11.007476    ( 0.0000,  0.0000,  0.0000)
  42 Li    14.806816   11.398292   12.014952    ( 0.0000,  0.0000,  0.0000)
  43 Li     9.871211    8.548719   13.022429    ( 0.0000,  0.0000,  0.0000)
  44 Li    12.341551    9.971036   14.010243    ( 0.0000,  0.0000,  0.0000)
  45 Li    14.804604   11.394665   15.086452    ( 0.0000,  0.0000,  0.0000)
  46 Li     9.853151    8.548405   15.798714    ( 0.0000,  0.0000,  0.0000)
  47 Li    12.318997    9.965233   16.941781    ( 0.0000,  0.0000,  0.0000)
  48 Li     9.871211    0.000000   10.000000    ( 0.0000,  0.0000,  0.0000)
  49 Li    12.339013    1.424787   11.007476    ( 0.0000,  0.0000,  0.0000)
  50 Li    14.806816    2.849573   12.014952    ( 0.0000,  0.0000,  0.0000)
  51 Li     9.871211    0.000000   13.022429    ( 0.0000,  0.0000,  0.0000)
  52 Li    12.335246    1.423566   14.023444    ( 0.0000,  0.0000,  0.0000)
  53 Li    14.800535    2.847034   15.075350    ( 0.0000,  0.0000,  0.0000)
  54 Li     9.862473   -0.000404   15.852655    ( 0.0000,  0.0000,  0.0000)
  55 Li    12.338719    1.446866   16.950518    ( 0.0000,  0.0000,  0.0000)
  56 Li    12.339013    4.274360   10.000000    ( 0.0000,  0.0000,  0.0000)
  57 Li    14.806816    5.699146   11.007476    ( 0.0000,  0.0000,  0.0000)
  58 Li    17.274619    7.123933   12.014952    ( 0.0000,  0.0000,  0.0000)
  59 Li    12.339013    4.274360   13.022429    ( 0.0000,  0.0000,  0.0000)
  60 Li    14.800459    5.699399   14.029092    ( 0.0000,  0.0000,  0.0000)
  61 Li    17.275014    7.124339   15.053975    ( 0.0000,  0.0000,  0.0000)
  62 Li    12.345650    4.277172   15.834331    ( 0.0000,  0.0000,  0.0000)
  63 Li    14.794602    5.727682   16.978624    ( 0.0000,  0.0000,  0.0000)
  64 Li    14.806816    8.548719   10.000000    ( 0.0000,  0.0000,  0.0000)
  65 Li    17.274619    9.973506   11.007476    ( 0.0000,  0.0000,  0.0000)
  66 Li    19.742421   11.398292   12.014952    ( 0.0000,  0.0000,  0.0000)
  67 Li    14.806816    8.548719   13.022429    ( 0.0000,  0.0000,  0.0000)
  68 Li    17.272955    9.978882   14.026307    ( 0.0000,  0.0000,  0.0000)
  69 Li    19.735387   11.402875   15.096754    ( 0.0000,  0.0000,  0.0000)
  70 Li    14.818693    8.536493   15.816077    ( 0.0000,  0.0000,  0.0000)
  71 Li    17.238411    9.946876   16.964421    ( 0.0000,  0.0000,  0.0000)
  72 Li     4.120259    4.274336   18.618744    ( 0.0000,  0.0000,  0.0000)

Unit cell:
           periodic     x           y           z      points  spacing
  1. axis:    yes   14.806816    0.000000    0.000000    49     0.2617
  2. axis:    yes    7.403408   12.823079    0.000000    49     0.2617
  3. axis:    no     0.000000    0.000000   27.052334    90     0.3006

  Lengths:  14.806816  14.806816  27.052334
  Angles:   90.000000  90.000000  60.000000

Effective grid spacing dv^(1/3) = 0.2875

     iter     time        total  log10-change:
                         energy   eigst   dens
iter:   1 18:33:08  -134.486261
iter:   2 18:33:14  -130.287300   -0.95  -0.52
iter:   3 18:33:20  -126.085328   -0.79  -0.63
iter:   4 18:33:25  -127.279868   -1.33  -0.89
iter:   5 18:33:32  -126.936320   -1.94  -0.85
iter:   6 18:33:37  -126.264554   -1.04  -0.87
iter:   7 18:33:43  -125.354817   -2.01  -1.02
iter:   8 18:33:49  -125.396794   -2.45  -1.41
iter:   9 18:33:55  -125.425097   -2.55  -1.46
iter:  10 18:34:00  -125.387251   -3.01  -1.48
iter:  11 18:34:07  -125.397949   -2.99  -1.71
iter:  12 18:34:12  -125.397279c  -3.53  -1.91
iter:  13 18:34:18  -125.386894c  -3.53  -2.04
iter:  14 18:34:24  -125.387192c  -4.13  -2.30
iter:  15 18:34:30  -125.389443c  -4.03  -2.38
iter:  16 18:34:36  -125.386895c  -4.32  -2.42
iter:  17 18:34:42  -125.386359c  -4.50  -2.69
iter:  18 18:34:48  -125.386488c  -4.80  -2.81
iter:  19 18:34:54  -125.386441c  -4.76  -2.98
iter:  20 18:35:00  -125.386290c  -5.08  -3.15
iter:  21 18:35:06  -125.386181c  -5.17  -3.23
iter:  22 18:35:12  -125.386156c  -5.28  -3.32
iter:  23 18:35:18  -125.386058c  -5.30c -3.55
iter:  24 18:35:27  -125.386022c  -5.43c -3.62
iter:  25 18:35:35  -125.385992c  -5.63c -3.71
iter:  26 18:35:43  -125.385933c  -5.56c -3.78
iter:  27 18:35:50  -125.385886c  -5.66c -3.85
iter:  28 18:35:58  -125.385853c  -5.86c -3.97
iter:  29 18:36:05  -125.385837c  -5.81c -4.03c

Converged after 29 iterations.

Dipole moment: (-9.775666, -5.030039, 0.258884) |e|*Ang

Energy contributions relative to reference atoms: (reference = -14803.510878)

Kinetic:        +99.538544
Potential:      -89.225221
External:        +0.000000
XC:            -134.656645
Entropy (-ST):   -1.152873
Local:           -0.466078
SIC:             +0.000000
--------------------------
Free energy:   -125.962274
Extrapolated:  -125.385837

Showing all kpts
 Kpt  Band  Eigenvalues  Occupancy
  0    34     -1.83068    1.10266
  0    35     -1.78234    0.86220
  0    36     -1.76646    0.78527
  0    37     -1.73520    0.64216

  1    34     -1.94953    1.60261
  1    35     -1.94618    1.59185
  1    36     -1.85602    1.22576
  1    37     -1.75324    0.72319


Fermi level: -1.81008

No gap
No difference between direct/indirect transitions

Forces in eV/Ang:
  0 Li    0.00207    0.00071    0.04667
  1 Li   -0.00517   -0.00770    0.09191
  2 Li    0.00452   -0.00559   -0.07767
  3 Li   -0.01078   -0.00156   -0.14968
  4 Li   -0.01305   -0.01603    0.04931
  5 Li   -0.03057    0.03067    0.08916
  6 Li   -0.03065   -0.02991   -0.05241
  7 Li    0.00526    0.08797    0.23075
  8 Li   -0.00726   -0.00099    0.07544
  9 Li    0.00412    0.00609   -0.03609
 10 Li    0.01587    0.00836   -0.09324
 11 Li   -0.01929    0.00228   -0.09258
 12 Li    0.01224    0.02281    0.02524
 13 Li    0.00862    0.00506   -0.05115
 14 Li   -0.01450    0.01111   -0.00926
 15 Li    0.01711    0.09944    0.11582
 16 Li   -0.00020    0.00126    0.06306
 17 Li   -0.00208   -0.00128    0.18444
 18 Li    0.00444   -0.00354   -0.07854
 19 Li   -0.00445    0.01158   -0.10485
 20 Li   -0.00255    0.00018    0.03854
 21 Li    0.00319    0.00745   -0.02593
 22 Li    0.00222    0.07137   -0.05230
 23 Li   -0.00588    0.01284   -0.02197
 24 Li   -0.00299    0.00034    0.04957
 25 Li    0.00633   -0.00424    0.18185
 26 Li    0.00422   -0.00233   -0.05989
 27 Li    0.00745   -0.00123   -0.16094
 28 Li    0.01027   -0.00839    0.02351
 29 Li   -0.00711    0.00096   -0.00596
 30 Li    0.04786   -0.05051   -0.03101
 31 Li   -0.00501    0.01828    0.00292
 32 Li    0.00379    0.00059    0.06394
 33 Li   -0.00388   -0.00336    0.18141
 34 Li    0.00711    0.00173   -0.05642
 35 Li    0.00584   -0.00730   -0.11202
 36 Li   -0.00304   -0.00343    0.03671
 37 Li    0.00198   -0.00018   -0.00175
 38 Li    0.03094   -0.04157    0.01333
 39 Li    0.00953   -0.00874   -0.00987
 40 Li   -0.00451    0.00025    0.03347
 41 Li    0.00159    0.00370    0.18266
 42 Li    0.00343    0.00117   -0.05599
 43 Li   -0.00106    0.00142   -0.21354
 44 Li    0.00091    0.00280    0.03404
 45 Li   -0.00877    0.00153   -0.00159
 46 Li    0.02296    0.00062    0.00527
 47 Li    0.00754   -0.00401   -0.00926
 48 Li   -0.00054    0.00004    0.04216
 49 Li   -0.00125    0.00109    0.17961
 50 Li   -0.00557    0.00249   -0.07655
 51 Li    0.00161    0.00012   -0.17874
 52 Li   -0.00260   -0.00162    0.03297
 53 Li    0.01240   -0.00412   -0.02629
 54 Li   -0.01113    0.00213   -0.00124
 55 Li   -0.00951   -0.00583    0.00144
 56 Li    0.00115   -0.00129    0.03658
 57 Li   -0.00337    0.00233    0.18080
 58 Li   -0.01204    0.01130   -0.08375
 59 Li    0.00179   -0.00437   -0.18848
 60 Li   -0.00292   -0.00180    0.02197
 61 Li    0.00338   -0.01361   -0.01237
 62 Li   -0.01234    0.01888   -0.00135
 63 Li    0.05015   -0.02722    0.01929
 64 Li    0.00220   -0.00457    0.04055
 65 Li    0.00119    0.00062    0.18480
 66 Li   -0.00231    0.00237   -0.05657
 67 Li    0.00256   -0.00012   -0.20013
 68 Li    0.00030    0.00288    0.03314
 69 Li    0.00014   -0.00652   -0.00081
 70 Li   -0.03389    0.01462   -0.00183
 71 Li    0.00071    0.01729   -0.00670
 72 Li   -0.04864   -0.21579   -0.19500

System changes: positions 

Initializing position-dependent things.

Density initialized from wave functions
                                                                       
                                                                       
                                                                       
                                                                       
                                                                       
                                                                       
                               Li          Li          Li              
                                                                       
                    Li  Li            Li          Li          Li       
                                   Lii         Lii                     
                      Li     LiLi        LiLi        LiLi              
                Li        LiLi        LiLi        Li          Li       
              Li        Li         Lii         Lii                     
       Li          LiLii       LiLi        LiLi        Li              
                Li          Lii         Lii          Li                
              Li        LiLi        LiLi        Li                     
                     Lii         Lii         LiLi                      
       Li          Li          Li                                      
              LiLi        LiLi        LiLi                             
                                                                       
       Li          Li          Li                                      
                                                                       
                                                                       
                                                                       
                                                                       

Atomic positions and initial magnetic moments

Positions:
   0 Li     0.000000    0.000000   10.000000    ( 0.0000,  0.0000,  0.0000)
   1 Li     2.467803    1.424787   11.007476    ( 0.0000,  0.0000,  0.0000)
   2 Li     4.935605    2.849573   12.014952    ( 0.0000,  0.0000,  0.0000)
   3 Li     0.000000    0.000000   13.022429    ( 0.0000,  0.0000,  0.0000)
   4 Li     2.460597    1.423138   13.878830    ( 0.0000,  0.0000,  0.0000)
   5 Li     4.929430    2.854716   15.037544    ( 0.0000,  0.0000,  0.0000)
   6 Li     0.003744   -0.002921   15.877256    ( 0.0000,  0.0000,  0.0000)
   7 Li     2.503827    1.411227   16.670966    ( 0.0000,  0.0000,  0.0000)
   8 Li     2.467803    4.274360   10.000000    ( 0.0000,  0.0000,  0.0000)
   9 Li     4.935605    5.699146   11.007476    ( 0.0000,  0.0000,  0.0000)
  10 Li     7.403408    7.123933   12.014952    ( 0.0000,  0.0000,  0.0000)
  11 Li     2.467803    4.274360   13.022429    ( 0.0000,  0.0000,  0.0000)
  12 Li     4.932813    5.702348   13.726681    ( 0.0000,  0.0000,  0.0000)
  13 Li     7.395744    7.119345   15.050364    ( 0.0000,  0.0000,  0.0000)
  14 Li     2.464827    4.275919   15.928541    ( 0.0000,  0.0000,  0.0000)
  15 Li     4.947864    5.687829   16.356574    ( 0.0000,  0.0000,  0.0000)
  16 Li     4.935605    8.548719   10.000000    ( 0.0000,  0.0000,  0.0000)
  17 Li     7.403408    9.973506   11.007476    ( 0.0000,  0.0000,  0.0000)
  18 Li     9.871211   11.398292   12.014952    ( 0.0000,  0.0000,  0.0000)
  19 Li     4.935605    8.548719   13.022429    ( 0.0000,  0.0000,  0.0000)
  20 Li     7.398197    9.977821   14.030829    ( 0.0000,  0.0000,  0.0000)
  21 Li     9.870565   11.400148   15.064718    ( 0.0000,  0.0000,  0.0000)
  22 Li     4.934584    8.546304   15.902720    ( 0.0000,  0.0000,  0.0000)
  23 Li     7.452794    9.939290   16.981241    ( 0.0000,  0.0000,  0.0000)
  24 Li     4.935605    0.000000   10.000000    ( 0.0000,  0.0000,  0.0000)
  25 Li     7.403408    1.424787   11.007476    ( 0.0000,  0.0000,  0.0000)
  26 Li     9.871211    2.849573   12.014952    ( 0.0000,  0.0000,  0.0000)
  27 Li     4.935605    0.000000   13.022429    ( 0.0000,  0.0000,  0.0000)
  28 Li     7.409722    1.420137   14.030649    ( 0.0000,  0.0000,  0.0000)
  29 Li     9.873518    2.847486   15.090654    ( 0.0000,  0.0000,  0.0000)
  30 Li     4.933552    0.018213   15.842101    ( 0.0000,  0.0000,  0.0000)
  31 Li     7.360001    1.429939   16.981299    ( 0.0000,  0.0000,  0.0000)
  32 Li     7.403408    4.274360   10.000000    ( 0.0000,  0.0000,  0.0000)
  33 Li     9.871211    5.699146   11.007476    ( 0.0000,  0.0000,  0.0000)
  34 Li    12.339013    7.123933   12.014952    ( 0.0000,  0.0000,  0.0000)
  35 Li     7.403408    4.274360   13.022429    ( 0.0000,  0.0000,  0.0000)
  36 Li     9.875730    5.695857   14.020905    ( 0.0000,  0.0000,  0.0000)
  37 Li    12.335541    7.125105   15.082331    ( 0.0000,  0.0000,  0.0000)
  38 Li     7.392556    4.269644   15.886635    ( 0.0000,  0.0000,  0.0000)
  39 Li     9.863697    5.739398   16.961394    ( 0.0000,  0.0000,  0.0000)
  40 Li     9.871211    8.548719   10.000000    ( 0.0000,  0.0000,  0.0000)
  41 Li    12.339013    9.973506   11.007476    ( 0.0000,  0.0000,  0.0000)
  42 Li    14.806816   11.398292   12.014952    ( 0.0000,  0.0000,  0.0000)
  43 Li     9.871211    8.548719   13.022429    ( 0.0000,  0.0000,  0.0000)
  44 Li    12.341558    9.971066   14.010574    ( 0.0000,  0.0000,  0.0000)
  45 Li    14.804515   11.394684   15.086431    ( 0.0000,  0.0000,  0.0000)
  46 Li     9.853372    8.548397   15.798768    ( 0.0000,  0.0000,  0.0000)
  47 Li    12.319093    9.965201   16.941670    ( 0.0000,  0.0000,  0.0000)
  48 Li     9.871211    0.000000   10.000000    ( 0.0000,  0.0000,  0.0000)
  49 Li    12.339013    1.424787   11.007476    ( 0.0000,  0.0000,  0.0000)
  50 Li    14.806816    2.849573   12.014952    ( 0.0000,  0.0000,  0.0000)
  51 Li     9.871211    0.000000   13.022429    ( 0.0000,  0.0000,  0.0000)
  52 Li    12.335222    1.423552   14.023771    ( 0.0000,  0.0000,  0.0000)
  53 Li    14.800654    2.846993   15.075109    ( 0.0000,  0.0000,  0.0000)
  54 Li     9.862359   -0.000387   15.852643    ( 0.0000,  0.0000,  0.0000)
  55 Li    12.338620    1.446787   16.950517    ( 0.0000,  0.0000,  0.0000)
  56 Li    12.339013    4.274360   10.000000    ( 0.0000,  0.0000,  0.0000)
  57 Li    14.806816    5.699146   11.007476    ( 0.0000,  0.0000,  0.0000)
  58 Li    17.274619    7.123933   12.014952    ( 0.0000,  0.0000,  0.0000)
  59 Li    12.339013    4.274360   13.022429    ( 0.0000,  0.0000,  0.0000)
  60 Li    14.800427    5.699376   14.029312    ( 0.0000,  0.0000,  0.0000)
  61 Li    17.275053    7.124200   15.053829    ( 0.0000,  0.0000,  0.0000)
  62 Li    12.345517    4.277370   15.834336    ( 0.0000,  0.0000,  0.0000)
  63 Li    14.795124    5.727445   16.978818    ( 0.0000,  0.0000,  0.0000)
  64 Li    14.806816    8.548719   10.000000    ( 0.0000,  0.0000,  0.0000)
  65 Li    17.274619    9.973506   11.007476    ( 0.0000,  0.0000,  0.0000)
  66 Li    19.742421   11.398292   12.014952    ( 0.0000,  0.0000,  0.0000)
  67 Li    14.806816    8.548719   13.022429    ( 0.0000,  0.0000,  0.0000)
  68 Li    17.272959    9.978914   14.026642    ( 0.0000,  0.0000,  0.0000)
  69 Li    19.735392   11.402816   15.096745    ( 0.0000,  0.0000,  0.0000)
  70 Li    14.818367    8.536637   15.816040    ( 0.0000,  0.0000,  0.0000)
  71 Li    17.238404    9.947037   16.964370    ( 0.0000,  0.0000,  0.0000)
  72 Li     4.120623    4.273651   18.616794    ( 0.0000,  0.0000,  0.0000)

Unit cell:
           periodic     x           y           z      points  spacing
  1. axis:    yes   14.806816    0.000000    0.000000    49     0.2617
  2. axis:    yes    7.403408   12.823079    0.000000    49     0.2617
  3. axis:    no     0.000000    0.000000   27.052334    90     0.3006

  Lengths:  14.806816  14.806816  27.052334
  Angles:   90.000000  90.000000  60.000000

Effective grid spacing dv^(1/3) = 0.2875

     iter     time        total  log10-change:
                         energy   eigst   dens
iter:   1 18:50:55  -125.388107   -4.91
iter:   2 18:51:02  -125.387836   -5.23  -2.80
iter:   3 18:51:08  -125.387762c  -5.42c -3.33
iter:   4 18:51:15  -125.387684c  -5.82c -3.50
iter:   5 18:51:21  -125.387662c  -5.77c -3.71
iter:   6 18:51:28  -125.387645c  -5.78c -3.51
iter:   7 18:51:34  -125.387647c  -6.24c -4.12c

Converged after 7 iterations.

Dipole moment: (-9.756454, -5.016506, 0.257480) |e|*Ang

Energy contributions relative to reference atoms: (reference = -14803.510878)

Kinetic:        +99.521319
Potential:      -89.219912
External:        +0.000000
XC:            -134.654098
Entropy (-ST):   -1.153456
Local:           -0.458228
SIC:             +0.000000
--------------------------
Free energy:   -125.964375
Extrapolated:  -125.387647

Showing all kpts
 Kpt  Band  Eigenvalues  Occupancy
  0    34     -1.83076    1.10260
  0    35     -1.78233    0.86171
  0    36     -1.76652    0.78514
  0    37     -1.73528    0.64214

  1    34     -1.94958    1.60249
  1    35     -1.94621    1.59167
  1    36     -1.85608    1.22559
  1    37     -1.75325    0.72286


Fermi level: -1.81017

No gap
No difference between direct/indirect transitions

Forces in eV/Ang:
  0 Li    0.00199    0.00069    0.04648
  1 Li   -0.00513   -0.00774    0.09277
  2 Li    0.00462   -0.00554   -0.07722
  3 Li   -0.01104   -0.00174   -0.15001
  4 Li   -0.01288   -0.01594    0.04954
  5 Li   -0.03029    0.03072    0.08997
  6 Li   -0.02982   -0.02931   -0.05136
  7 Li    0.00538    0.08680    0.22888
  8 Li   -0.00718   -0.00093    0.07557
  9 Li    0.00422    0.00612   -0.03568
 10 Li    0.01584    0.00826   -0.09325
 11 Li   -0.01937    0.00242   -0.09302
 12 Li    0.01203    0.02255    0.02596
 13 Li    0.00842    0.00493   -0.05020
 14 Li   -0.01385    0.01121   -0.00928
 15 Li    0.01761    0.09983    0.11389
 16 Li   -0.00024    0.00129    0.06315
 17 Li   -0.00203   -0.00144    0.18456
 18 Li    0.00449   -0.00341   -0.07820
 19 Li   -0.00449    0.01172   -0.10499
 20 Li   -0.00254    0.00032    0.03806
 21 Li    0.00314    0.00716   -0.02524
 22 Li    0.00216    0.07091   -0.05189
 23 Li   -0.00587    0.01268   -0.02162
 24 Li   -0.00304    0.00022    0.04959
 25 Li    0.00640   -0.00426    0.18208
 26 Li    0.00415   -0.00240   -0.05958
 27 Li    0.00758   -0.00143   -0.16135
 28 Li    0.01002   -0.00826    0.02330
 29 Li   -0.00678    0.00089   -0.00569
 30 Li    0.04650   -0.04940   -0.03004
 31 Li   -0.00504    0.01805    0.00326
 32 Li    0.00376    0.00066    0.06415
 33 Li   -0.00399   -0.00323    0.18169
 34 Li    0.00716    0.00174   -0.05618
 35 Li    0.00619   -0.00724   -0.11208
 36 Li   -0.00293   -0.00345    0.03623
 37 Li    0.00189   -0.00014   -0.00154
 38 Li    0.02992   -0.04059    0.01359
 39 Li    0.00944   -0.00869   -0.00956
 40 Li   -0.00451    0.00016    0.03330
 41 Li    0.00159    0.00365    0.18278
 42 Li    0.00352    0.00114   -0.05569
 43 Li   -0.00116    0.00134   -0.21318
 44 Li    0.00101    0.00293    0.03378
 45 Li   -0.00839    0.00126   -0.00143
 46 Li    0.02274    0.00075    0.00559
 47 Li    0.00749   -0.00416   -0.00891
 48 Li   -0.00041   -0.00007    0.04218
 49 Li   -0.00132    0.00103    0.17977
 50 Li   -0.00561    0.00236   -0.07632
 51 Li    0.00159    0.00006   -0.17857
 52 Li   -0.00255   -0.00169    0.03251
 53 Li    0.01212   -0.00404   -0.02549
 54 Li   -0.01099    0.00202   -0.00098
 55 Li   -0.00949   -0.00583    0.00167
 56 Li    0.00105   -0.00122    0.03645
 57 Li   -0.00333    0.00241    0.18115
 58 Li   -0.01196    0.01149   -0.08360
 59 Li    0.00169   -0.00439   -0.18823
 60 Li   -0.00293   -0.00164    0.02172
 61 Li    0.00337   -0.01320   -0.01165
 62 Li   -0.01217    0.01857   -0.00098
 63 Li    0.04983   -0.02690    0.01940
 64 Li    0.00214   -0.00449    0.04057
 65 Li    0.00117    0.00062    0.18498
 66 Li   -0.00245    0.00235   -0.05623
 67 Li    0.00267   -0.00017   -0.20001
 68 Li    0.00031    0.00284    0.03262
 69 Li   -0.00018   -0.00611   -0.00057
 70 Li   -0.03333    0.01443   -0.00131
 71 Li    0.00065    0.01706   -0.00644
 72 Li   -0.04862   -0.21695   -0.19439

System changes: positions 

Initializing position-dependent things.

Density initialized from wave functions
                                                                       
                                                                       
                                                                       
                                                                       
                                                                       
                                                                       
                               Li          Li          Li              
                                                                       
                    Li  Li            Li          Li          Li       
                                   Lii         Lii                     
                      Li     LiLi        LiLi        LiLi              
                Li        LiLi        LiLi        Li          Li       
              Li        Li         Lii         Lii                     
       Li          LiLii       LiLi        LiLi        Li              
                Li          Lii         Lii          Li                
              Li        LiLi        LiLi        Li                     
                     Lii         Lii         LiLi                      
       Li          Li          Li                                      
              LiLi        LiLi        LiLi                             
                                                                       
       Li          Li          Li                                      
                                                                       
                                                                       
                                                                       
                                                                       

Atomic positions and initial magnetic moments

Positions:
   0 Li     0.000000    0.000000   10.000000    ( 0.0000,  0.0000,  0.0000)
   1 Li     2.467803    1.424787   11.007476    ( 0.0000,  0.0000,  0.0000)
   2 Li     4.935605    2.849573   12.014952    ( 0.0000,  0.0000,  0.0000)
   3 Li     0.000000    0.000000   13.022429    ( 0.0000,  0.0000,  0.0000)
   4 Li     2.460334    1.422818   13.880138    ( 0.0000,  0.0000,  0.0000)
   5 Li     4.928832    2.855344   15.039334    ( 0.0000,  0.0000,  0.0000)
   6 Li     0.003146   -0.003515   15.876167    ( 0.0000,  0.0000,  0.0000)
   7 Li     2.503977    1.412962   16.676215    ( 0.0000,  0.0000,  0.0000)
   8 Li     2.467803    4.274360   10.000000    ( 0.0000,  0.0000,  0.0000)
   9 Li     4.935605    5.699146   11.007476    ( 0.0000,  0.0000,  0.0000)
  10 Li     7.403408    7.123933   12.014952    ( 0.0000,  0.0000,  0.0000)
  11 Li     2.467803    4.274360   13.022429    ( 0.0000,  0.0000,  0.0000)
  12 Li     4.933058    5.702797   13.726876    ( 0.0000,  0.0000,  0.0000)
  13 Li     7.395909    7.119444   15.049320    ( 0.0000,  0.0000,  0.0000)
  14 Li     2.464549    4.276147   15.928356    ( 0.0000,  0.0000,  0.0000)
  15 Li     4.948181    5.689853   16.358210    ( 0.0000,  0.0000,  0.0000)
  16 Li     4.935605    8.548719   10.000000    ( 0.0000,  0.0000,  0.0000)
  17 Li     7.403408    9.973506   11.007476    ( 0.0000,  0.0000,  0.0000)
  18 Li     9.871211   11.398292   12.014952    ( 0.0000,  0.0000,  0.0000)
  19 Li     4.935605    8.548719   13.022429    ( 0.0000,  0.0000,  0.0000)
  20 Li     7.398150    9.977835   14.031595    ( 0.0000,  0.0000,  0.0000)
  21 Li     9.870630   11.400290   15.064241    ( 0.0000,  0.0000,  0.0000)
  22 Li     4.934622    8.547730   15.901732    ( 0.0000,  0.0000,  0.0000)
  23 Li     7.452669    9.939535   16.980807    ( 0.0000,  0.0000,  0.0000)
  24 Li     4.935605    0.000000   10.000000    ( 0.0000,  0.0000,  0.0000)
  25 Li     7.403408    1.424787   11.007476    ( 0.0000,  0.0000,  0.0000)
  26 Li     9.871211    2.849573   12.014952    ( 0.0000,  0.0000,  0.0000)
  27 Li     4.935605    0.000000   13.022429    ( 0.0000,  0.0000,  0.0000)
  28 Li     7.409928    1.419975   14.031116    ( 0.0000,  0.0000,  0.0000)
  29 Li     9.873386    2.847502   15.090547    ( 0.0000,  0.0000,  0.0000)
  30 Li     4.934499    0.017238   15.841401    ( 0.0000,  0.0000,  0.0000)
  31 Li     7.359869    1.430248   16.981360    ( 0.0000,  0.0000,  0.0000)
  32 Li     7.403408    4.274360   10.000000    ( 0.0000,  0.0000,  0.0000)
  33 Li     9.871211    5.699146   11.007476    ( 0.0000,  0.0000,  0.0000)
  34 Li    12.339013    7.123933   12.014952    ( 0.0000,  0.0000,  0.0000)
  35 Li     7.403408    4.274360   13.022429    ( 0.0000,  0.0000,  0.0000)
  36 Li     9.875674    5.695784   14.021654    ( 0.0000,  0.0000,  0.0000)
  37 Li    12.335583    7.125107   15.082297    ( 0.0000,  0.0000,  0.0000)
  38 Li     7.393181    4.268835   15.886995    ( 0.0000,  0.0000,  0.0000)
  39 Li     9.863880    5.739267   16.961240    ( 0.0000,  0.0000,  0.0000)
  40 Li     9.871211    8.548719   10.000000    ( 0.0000,  0.0000,  0.0000)
  41 Li    12.339013    9.973506   11.007476    ( 0.0000,  0.0000,  0.0000)
  42 Li    14.806816   11.398292   12.014952    ( 0.0000,  0.0000,  0.0000)
  43 Li     9.871211    8.548719   13.022429    ( 0.0000,  0.0000,  0.0000)
  44 Li    12.341573    9.971128   14.011233    ( 0.0000,  0.0000,  0.0000)
  45 Li    14.804339   11.394719   15.086392    ( 0.0000,  0.0000,  0.0000)
  46 Li     9.853812    8.548381   15.798878    ( 0.0000,  0.0000,  0.0000)
  47 Li    12.319285    9.965137   16.941451    ( 0.0000,  0.0000,  0.0000)
  48 Li     9.871211    0.000000   10.000000    ( 0.0000,  0.0000,  0.0000)
  49 Li    12.339013    1.424787   11.007476    ( 0.0000,  0.0000,  0.0000)
  50 Li    14.806816    2.849573   12.014952    ( 0.0000,  0.0000,  0.0000)
  51 Li     9.871211    0.000000   13.022429    ( 0.0000,  0.0000,  0.0000)
  52 Li    12.335175    1.423524   14.024419    ( 0.0000,  0.0000,  0.0000)
  53 Li    14.800889    2.846914   15.074636    ( 0.0000,  0.0000,  0.0000)
  54 Li     9.862132   -0.000353   15.852621    ( 0.0000,  0.0000,  0.0000)
  55 Li    12.338421    1.446630   16.950517    ( 0.0000,  0.0000,  0.0000)
  56 Li    12.339013    4.274360   10.000000    ( 0.0000,  0.0000,  0.0000)
  57 Li    14.806816    5.699146   11.007476    ( 0.0000,  0.0000,  0.0000)
  58 Li    17.274619    7.123933   12.014952    ( 0.0000,  0.0000,  0.0000)
  59 Li    12.339013    4.274360   13.022429    ( 0.0000,  0.0000,  0.0000)
  60 Li    14.800365    5.699333   14.029750    ( 0.0000,  0.0000,  0.0000)
  61 Li    17.275129    7.123925   15.053547    ( 0.0000,  0.0000,  0.0000)
  62 Li    12.345254    4.277763   15.834352    ( 0.0000,  0.0000,  0.0000)
  63 Li    14.796164    5.726975   16.979207    ( 0.0000,  0.0000,  0.0000)
  64 Li    14.806816    8.548719   10.000000    ( 0.0000,  0.0000,  0.0000)
  65 Li    17.274619    9.973506   11.007476    ( 0.0000,  0.0000,  0.0000)
  66 Li    19.742421   11.398292   12.014952    ( 0.0000,  0.0000,  0.0000)
  67 Li    14.806816    8.548719   13.022429    ( 0.0000,  0.0000,  0.0000)
  68 Li    17.272967    9.978979   14.027306    ( 0.0000,  0.0000,  0.0000)
  69 Li    19.735396   11.402702   15.096731    ( 0.0000,  0.0000,  0.0000)
  70 Li    14.817722    8.536923   15.815972    ( 0.0000,  0.0000,  0.0000)
  71 Li    17.238388    9.947358   16.964270    ( 0.0000,  0.0000,  0.0000)
  72 Li     4.121362    4.272288   18.612904    ( 0.0000,  0.0000,  0.0000)

Unit cell:
           periodic     x           y           z      points  spacing
  1. axis:    yes   14.806816    0.000000    0.000000    49     0.2617
  2. axis:    yes    7.403408   12.823079    0.000000    49     0.2617
  3. axis:    no     0.000000    0.000000   27.052334    90     0.3006

  Lengths:  14.806816  14.806816  27.052334
  Angles:   90.000000  90.000000  60.000000

Effective grid spacing dv^(1/3) = 0.2875

     iter     time        total  log10-change:
                         energy   eigst   dens
iter:   1 18:56:14  -125.391987   -5.02
iter:   2 18:56:20  -125.391761   -5.87c -2.93
iter:   3 18:56:26  -125.391550c  -5.55c -3.10
iter:   4 18:56:33  -125.391514c  -6.16c -3.33
iter:   5 18:56:40  -125.391435c  -6.06c -3.50
iter:   6 18:56:46  -125.391538c  -6.10c -3.60
iter:   7 18:56:53  -125.391513c  -6.59c -3.67
iter:   8 18:57:00  -125.391490c  -6.55c -4.00
iter:   9 18:57:06  -125.391495c  -6.61c -4.16c

Converged after 9 iterations.

Dipole moment: (-9.712751, -4.986430, 0.257491) |e|*Ang

Energy contributions relative to reference atoms: (reference = -14803.510878)

Kinetic:        +99.515687
Potential:      -89.217461
External:        +0.000000
XC:            -134.654570
Entropy (-ST):   -1.153517
Local:           -0.458393
SIC:             +0.000000
--------------------------
Free energy:   -125.968253
Extrapolated:  -125.391495

Showing all kpts
 Kpt  Band  Eigenvalues  Occupancy
  0    34     -1.83092    1.10273
  0    35     -1.78237    0.86123
  0    36     -1.76664    0.78510
  0    37     -1.73541    0.64210

  1    34     -1.94970    1.60245
  1    35     -1.94630    1.59151
  1    36     -1.85621    1.22558
  1    37     -1.75333    0.72259


Fermi level: -1.81030

No gap
No difference between direct/indirect transitions

Forces in eV/Ang:
  0 Li    0.00198    0.00067    0.04624
  1 Li   -0.00541   -0.00778    0.09330
  2 Li    0.00464   -0.00546   -0.07658
  3 Li   -0.01139   -0.00196   -0.15123
  4 Li   -0.01246   -0.01549    0.05070
  5 Li   -0.02971    0.03033    0.08973
  6 Li   -0.02814   -0.02791   -0.05014
  7 Li    0.00561    0.08470    0.22445
  8 Li   -0.00722   -0.00090    0.07522
  9 Li    0.00418    0.00617   -0.03563
 10 Li    0.01581    0.00839   -0.09379
 11 Li   -0.01944    0.00242   -0.09345
 12 Li    0.01161    0.02174    0.02705
 13 Li    0.00821    0.00466   -0.04912
 14 Li   -0.01314    0.01144   -0.00973
 15 Li    0.01861    0.10042    0.11015
 16 Li   -0.00008    0.00130    0.06301
 17 Li   -0.00202   -0.00144    0.18481
 18 Li    0.00443   -0.00347   -0.07846
 19 Li   -0.00427    0.01199   -0.10581
 20 Li   -0.00251    0.00046    0.03639
 21 Li    0.00309    0.00728   -0.02426
 22 Li    0.00220    0.07024   -0.05175
 23 Li   -0.00574    0.01240   -0.02108
 24 Li   -0.00300    0.00018    0.04934
 25 Li    0.00653   -0.00433    0.18198
 26 Li    0.00414   -0.00241   -0.05966
 27 Li    0.00775   -0.00151   -0.16213
 28 Li    0.00940   -0.00790    0.02284
 29 Li   -0.00630    0.00061   -0.00571
 30 Li    0.04413   -0.04732   -0.02877
 31 Li   -0.00526    0.01749    0.00372
 32 Li    0.00378    0.00069    0.06399
 33 Li   -0.00394   -0.00322    0.18186
 34 Li    0.00708    0.00180   -0.05628
 35 Li    0.00643   -0.00731   -0.11214
 36 Li   -0.00272   -0.00348    0.03484
 37 Li    0.00176   -0.00023   -0.00176
 38 Li    0.02837   -0.03896    0.01337
 39 Li    0.00915   -0.00861   -0.00906
 40 Li   -0.00455    0.00021    0.03326
 41 Li    0.00157    0.00365    0.18302
 42 Li    0.00344    0.00125   -0.05573
 43 Li   -0.00123    0.00132   -0.21324
 44 Li    0.00102    0.00290    0.03259
 45 Li   -0.00773    0.00110   -0.00165
 46 Li    0.02226    0.00090    0.00544
 47 Li    0.00740   -0.00399   -0.00826
 48 Li   -0.00042    0.00003    0.04219
 49 Li   -0.00121    0.00107    0.17999
 50 Li   -0.00559    0.00235   -0.07659
 51 Li    0.00160    0.00007   -0.17865
 52 Li   -0.00255   -0.00164    0.03138
 53 Li    0.01176   -0.00396   -0.02458
 54 Li   -0.01103    0.00212   -0.00104
 55 Li   -0.00933   -0.00573    0.00176
 56 Li    0.00108   -0.00122    0.03639
 57 Li   -0.00335    0.00221    0.18115
 58 Li   -0.01183    0.01136   -0.08390
 59 Li    0.00161   -0.00449   -0.18839
 60 Li   -0.00287   -0.00174    0.02113
 61 Li    0.00327   -0.01266   -0.01130
 62 Li   -0.01142    0.01795   -0.00094
 63 Li    0.04943   -0.02665    0.01927
 64 Li    0.00201   -0.00455    0.04046
 65 Li    0.00124    0.00067    0.18516
 66 Li   -0.00223    0.00233   -0.05614
 67 Li    0.00251   -0.00013   -0.20019
 68 Li    0.00030    0.00295    0.03156
 69 Li   -0.00066   -0.00523   -0.00103
 70 Li   -0.03243    0.01376   -0.00105
 71 Li    0.00053    0.01676   -0.00605
 72 Li   -0.04888   -0.21898   -0.19147

System changes: positions 

Initializing position-dependent things.

Density initialized from wave functions
                                                                       
                                                                       
                                                                       
                                                                       
                                                                       
                                                                       
                               Li          Li          Li              
                                                                       
                    Li  Li            Li          Li          Li       
                                   Lii         Lii                     
                      Li     LiLi        LiLi        LiLi              
                Li        LiLi        LiLi        Li          Li       
              Li        Li         Lii         Lii                     
       Li          LiLii       LiLi        LiLi        Li              
                Li          Lii         Lii          Li                
              Li        LiLi        LiLi        Li                     
                     Lii         LiLi        LiLi                      
       Li          Li          Li                                      
              LiLi        LiLi        LiLi                             
                                                                       
       Li          Li          Li                                      
                                                                       
                                                                       
                                                                       
                                                                       

Atomic positions and initial magnetic moments

Positions:
   0 Li     0.000000    0.000000   10.000000    ( 0.0000,  0.0000,  0.0000)
   1 Li     2.467803    1.424787   11.007476    ( 0.0000,  0.0000,  0.0000)
   2 Li     4.935605    2.849573   12.014952    ( 0.0000,  0.0000,  0.0000)
   3 Li     0.000000    0.000000   13.022429    ( 0.0000,  0.0000,  0.0000)
   4 Li     2.459945    1.422345   13.882124    ( 0.0000,  0.0000,  0.0000)
   5 Li     4.927943    2.856284   15.042024    ( 0.0000,  0.0000,  0.0000)
   6 Li     0.002272   -0.004387   15.874552    ( 0.0000,  0.0000,  0.0000)
   7 Li     2.504207    1.415535   16.684043    ( 0.0000,  0.0000,  0.0000)
   8 Li     2.467803    4.274360   10.000000    ( 0.0000,  0.0000,  0.0000)
   9 Li     4.935605    5.699146   11.007476    ( 0.0000,  0.0000,  0.0000)
  10 Li     7.403408    7.123933   12.014952    ( 0.0000,  0.0000,  0.0000)
  11 Li     2.467803    4.274360   13.022429    ( 0.0000,  0.0000,  0.0000)
  12 Li     4.933420    5.703460   13.727179    ( 0.0000,  0.0000,  0.0000)
  13 Li     7.396152    7.119588   15.047769    ( 0.0000,  0.0000,  0.0000)
  14 Li     2.464144    4.276494   15.928077    ( 0.0000,  0.0000,  0.0000)
  15 Li     4.948673    5.692905   16.360585    ( 0.0000,  0.0000,  0.0000)
  16 Li     4.935605    8.548719   10.000000    ( 0.0000,  0.0000,  0.0000)
  17 Li     7.403408    9.973506   11.007476    ( 0.0000,  0.0000,  0.0000)
  18 Li     9.871211   11.398292   12.014952    ( 0.0000,  0.0000,  0.0000)
  19 Li     4.935605    8.548719   13.022429    ( 0.0000,  0.0000,  0.0000)
  20 Li     7.398079    9.977858   14.032724    ( 0.0000,  0.0000,  0.0000)
  21 Li     9.870727   11.400503   15.063540    ( 0.0000,  0.0000,  0.0000)
  22 Li     4.934678    8.549861   15.900255    ( 0.0000,  0.0000,  0.0000)
  23 Li     7.452482    9.939898   16.980163    ( 0.0000,  0.0000,  0.0000)
  24 Li     4.935605    0.000000   10.000000    ( 0.0000,  0.0000,  0.0000)
  25 Li     7.403408    1.424787   11.007476    ( 0.0000,  0.0000,  0.0000)
  26 Li     9.871211    2.849573   12.014952    ( 0.0000,  0.0000,  0.0000)
  27 Li     4.935605    0.000000   13.022429    ( 0.0000,  0.0000,  0.0000)
  28 Li     7.410228    1.419736   14.031812    ( 0.0000,  0.0000,  0.0000)
  29 Li     9.873195    2.847522   15.090389    ( 0.0000,  0.0000,  0.0000)
  30 Li     4.935884    0.015805   15.840369    ( 0.0000,  0.0000,  0.0000)
  31 Li     7.359670    1.430703   16.981458    ( 0.0000,  0.0000,  0.0000)
  32 Li     7.403408    4.274360   10.000000    ( 0.0000,  0.0000,  0.0000)
  33 Li     9.871211    5.699146   11.007476    ( 0.0000,  0.0000,  0.0000)
  34 Li    12.339013    7.123933   12.014952    ( 0.0000,  0.0000,  0.0000)
  35 Li     7.403408    4.274360   13.022429    ( 0.0000,  0.0000,  0.0000)
  36 Li     9.875593    5.695674   14.022761    ( 0.0000,  0.0000,  0.0000)
  37 Li    12.335643    7.125109   15.082246    ( 0.0000,  0.0000,  0.0000)
  38 Li     7.394095    4.267647   15.887538    ( 0.0000,  0.0000,  0.0000)
  39 Li     9.864150    5.739071   16.961017    ( 0.0000,  0.0000,  0.0000)
  40 Li     9.871211    8.548719   10.000000    ( 0.0000,  0.0000,  0.0000)
  41 Li    12.339013    9.973506   11.007476    ( 0.0000,  0.0000,  0.0000)
  42 Li    14.806816   11.398292   12.014952    ( 0.0000,  0.0000,  0.0000)
  43 Li     9.871211    8.548719   13.022429    ( 0.0000,  0.0000,  0.0000)
  44 Li    12.341597    9.971222   14.012208    ( 0.0000,  0.0000,  0.0000)
  45 Li    14.804086   11.394768   15.086331    ( 0.0000,  0.0000,  0.0000)
  46 Li     9.854466    8.548360   15.799043    ( 0.0000,  0.0000,  0.0000)
  47 Li    12.319573    9.965042   16.941133    ( 0.0000,  0.0000,  0.0000)
  48 Li     9.871211    0.000000   10.000000    ( 0.0000,  0.0000,  0.0000)
  49 Li    12.339013    1.424787   11.007476    ( 0.0000,  0.0000,  0.0000)
  50 Li    14.806816    2.849573   12.014952    ( 0.0000,  0.0000,  0.0000)
  51 Li     9.871211    0.000000   13.022429    ( 0.0000,  0.0000,  0.0000)
  52 Li    12.335104    1.423481   14.025376    ( 0.0000,  0.0000,  0.0000)
  53 Li    14.801236    2.846796   15.073941    ( 0.0000,  0.0000,  0.0000)
  54 Li     9.861792   -0.000303   15.852589    ( 0.0000,  0.0000,  0.0000)
  55 Li    12.338126    1.446394   16.950519    ( 0.0000,  0.0000,  0.0000)
  56 Li    12.339013    4.274360   10.000000    ( 0.0000,  0.0000,  0.0000)
  57 Li    14.806816    5.699146   11.007476    ( 0.0000,  0.0000,  0.0000)
  58 Li    17.274619    7.123933   12.014952    ( 0.0000,  0.0000,  0.0000)
  59 Li    12.339013    4.274360   13.022429    ( 0.0000,  0.0000,  0.0000)
  60 Li    14.800272    5.699267   14.030399    ( 0.0000,  0.0000,  0.0000)
  61 Li    17.275243    7.123522   15.053131    ( 0.0000,  0.0000,  0.0000)
  62 Li    12.344870    4.278345   15.834379    ( 0.0000,  0.0000,  0.0000)
  63 Li    14.797721    5.726275   16.979789    ( 0.0000,  0.0000,  0.0000)
  64 Li    14.806816    8.548719   10.000000    ( 0.0000,  0.0000,  0.0000)
  65 Li    17.274619    9.973506   11.007476    ( 0.0000,  0.0000,  0.0000)
  66 Li    19.742421   11.398292   12.014952    ( 0.0000,  0.0000,  0.0000)
  67 Li    14.806816    8.548719   13.022429    ( 0.0000,  0.0000,  0.0000)
  68 Li    17.272979    9.979078   14.028288    ( 0.0000,  0.0000,  0.0000)
  69 Li    19.735396   11.402544   15.096705    ( 0.0000,  0.0000,  0.0000)
  70 Li    14.816767    8.537345   15.815874    ( 0.0000,  0.0000,  0.0000)
  71 Li    17.238362    9.947833   16.964126    ( 0.0000,  0.0000,  0.0000)
  72 Li     4.122501    4.270269   18.607113    ( 0.0000,  0.0000,  0.0000)

Unit cell:
           periodic     x           y           z      points  spacing
  1. axis:    yes   14.806816    0.000000    0.000000    49     0.2617
  2. axis:    yes    7.403408   12.823079    0.000000    49     0.2617
  3. axis:    no     0.000000    0.000000   27.052334    90     0.3006

  Lengths:  14.806816  14.806816  27.052334
  Angles:   90.000000  90.000000  60.000000

Effective grid spacing dv^(1/3) = 0.2875

     iter     time        total  log10-change:
                         energy   eigst   dens
iter:   1 19:01:04  -125.398828   -4.30
iter:   2 19:01:09  -125.397493   -4.99  -2.44
iter:   3 19:01:15  -125.397323c  -5.15  -2.93
iter:   4 19:01:20  -125.397143c  -5.82c -3.09
iter:   5 19:01:26  -125.397133c  -5.41c -3.29
iter:   6 19:01:31  -125.397109c  -5.77c -3.13
iter:   7 19:01:37  -125.397136c  -6.26c -3.70
iter:   8 19:01:41  -125.397124c  -6.21c -3.54
iter:   9 19:01:47  -125.397126c  -6.88c -3.97
iter:  10 19:01:52  -125.397116c  -6.77c -4.07c

Converged after 10 iterations.

Dipole moment: (-9.647922, -4.942143, 0.256175) |e|*Ang

Energy contributions relative to reference atoms: (reference = -14803.510878)

Kinetic:        +99.508193
Potential:      -89.214387
External:        +0.000000
XC:            -134.655652
Entropy (-ST):   -1.153506
Local:           -0.458518
SIC:             +0.000000
--------------------------
Free energy:   -125.973869
Extrapolated:  -125.397116

Showing all kpts
 Kpt  Band  Eigenvalues  Occupancy
  0    34     -1.83110    1.10321
  0    35     -1.78218    0.85994
  0    36     -1.76672    0.78509
  0    37     -1.73552    0.64226

  1    34     -1.94971    1.60225
  1    35     -1.94626    1.59111
  1    36     -1.85635    1.22589
  1    37     -1.75333    0.72225


Fermi level: -1.81038

No gap
No difference between direct/indirect transitions

Forces in eV/Ang:
  0 Li    0.00199    0.00069    0.04603
  1 Li   -0.00541   -0.00771    0.09492
  2 Li    0.00446   -0.00542   -0.07503
  3 Li   -0.01142   -0.00198   -0.15262
  4 Li   -0.01152   -0.01489    0.05241
  5 Li   -0.02900    0.02973    0.08887
  6 Li   -0.02537   -0.02572   -0.04816
  7 Li    0.00571    0.08123    0.21728
  8 Li   -0.00722   -0.00093    0.07507
  9 Li    0.00412    0.00600   -0.03510
 10 Li    0.01575    0.00829   -0.09441
 11 Li   -0.01927    0.00213   -0.09397
 12 Li    0.01098    0.02020    0.02872
 13 Li    0.00793    0.00406   -0.04706
 14 Li   -0.01211    0.01172   -0.01089
 15 Li    0.02025    0.10156    0.10432
 16 Li   -0.00007    0.00131    0.06285
 17 Li   -0.00197   -0.00141    0.18517
 18 Li    0.00446   -0.00320   -0.07843
 19 Li   -0.00427    0.01219   -0.10689
 20 Li   -0.00215    0.00078    0.03418
 21 Li    0.00307    0.00787   -0.02263
 22 Li    0.00211    0.06892   -0.05121
 23 Li   -0.00535    0.01196   -0.01999
 24 Li   -0.00301    0.00022    0.04924
 25 Li    0.00647   -0.00433    0.18222
 26 Li    0.00406   -0.00243   -0.05966
 27 Li    0.00763   -0.00113   -0.16303
 28 Li    0.00810   -0.00718    0.02187
 29 Li   -0.00549    0.00031   -0.00561
 30 Li    0.04022   -0.04412   -0.02724
 31 Li   -0.00558    0.01667    0.00448
 32 Li    0.00372    0.00063    0.06402
 33 Li   -0.00391   -0.00323    0.18227
 34 Li    0.00710    0.00186   -0.05625
 35 Li    0.00642   -0.00753   -0.11201
 36 Li   -0.00245   -0.00352    0.03298
 37 Li    0.00175   -0.00044   -0.00178
 38 Li    0.02592   -0.03638    0.01283
 39 Li    0.00874   -0.00833   -0.00821
 40 Li   -0.00447    0.00025    0.03320
 41 Li    0.00156    0.00364    0.18337
 42 Li    0.00338    0.00137   -0.05568
 43 Li   -0.00123    0.00130   -0.21307
 44 Li    0.00096    0.00299    0.03083
 45 Li   -0.00670    0.00070   -0.00189
 46 Li    0.02142    0.00115    0.00546
 47 Li    0.00706   -0.00386   -0.00711
 48 Li   -0.00040    0.00003    0.04216
 49 Li   -0.00115    0.00111    0.18039
 50 Li   -0.00536    0.00222   -0.07659
 51 Li    0.00158    0.00005   -0.17875
 52 Li   -0.00237   -0.00141    0.02984
 53 Li    0.01131   -0.00403   -0.02320
 54 Li   -0.01092    0.00225   -0.00099
 55 Li   -0.00887   -0.00546    0.00203
 56 Li    0.00108   -0.00117    0.03639
 57 Li   -0.00329    0.00209    0.18145
 58 Li   -0.01175    0.01121   -0.08407
 59 Li    0.00160   -0.00457   -0.18837
 60 Li   -0.00270   -0.00175    0.02036
 61 Li    0.00304   -0.01174   -0.01063
 62 Li   -0.01023    0.01703   -0.00070
 63 Li    0.04861   -0.02615    0.01899
 64 Li    0.00192   -0.00455    0.04043
 65 Li    0.00120    0.00066    0.18557
 66 Li   -0.00221    0.00230   -0.05611
 67 Li    0.00253   -0.00024   -0.20024
 68 Li    0.00003    0.00279    0.02988
 69 Li   -0.00145   -0.00378   -0.00128
 70 Li   -0.03084    0.01262   -0.00062
 71 Li    0.00026    0.01605   -0.00544
 72 Li   -0.04915   -0.22193   -0.18688

System changes: positions 

Initializing position-dependent things.

Density initialized from wave functions
                                                                       
                                                                       
                                                                       
                                                                       
                                                                       
                                                                       
                               Li          Li          Li              
                                                                       
                    Li  Li            Li          Li          Li       
                                   Lii         Lii                     
                      Li     LiLi        LiLi        LiLi              
                Li        LiLi        LiLi        Li          Li       
              Li        Li         Lii         Lii                     
       Li          LiLii       LiLi        LiLi        Li              
                Li          Lii         Lii          Li                
              Li        LiLi        LiLi        Li                     
                     Lii         LiLi        LiLi                      
       Li          Li          Li                                      
              LiLi        LiLi        LiLi                             
                                                                       
       Li          Li          Li                                      
                                                                       
                                                                       
                                                                       
                                                                       

Atomic positions and initial magnetic moments

Positions:
   0 Li     0.000000    0.000000   10.000000    ( 0.0000,  0.0000,  0.0000)
   1 Li     2.467803    1.424787   11.007476    ( 0.0000,  0.0000,  0.0000)
   2 Li     4.935605    2.849573   12.014952    ( 0.0000,  0.0000,  0.0000)
   3 Li     0.000000    0.000000   13.022429    ( 0.0000,  0.0000,  0.0000)
   4 Li     2.459442    1.421725   13.884823    ( 0.0000,  0.0000,  0.0000)
   5 Li     4.926772    2.857528   15.045606    ( 0.0000,  0.0000,  0.0000)
   6 Li     0.001160   -0.005509   15.872433    ( 0.0000,  0.0000,  0.0000)
   7 Li     2.504519    1.418906   16.694388    ( 0.0000,  0.0000,  0.0000)
   8 Li     2.467803    4.274360   10.000000    ( 0.0000,  0.0000,  0.0000)
   9 Li     4.935605    5.699146   11.007476    ( 0.0000,  0.0000,  0.0000)
  10 Li     7.403408    7.123933   12.014952    ( 0.0000,  0.0000,  0.0000)
  11 Li     2.467803    4.274360   13.022429    ( 0.0000,  0.0000,  0.0000)
  12 Li     4.933891    5.704318   13.727603    ( 0.0000,  0.0000,  0.0000)
  13 Li     7.396472    7.119772   15.045735    ( 0.0000,  0.0000,  0.0000)
  14 Li     2.463627    4.276963   15.927690    ( 0.0000,  0.0000,  0.0000)
  15 Li     4.949366    5.697012   16.363594    ( 0.0000,  0.0000,  0.0000)
  16 Li     4.935605    8.548719   10.000000    ( 0.0000,  0.0000,  0.0000)
  17 Li     7.403408    9.973506   11.007476    ( 0.0000,  0.0000,  0.0000)
  18 Li     9.871211   11.398292   12.014952    ( 0.0000,  0.0000,  0.0000)
  19 Li     4.935605    8.548719   13.022429    ( 0.0000,  0.0000,  0.0000)
  20 Li     7.397990    9.977896   14.034189    ( 0.0000,  0.0000,  0.0000)
  21 Li     9.870856   11.400795   15.062638    ( 0.0000,  0.0000,  0.0000)
  22 Li     4.934752    8.552684   15.898296    ( 0.0000,  0.0000,  0.0000)
  23 Li     7.452238    9.940375   16.979321    ( 0.0000,  0.0000,  0.0000)
  24 Li     4.935605    0.000000   10.000000    ( 0.0000,  0.0000,  0.0000)
  25 Li     7.403408    1.424787   11.007476    ( 0.0000,  0.0000,  0.0000)
  26 Li     9.871211    2.849573   12.014952    ( 0.0000,  0.0000,  0.0000)
  27 Li     4.935605    0.000000   13.022429    ( 0.0000,  0.0000,  0.0000)
  28 Li     7.410607    1.419429   14.032727    ( 0.0000,  0.0000,  0.0000)
  29 Li     9.872956    2.847542   15.090180    ( 0.0000,  0.0000,  0.0000)
  30 Li     4.937658    0.013950   15.839020    ( 0.0000,  0.0000,  0.0000)
  31 Li     7.359396    1.431294   16.981604    ( 0.0000,  0.0000,  0.0000)
  32 Li     7.403408    4.274360   10.000000    ( 0.0000,  0.0000,  0.0000)
  33 Li     9.871211    5.699146   11.007476    ( 0.0000,  0.0000,  0.0000)
  34 Li    12.339013    7.123933   12.014952    ( 0.0000,  0.0000,  0.0000)
  35 Li     7.403408    4.274360   13.022429    ( 0.0000,  0.0000,  0.0000)
  36 Li     9.875490    5.695525   14.024205    ( 0.0000,  0.0000,  0.0000)
  37 Li    12.335723    7.125110   15.082175    ( 0.0000,  0.0000,  0.0000)
  38 Li     7.395267    4.266109   15.888263    ( 0.0000,  0.0000,  0.0000)
  39 Li     9.864503    5.738814   16.960737    ( 0.0000,  0.0000,  0.0000)
  40 Li     9.871211    8.548719   10.000000    ( 0.0000,  0.0000,  0.0000)
  41 Li    12.339013    9.973506   11.007476    ( 0.0000,  0.0000,  0.0000)
  42 Li    14.806816   11.398292   12.014952    ( 0.0000,  0.0000,  0.0000)
  43 Li     9.871211    8.548719   13.022429    ( 0.0000,  0.0000,  0.0000)
  44 Li    12.341629    9.971348   14.013477    ( 0.0000,  0.0000,  0.0000)
  45 Li    14.803767   11.394826   15.086244    ( 0.0000,  0.0000,  0.0000)
  46 Li     9.855326    8.548337   15.799265    ( 0.0000,  0.0000,  0.0000)
  47 Li    12.319953    9.964918   16.940726    ( 0.0000,  0.0000,  0.0000)
  48 Li     9.871211    0.000000   10.000000    ( 0.0000,  0.0000,  0.0000)
  49 Li    12.339013    1.424787   11.007476    ( 0.0000,  0.0000,  0.0000)
  50 Li    14.806816    2.849573   12.014952    ( 0.0000,  0.0000,  0.0000)
  51 Li     9.871211    0.000000   13.022429    ( 0.0000,  0.0000,  0.0000)
  52 Li    12.335012    1.423427   14.026624    ( 0.0000,  0.0000,  0.0000)
  53 Li    14.801689    2.846639   15.073044    ( 0.0000,  0.0000,  0.0000)
  54 Li     9.861339   -0.000235   15.852548    ( 0.0000,  0.0000,  0.0000)
  55 Li    12.337738    1.446081   16.950527    ( 0.0000,  0.0000,  0.0000)
  56 Li    12.339013    4.274360   10.000000    ( 0.0000,  0.0000,  0.0000)
  57 Li    14.806816    5.699146   11.007476    ( 0.0000,  0.0000,  0.0000)
  58 Li    17.274619    7.123933   12.014952    ( 0.0000,  0.0000,  0.0000)
  59 Li    12.339013    4.274360   13.022429    ( 0.0000,  0.0000,  0.0000)
  60 Li    14.800149    5.699179   14.031253    ( 0.0000,  0.0000,  0.0000)
  61 Li    17.275392    7.123000   15.052588    ( 0.0000,  0.0000,  0.0000)
  62 Li    12.344377    4.279106   15.834421    ( 0.0000,  0.0000,  0.0000)
  63 Li    14.799786    5.725353   16.980561    ( 0.0000,  0.0000,  0.0000)
  64 Li    14.806816    8.548719   10.000000    ( 0.0000,  0.0000,  0.0000)
  65 Li    17.274619    9.973506   11.007476    ( 0.0000,  0.0000,  0.0000)
  66 Li    19.742421   11.398292   12.014952    ( 0.0000,  0.0000,  0.0000)
  67 Li    14.806816    8.548719   13.022429    ( 0.0000,  0.0000,  0.0000)
  68 Li    17.272993    9.979210   14.029570    ( 0.0000,  0.0000,  0.0000)
  69 Li    19.735381   11.402360   15.096664    ( 0.0000,  0.0000,  0.0000)
  70 Li    14.815519    8.537888   15.815752    ( 0.0000,  0.0000,  0.0000)
  71 Li    17.238322    9.948456   16.963946    ( 0.0000,  0.0000,  0.0000)
  72 Li     4.124076    4.267621   18.599480    ( 0.0000,  0.0000,  0.0000)

Unit cell:
           periodic     x           y           z      points  spacing
  1. axis:    yes   14.806816    0.000000    0.000000    49     0.2617
  2. axis:    yes    7.403408   12.823079    0.000000    49     0.2617
  3. axis:    no     0.000000    0.000000   27.052334    90     0.3006

  Lengths:  14.806816  14.806816  27.052334
  Angles:   90.000000  90.000000  60.000000

Effective grid spacing dv^(1/3) = 0.2875

     iter     time        total  log10-change:
                         energy   eigst   dens
iter:   1 19:06:04  -125.408160   -3.95
iter:   2 19:06:09  -125.404959   -4.62  -2.26
iter:   3 19:06:14  -125.404645c  -4.79  -2.75
iter:   4 19:06:19  -125.404367c  -5.54c -2.93
iter:   5 19:06:24  -125.404352c  -5.19  -3.15
iter:   6 19:06:29  -125.404296c  -5.59c -3.02
iter:   7 19:06:34  -125.404339c  -6.07c -3.56
iter:   8 19:06:39  -125.404318c  -6.07c -3.41
iter:   9 19:06:44  -125.404321c  -6.72c -3.84
iter:  10 19:06:49  -125.404311c  -6.71c -3.95
iter:  11 19:06:54  -125.404290c  -6.56c -4.08c

Converged after 11 iterations.

Dipole moment: (-9.563837, -4.885198, 0.254297) |e|*Ang

Energy contributions relative to reference atoms: (reference = -14803.510878)

Kinetic:        +99.498913
Potential:      -89.210758
External:        +0.000000
XC:            -134.657201
Entropy (-ST):   -1.153514
Local:           -0.458486
SIC:             +0.000000
--------------------------
Free energy:   -125.981046
Extrapolated:  -125.404290

Showing all kpts
 Kpt  Band  Eigenvalues  Occupancy
  0    34     -1.83130    1.10384
  0    35     -1.78192    0.85831
  0    36     -1.76674    0.78486
  0    37     -1.73565    0.64251

  1    34     -1.94969    1.60192
  1    35     -1.94615    1.59053
  1    36     -1.85652    1.22633
  1    37     -1.75333    0.72190


Fermi level: -1.81045

No gap
No difference between direct/indirect transitions

Forces in eV/Ang:
  0 Li    0.00203    0.00074    0.04583
  1 Li   -0.00551   -0.00767    0.09682
  2 Li    0.00434   -0.00534   -0.07317
  3 Li   -0.01169   -0.00216   -0.15440
  4 Li   -0.01038   -0.01408    0.05478
  5 Li   -0.02799    0.02899    0.08784
  6 Li   -0.02200   -0.02303   -0.04560
  7 Li    0.00582    0.07698    0.20803
  8 Li   -0.00723   -0.00094    0.07488
  9 Li    0.00405    0.00591   -0.03450
 10 Li    0.01566    0.00828   -0.09515
 11 Li   -0.01913    0.00188   -0.09456
 12 Li    0.01020    0.01841    0.03083
 13 Li    0.00766    0.00346   -0.04449
 14 Li   -0.01084    0.01211   -0.01222
 15 Li    0.02228    0.10301    0.09695
 16 Li   -0.00005    0.00123    0.06273
 17 Li   -0.00195   -0.00136    0.18592
 18 Li    0.00444   -0.00303   -0.07843
 19 Li   -0.00418    0.01263   -0.10820
 20 Li   -0.00186    0.00110    0.03127
 21 Li    0.00302    0.00842   -0.02049
 22 Li    0.00206    0.06744   -0.05066
 23 Li   -0.00496    0.01141   -0.01870
 24 Li   -0.00298    0.00025    0.04911
 25 Li    0.00651   -0.00436    0.18255
 26 Li    0.00394   -0.00242   -0.05959
 27 Li    0.00765   -0.00086   -0.16416
 28 Li    0.00663   -0.00634    0.02069
 29 Li   -0.00448   -0.00009   -0.00551
 30 Li    0.03544   -0.04011   -0.02508
 31 Li   -0.00596    0.01555    0.00543
 32 Li    0.00369    0.00057    0.06408
 33 Li   -0.00394   -0.00332    0.18293
 34 Li    0.00707    0.00195   -0.05603
 35 Li    0.00657   -0.00778   -0.11176
 36 Li   -0.00207   -0.00357    0.03061
 37 Li    0.00166   -0.00065   -0.00188
 38 Li    0.02295   -0.03312    0.01213
 39 Li    0.00822   -0.00801   -0.00723
 40 Li   -0.00440    0.00031    0.03317
 41 Li    0.00154    0.00368    0.18397
 42 Li    0.00330    0.00154   -0.05551
 43 Li   -0.00124    0.00127   -0.21270
 44 Li    0.00092    0.00295    0.02854
 45 Li   -0.00537    0.00020   -0.00223
 46 Li    0.02038    0.00139    0.00527
 47 Li    0.00668   -0.00365   -0.00570
 48 Li   -0.00047    0.00010    0.04216
 49 Li   -0.00107    0.00116    0.18101
 50 Li   -0.00515    0.00209   -0.07663
 51 Li    0.00158    0.00003   -0.17871
 52 Li   -0.00225   -0.00117    0.02788
 53 Li    0.01068   -0.00407   -0.02138
 54 Li   -0.01081    0.00242   -0.00102
 55 Li   -0.00834   -0.00518    0.00233
 56 Li    0.00109   -0.00116    0.03641
 57 Li   -0.00317    0.00190    0.18188
 58 Li   -0.01159    0.01106   -0.08425
 59 Li    0.00148   -0.00469   -0.18822
 60 Li   -0.00255   -0.00173    0.01940
 61 Li    0.00278   -0.01050   -0.00981
 62 Li   -0.00878    0.01589   -0.00050
 63 Li    0.04759   -0.02559    0.01861
 64 Li    0.00184   -0.00455    0.04034
 65 Li    0.00122    0.00067    0.18624
 66 Li   -0.00211    0.00216   -0.05581
 67 Li    0.00250   -0.00028   -0.20016
 68 Li   -0.00022    0.00266    0.02773
 69 Li   -0.00244   -0.00197   -0.00179
 70 Li   -0.02890    0.01123   -0.00023
 71 Li   -0.00002    0.01528   -0.00471
 72 Li   -0.04956   -0.22583   -0.18090

System changes: positions 

Initializing position-dependent things.

Density initialized from wave functions
                                                                       
                                                                       
                                                                       
                                                                       
                                                                       
                                                                       
                               Li          Li          Li              
                                                                       
                    Li  Li            Li          Li          Li       
                                   Lii         Lii                     
                      Li     LiLi        LiLi        LiLi              
                Li        LiLi        LiLi        Li          Li       
              Li        Li         Lii         Lii                     
       Li          LiLii       LiLi        LiLi        Li              
                Li          Lii         Lii          Li                
              Li        LiLi        LiLi        Li                     
                     Lii         LiLi        LiLi                      
       Li          Li          Li                                      
              LiLi        LiLi        LiLi                             
                                                                       
       Li          Li          Li                                      
                                                                       
                                                                       
                                                                       
                                                                       

Atomic positions and initial magnetic moments

Positions:
   0 Li     0.000000    0.000000   10.000000    ( 0.0000,  0.0000,  0.0000)
   1 Li     2.467803    1.424787   11.007476    ( 0.0000,  0.0000,  0.0000)
   2 Li     4.935605    2.849573   12.014952    ( 0.0000,  0.0000,  0.0000)
   3 Li     0.000000    0.000000   13.022429    ( 0.0000,  0.0000,  0.0000)
   4 Li     2.458837    1.420968   13.888291    ( 0.0000,  0.0000,  0.0000)
   5 Li     4.925330    2.859072   15.050076    ( 0.0000,  0.0000,  0.0000)
   6 Li    -0.000145   -0.006847   15.869837    ( 0.0000,  0.0000,  0.0000)
   7 Li     2.504916    1.423024   16.707168    ( 0.0000,  0.0000,  0.0000)
   8 Li     2.467803    4.274360   10.000000    ( 0.0000,  0.0000,  0.0000)
   9 Li     4.935605    5.699146   11.007476    ( 0.0000,  0.0000,  0.0000)
  10 Li     7.403408    7.123933   12.014952    ( 0.0000,  0.0000,  0.0000)
  11 Li     2.467803    4.274360   13.022429    ( 0.0000,  0.0000,  0.0000)
  12 Li     4.934462    5.705347   13.728165    ( 0.0000,  0.0000,  0.0000)
  13 Li     7.396865    7.119986   15.043245    ( 0.0000,  0.0000,  0.0000)
  14 Li     2.463016    4.277563   15.927181    ( 0.0000,  0.0000,  0.0000)
  15 Li     4.950293    5.702213   16.367094    ( 0.0000,  0.0000,  0.0000)
  16 Li     4.935605    8.548719   10.000000    ( 0.0000,  0.0000,  0.0000)
  17 Li     7.403408    9.973506   11.007476    ( 0.0000,  0.0000,  0.0000)
  18 Li     9.871211   11.398292   12.014952    ( 0.0000,  0.0000,  0.0000)
  19 Li     4.935605    8.548719   13.022429    ( 0.0000,  0.0000,  0.0000)
  20 Li     7.397885    9.977952   14.035957    ( 0.0000,  0.0000,  0.0000)
  21 Li     9.871017   11.401175   15.061563    ( 0.0000,  0.0000,  0.0000)
  22 Li     4.934841    8.556188   15.895863    ( 0.0000,  0.0000,  0.0000)
  23 Li     7.451941    9.940960   16.978298    ( 0.0000,  0.0000,  0.0000)
  24 Li     4.935605    0.000000   10.000000    ( 0.0000,  0.0000,  0.0000)
  25 Li     7.403408    1.424787   11.007476    ( 0.0000,  0.0000,  0.0000)
  26 Li     9.871211    2.849573   12.014952    ( 0.0000,  0.0000,  0.0000)
  27 Li     4.935605    0.000000   13.022429    ( 0.0000,  0.0000,  0.0000)
  28 Li     7.411045    1.419066   14.033846    ( 0.0000,  0.0000,  0.0000)
  29 Li     9.872682    2.847557   15.089919    ( 0.0000,  0.0000,  0.0000)
  30 Li     4.939760    0.011723   15.837376    ( 0.0000,  0.0000,  0.0000)
  31 Li     7.359043    1.432006   16.981811    ( 0.0000,  0.0000,  0.0000)
  32 Li     7.403408    4.274360   10.000000    ( 0.0000,  0.0000,  0.0000)
  33 Li     9.871211    5.699146   11.007476    ( 0.0000,  0.0000,  0.0000)
  34 Li    12.339013    7.123933   12.014952    ( 0.0000,  0.0000,  0.0000)
  35 Li     7.403408    4.274360   13.022429    ( 0.0000,  0.0000,  0.0000)
  36 Li     9.875371    5.695335   14.025958    ( 0.0000,  0.0000,  0.0000)
  37 Li    12.335821    7.125106   15.082085    ( 0.0000,  0.0000,  0.0000)
  38 Li     7.396660    4.264265   15.889167    ( 0.0000,  0.0000,  0.0000)
  39 Li     9.864932    5.738501   16.960414    ( 0.0000,  0.0000,  0.0000)
  40 Li     9.871211    8.548719   10.000000    ( 0.0000,  0.0000,  0.0000)
  41 Li    12.339013    9.973506   11.007476    ( 0.0000,  0.0000,  0.0000)
  42 Li    14.806816   11.398292   12.014952    ( 0.0000,  0.0000,  0.0000)
  43 Li     9.871211    8.548719   13.022429    ( 0.0000,  0.0000,  0.0000)
  44 Li    12.341667    9.971508   14.015013    ( 0.0000,  0.0000,  0.0000)
  45 Li    14.803399   11.394886   15.086128    ( 0.0000,  0.0000,  0.0000)
  46 Li     9.856381    8.548317   15.799540    ( 0.0000,  0.0000,  0.0000)
  47 Li    12.320423    9.964769   16.940251    ( 0.0000,  0.0000,  0.0000)
  48 Li     9.871211    0.000000   10.000000    ( 0.0000,  0.0000,  0.0000)
  49 Li    12.339013    1.424787   11.007476    ( 0.0000,  0.0000,  0.0000)
  50 Li    14.806816    2.849573   12.014952    ( 0.0000,  0.0000,  0.0000)
  51 Li     9.871211    0.000000   13.022429    ( 0.0000,  0.0000,  0.0000)
  52 Li    12.334900    1.423366   14.028142    ( 0.0000,  0.0000,  0.0000)
  53 Li    14.802242    2.846441   15.071967    ( 0.0000,  0.0000,  0.0000)
  54 Li     9.860771   -0.000146   15.852497    ( 0.0000,  0.0000,  0.0000)
  55 Li    12.337264    1.445693   16.950544    ( 0.0000,  0.0000,  0.0000)
  56 Li    12.339013    4.274360   10.000000    ( 0.0000,  0.0000,  0.0000)
  57 Li    14.806816    5.699146   11.007476    ( 0.0000,  0.0000,  0.0000)
  58 Li    17.274619    7.123933   12.014952    ( 0.0000,  0.0000,  0.0000)
  59 Li    12.339013    4.274360   13.022429    ( 0.0000,  0.0000,  0.0000)
  60 Li    14.799999    5.699066   14.032301    ( 0.0000,  0.0000,  0.0000)
  61 Li    17.275572    7.122375   15.051929    ( 0.0000,  0.0000,  0.0000)
  62 Li    12.343796    4.280034   15.834482    ( 0.0000,  0.0000,  0.0000)
  63 Li    14.802354    5.724215   16.981522    ( 0.0000,  0.0000,  0.0000)
  64 Li    14.806816    8.548719   10.000000    ( 0.0000,  0.0000,  0.0000)
  65 Li    17.274619    9.973506   11.007476    ( 0.0000,  0.0000,  0.0000)
  66 Li    19.742421   11.398292   12.014952    ( 0.0000,  0.0000,  0.0000)
  67 Li    14.806816    8.548719   13.022429    ( 0.0000,  0.0000,  0.0000)
  68 Li    17.273003    9.979375   14.031126    ( 0.0000,  0.0000,  0.0000)
  69 Li    19.735336   11.402175   15.096600    ( 0.0000,  0.0000,  0.0000)
  70 Li    14.814002    8.538537   15.815609    ( 0.0000,  0.0000,  0.0000)
  71 Li    17.238263    9.949216   16.963742    ( 0.0000,  0.0000,  0.0000)
  72 Li     4.126138    4.264374   18.590087    ( 0.0000,  0.0000,  0.0000)

Unit cell:
           periodic     x           y           z      points  spacing
  1. axis:    yes   14.806816    0.000000    0.000000    49     0.2617
  2. axis:    yes    7.403408   12.823079    0.000000    49     0.2617
  3. axis:    no     0.000000    0.000000   27.052334    90     0.3006

  Lengths:  14.806816  14.806816  27.052334
  Angles:   90.000000  90.000000  60.000000

Effective grid spacing dv^(1/3) = 0.2875

     iter     time        total  log10-change:
                         energy   eigst   dens
iter:   1 19:11:39  -125.419375   -3.72
iter:   2 19:11:44  -125.413819   -4.39  -2.14
iter:   3 19:11:49  -125.413308c  -4.56  -2.63
iter:   4 19:11:54  -125.412910c  -5.33c -2.83
iter:   5 19:11:59  -125.412886c  -5.03  -3.06
iter:   6 19:12:05  -125.412806c  -5.44c -2.94
iter:   7 19:12:10  -125.412862c  -5.94c -3.44
iter:   8 19:12:15  -125.412827c  -5.95c -3.32
iter:   9 19:12:20  -125.412832c  -6.57c -3.75
iter:  10 19:12:25  -125.412820c  -6.64c -3.85
iter:  11 19:12:30  -125.412793c  -6.46c -3.98
iter:  12 19:12:35  -125.412786c  -6.06c -4.11c

Converged after 12 iterations.

Dipole moment: (-9.464092, -4.818650, 0.250996) |e|*Ang

Energy contributions relative to reference atoms: (reference = -14803.510878)

Kinetic:        +99.487385
Potential:      -89.206276
External:        +0.000000
XC:            -134.658761
Entropy (-ST):   -1.153534
Local:           -0.458367
SIC:             +0.000000
--------------------------
Free energy:   -125.989553
Extrapolated:  -125.412786

Showing all kpts
 Kpt  Band  Eigenvalues  Occupancy
  0    34     -1.83164    1.10445
  0    35     -1.78182    0.85671
  0    36     -1.76692    0.78463
  0    37     -1.73595    0.64284

  1    34     -1.94983    1.60169
  1    35     -1.94620    1.58998
  1    36     -1.85679    1.22657
  1    37     -1.75344    0.72140


Fermi level: -1.81068

No gap
No difference between direct/indirect transitions

Forces in eV/Ang:
  0 Li    0.00186    0.00063    0.04552
  1 Li   -0.00579   -0.00780    0.09887
  2 Li    0.00444   -0.00517   -0.07112
  3 Li   -0.01246   -0.00274   -0.15646
  4 Li   -0.00919   -0.01319    0.05778
  5 Li   -0.02650    0.02827    0.08717
  6 Li   -0.01842   -0.02010   -0.04210
  7 Li    0.00587    0.07199    0.19736
  8 Li   -0.00732   -0.00070    0.07442
  9 Li    0.00408    0.00623   -0.03392
 10 Li    0.01557    0.00847   -0.09601
 11 Li   -0.01912    0.00203   -0.09519
 12 Li    0.00935    0.01682    0.03351
 13 Li    0.00738    0.00301   -0.04115
 14 Li   -0.00931    0.01278   -0.01329
 15 Li    0.02470    0.10502    0.08865
 16 Li   -0.00005    0.00127    0.06271
 17 Li   -0.00212   -0.00141    0.18687
 18 Li    0.00428   -0.00322   -0.07850
 19 Li   -0.00412    0.01346   -0.10957
 20 Li   -0.00184    0.00131    0.02795
 21 Li    0.00288    0.00856   -0.01759
 22 Li    0.00197    0.06594   -0.04986
 23 Li   -0.00476    0.01066   -0.01715
 24 Li   -0.00281   -0.00003    0.04876
 25 Li    0.00691   -0.00455    0.18284
 26 Li    0.00391   -0.00245   -0.05948
 27 Li    0.00799   -0.00100   -0.16546
 28 Li    0.00531   -0.00551    0.01957
 29 Li   -0.00325   -0.00063   -0.00509
 30 Li    0.03011   -0.03551   -0.02185
 31 Li   -0.00619    0.01407    0.00676
 32 Li    0.00387    0.00068    0.06405
 33 Li   -0.00400   -0.00339    0.18370
 34 Li    0.00698    0.00211   -0.05567
 35 Li    0.00711   -0.00788   -0.11130
 36 Li   -0.00160   -0.00357    0.02801
 37 Li    0.00152   -0.00076   -0.00177
 38 Li    0.01962   -0.02915    0.01167
 39 Li    0.00759   -0.00763   -0.00603
 40 Li   -0.00435    0.00031    0.03313
 41 Li    0.00157    0.00359    0.18465
 42 Li    0.00348    0.00153   -0.05518
 43 Li   -0.00130    0.00117   -0.21206
 44 Li    0.00107    0.00264    0.02596
 45 Li   -0.00356   -0.00063   -0.00235
 46 Li    0.01908    0.00153    0.00520
 47 Li    0.00642   -0.00348   -0.00391
 48 Li   -0.00046    0.00006    0.04221
 49 Li   -0.00116    0.00107    0.18171
 50 Li   -0.00526    0.00195   -0.07678
 51 Li    0.00172   -0.00021   -0.17840
 52 Li   -0.00235   -0.00109    0.02572
 53 Li    0.00963   -0.00405   -0.01877
 54 Li   -0.01059    0.00243   -0.00088
 55 Li   -0.00789   -0.00504    0.00278
 56 Li    0.00099   -0.00111    0.03634
 57 Li   -0.00313    0.00190    0.18232
 58 Li   -0.01139    0.01130   -0.08438
 59 Li    0.00114   -0.00479   -0.18787
 60 Li   -0.00250   -0.00140    0.01846
 61 Li    0.00253   -0.00856   -0.00857
 62 Li   -0.00725    0.01459    0.00000
 63 Li    0.04628   -0.02475    0.01831
 64 Li    0.00182   -0.00448    0.04023
 65 Li    0.00133    0.00072    0.18707
 66 Li   -0.00212    0.00182   -0.05523
 67 Li    0.00256   -0.00015   -0.19983
 68 Li   -0.00037    0.00254    0.02530
 69 Li   -0.00377    0.00003   -0.00225
 70 Li   -0.02651    0.00974    0.00042
 71 Li   -0.00026    0.01448   -0.00392
 72 Li   -0.05002   -0.23051   -0.17372

System changes: positions 

Initializing position-dependent things.

Density initialized from wave functions
                                                                       
                                                                       
                                                                       
                                                                       
                                                                       
                                                                       
                               Li          Li          Li              
                                                                       
                    Li  Li            Li          Li          Li       
                                   Lii         Lii                     
                      Li     LiLi        LiLi        LiLi              
                Li        LiLi        LiLi        Li          Li       
              Li        Li         Lii         Lii                     
       Li          LiLii       LiLi        LiLi        Li              
                Li          Lii         Lii          Li                
[...]
  7 Li    0.00404    0.01272    0.02029
  8 Li   -0.00719   -0.00076    0.07349
  9 Li   -0.00074    0.00354   -0.07930
 10 Li    0.01138    0.00081   -0.08259
 11 Li   -0.02730   -0.00526   -0.08523
 12 Li    0.00028   -0.01162    0.03184
 13 Li    0.00367    0.01245   -0.01876
 14 Li   -0.00316    0.00188   -0.00698
 15 Li   -0.00529    0.07935    0.06951
 16 Li   -0.00135    0.00289    0.06352
 17 Li   -0.00016    0.00034    0.19732
 18 Li    0.00278    0.00463   -0.05924
 19 Li   -0.00444   -0.00514   -0.09290
 20 Li   -0.00490    0.01203   -0.00103
 21 Li    0.00436   -0.00197    0.00841
 22 Li    0.00232    0.05631   -0.03982
 23 Li    0.00282    0.00473   -0.00981
 24 Li   -0.00249   -0.00083    0.04347
 25 Li    0.00852   -0.00764    0.18346
 26 Li    0.00745   -0.00031   -0.05257
 27 Li    0.00181    0.00232   -0.18345
 28 Li   -0.01298    0.00881    0.00467
 29 Li   -0.00287    0.00231   -0.00287
 30 Li    0.00316    0.01124    0.01908
 31 Li   -0.00490    0.02915    0.01157
 32 Li    0.00462    0.00020    0.07402
 33 Li    0.00052   -0.00426    0.19335
 34 Li    0.00524    0.00809   -0.05301
 35 Li    0.03121   -0.01224   -0.12029
 36 Li    0.00280   -0.00317   -0.00305
 37 Li   -0.00446    0.00038   -0.00011
 38 Li   -0.00890    0.01405   -0.00652
 39 Li   -0.01435   -0.00960   -0.00814
 40 Li   -0.00285   -0.00213    0.03387
 41 Li    0.00242    0.00494    0.19544
 42 Li    0.00252    0.00356   -0.05387
 43 Li   -0.00475    0.00223   -0.19617
 44 Li    0.00216    0.00252    0.00244
 45 Li   -0.00496    0.00219   -0.00099
 46 Li    0.00184   -0.00856    0.00640
 47 Li   -0.00260    0.00439   -0.00511
 48 Li    0.00116   -0.00265    0.04137
 49 Li   -0.00380   -0.00525    0.19451
 50 Li   -0.00026   -0.00058   -0.05611
 51 Li    0.01717    0.03397   -0.16984
 52 Li    0.00054    0.01515   -0.00637
 53 Li   -0.00289   -0.00241    0.00283
 54 Li   -0.00915    0.00515    0.00612
 55 Li    0.00178   -0.00080   -0.00559
 56 Li   -0.00140   -0.00225    0.03902
 57 Li    0.00171   -0.00108    0.19225
 58 Li   -0.00877    0.00689   -0.10362
 59 Li    0.00219    0.02522   -0.18376
 60 Li   -0.00017    0.00018   -0.00015
 61 Li   -0.00278    0.00628   -0.01025
 62 Li   -0.00152    0.00422    0.00640
 63 Li    0.00859   -0.00575    0.00130
 64 Li    0.00108   -0.00289    0.03761
 65 Li    0.00023    0.00073    0.19985
 66 Li   -0.00029   -0.00149   -0.05799
 67 Li    0.00292    0.00568   -0.20677
 68 Li    0.00488    0.00306   -0.00354
 69 Li    0.00513    0.03080   -0.00995
 70 Li   -0.00584   -0.00655    0.00407
 71 Li   -0.00516   -0.00025   -0.01063
 72 Li   -0.00337   -0.36924   -0.05190

System changes: positions 

Initializing position-dependent things.

Density initialized from wave functions
                                                                        
                                                                        
                                                                        
                                                                        
                                                                        
                                                                        
                                Li          Li         Li               
                                                                        
                       LiLi            Li          Li          Li       
                                   LiLi        LiLi                     
                       Li     LiLi        LiLi        LiLi              
                Li          Li         LLi         Li          Li       
              Li         LLi         LLi         Li                     
                     LiLi        LiLi        LiLi                       
       Li          Li         LLii        LiLi        LiLi              
              LiLi        LiLi        LiLi                              
                       LiLi        LiLi        LiLi                     
                     Li          Li          Li                         
       Li          Li          Li                                       
              LiLi        LiLi        LiLi                              
                                                                        
       Li          Li          Li                                       
                                                                        
                                                                        
                                                                        
                                                                        

Atomic positions and initial magnetic moments

Positions:
   0 Li     0.000000    0.000000   10.000000    ( 0.0000,  0.0000,  0.0000)
   1 Li     2.467803    1.424787   11.007476    ( 0.0000,  0.0000,  0.0000)
   2 Li     4.935605    2.849573   12.014952    ( 0.0000,  0.0000,  0.0000)
   3 Li     0.000000    0.000000   13.022429    ( 0.0000,  0.0000,  0.0000)
   4 Li     2.478520    1.432699   14.043361    ( 0.0000,  0.0000,  0.0000)
   5 Li     4.956152    2.936328   15.156094    ( 0.0000,  0.0000,  0.0000)
   6 Li     0.037878    0.024351   15.860141    ( 0.0000,  0.0000,  0.0000)
   7 Li     2.573096    1.509106   16.981648    ( 0.0000,  0.0000,  0.0000)
   8 Li     2.467803    4.274360   10.000000    ( 0.0000,  0.0000,  0.0000)
   9 Li     4.935605    5.699146   11.007476    ( 0.0000,  0.0000,  0.0000)
  10 Li     7.403408    7.123933   12.014952    ( 0.0000,  0.0000,  0.0000)
  11 Li     2.467803    4.274360   13.022429    ( 0.0000,  0.0000,  0.0000)
  12 Li     4.933060    5.683088   13.669965    ( 0.0000,  0.0000,  0.0000)
  13 Li     7.435151    7.208256   15.043060    ( 0.0000,  0.0000,  0.0000)
  14 Li     2.584757    4.380316   15.953071    ( 0.0000,  0.0000,  0.0000)
  15 Li     4.931211    6.166182   16.182843    ( 0.0000,  0.0000,  0.0000)
  16 Li     4.935605    8.548719   10.000000    ( 0.0000,  0.0000,  0.0000)
  17 Li     7.403408    9.973506   11.007476    ( 0.0000,  0.0000,  0.0000)
  18 Li     9.871211   11.398292   12.014952    ( 0.0000,  0.0000,  0.0000)
  19 Li     4.935605    8.548719   13.022429    ( 0.0000,  0.0000,  0.0000)
  20 Li     7.405929   10.017526   14.057089    ( 0.0000,  0.0000,  0.0000)
  21 Li     9.889638   11.417553   15.075815    ( 0.0000,  0.0000,  0.0000)
  22 Li     4.919034    8.885709   15.836394    ( 0.0000,  0.0000,  0.0000)
  23 Li     7.508172    9.960237   16.985281    ( 0.0000,  0.0000,  0.0000)
  24 Li     4.935605    0.000000   10.000000    ( 0.0000,  0.0000,  0.0000)
  25 Li     7.403408    1.424787   11.007476    ( 0.0000,  0.0000,  0.0000)
  26 Li     9.871211    2.849573   12.014952    ( 0.0000,  0.0000,  0.0000)
  27 Li     4.935605    0.000000   13.022429    ( 0.0000,  0.0000,  0.0000)
  28 Li     7.406142    1.416979   14.038633    ( 0.0000,  0.0000,  0.0000)
  29 Li     9.836927    2.859197   15.106979    ( 0.0000,  0.0000,  0.0000)
  30 Li     4.952425    0.038193   15.821188    ( 0.0000,  0.0000,  0.0000)
  31 Li     7.334674    1.519333   16.996322    ( 0.0000,  0.0000,  0.0000)
  32 Li     7.403408    4.274360   10.000000    ( 0.0000,  0.0000,  0.0000)
  33 Li     9.871211    5.699146   11.007476    ( 0.0000,  0.0000,  0.0000)
  34 Li    12.339013    7.123933   12.014952    ( 0.0000,  0.0000,  0.0000)
  35 Li     7.403408    4.274360   13.022429    ( 0.0000,  0.0000,  0.0000)
  36 Li     9.870747    5.694138   14.059422    ( 0.0000,  0.0000,  0.0000)
  37 Li    12.344303    7.101490   15.077519    ( 0.0000,  0.0000,  0.0000)
  38 Li     7.345727    4.352879   15.899970    ( 0.0000,  0.0000,  0.0000)
  39 Li     9.823320    5.733982   17.003195    ( 0.0000,  0.0000,  0.0000)
  40 Li     9.871211    8.548719   10.000000    ( 0.0000,  0.0000,  0.0000)
  41 Li    12.339013    9.973506   11.007476    ( 0.0000,  0.0000,  0.0000)
  42 Li    14.806816   11.398292   12.014952    ( 0.0000,  0.0000,  0.0000)
  43 Li     9.871211    8.548719   13.022429    ( 0.0000,  0.0000,  0.0000)
  44 Li    12.342551    9.979213   14.045109    ( 0.0000,  0.0000,  0.0000)
  45 Li    14.792630   11.405946   15.077882    ( 0.0000,  0.0000,  0.0000)
  46 Li     9.941094    8.570529   15.817142    ( 0.0000,  0.0000,  0.0000)
  47 Li    12.361548   10.028544   16.981592    ( 0.0000,  0.0000,  0.0000)
  48 Li     9.871211    0.000000   10.000000    ( 0.0000,  0.0000,  0.0000)
  49 Li    12.339013    1.424787   11.007476    ( 0.0000,  0.0000,  0.0000)
  50 Li    14.806816    2.849573   12.014952    ( 0.0000,  0.0000,  0.0000)
  51 Li     9.871211    0.000000   13.022429    ( 0.0000,  0.0000,  0.0000)
  52 Li    12.342788    1.483253   14.053925    ( 0.0000,  0.0000,  0.0000)
  53 Li    14.860203    2.890786   15.111463    ( 0.0000,  0.0000,  0.0000)
  54 Li     9.829852    0.005966   15.863792    ( 0.0000,  0.0000,  0.0000)
  55 Li    12.325824    1.426070   16.975252    ( 0.0000,  0.0000,  0.0000)
  56 Li    12.339013    4.274360   10.000000    ( 0.0000,  0.0000,  0.0000)
  57 Li    14.806816    5.699146   11.007476    ( 0.0000,  0.0000,  0.0000)
  58 Li    17.274619    7.123933   12.014952    ( 0.0000,  0.0000,  0.0000)
  59 Li    12.339013    4.274360   13.022429    ( 0.0000,  0.0000,  0.0000)
  60 Li    14.808182    5.697895   14.040607    ( 0.0000,  0.0000,  0.0000)
  61 Li    17.235732    7.215671   15.000499    ( 0.0000,  0.0000,  0.0000)
  62 Li    12.331202    4.276484   15.849337    ( 0.0000,  0.0000,  0.0000)
  63 Li    14.824198    5.745831   16.960099    ( 0.0000,  0.0000,  0.0000)
  64 Li    14.806816    8.548719   10.000000    ( 0.0000,  0.0000,  0.0000)
  65 Li    17.274619    9.973506   11.007476    ( 0.0000,  0.0000,  0.0000)
  66 Li    19.742421   11.398292   12.014952    ( 0.0000,  0.0000,  0.0000)
  67 Li    14.806816    8.548719   13.022429    ( 0.0000,  0.0000,  0.0000)
  68 Li    17.266957   10.028354   14.052380    ( 0.0000,  0.0000,  0.0000)
  69 Li    19.735189   11.555629   15.049818    ( 0.0000,  0.0000,  0.0000)
  70 Li    14.754148    8.566553   15.810567    ( 0.0000,  0.0000,  0.0000)
  71 Li    17.153606    9.968059   16.993507    ( 0.0000,  0.0000,  0.0000)
  72 Li     5.231335    4.476960   18.204857    ( 0.0000,  0.0000,  0.0000)

Unit cell:
           periodic     x           y           z      points  spacing
  1. axis:    yes   14.806816    0.000000    0.000000    49     0.2617
  2. axis:    yes    7.403408   12.823079    0.000000    49     0.2617
  3. axis:    no     0.000000    0.000000   27.052334    90     0.3006

  Lengths:  14.806816  14.806816  27.052334
  Angles:   90.000000  90.000000  60.000000

Effective grid spacing dv^(1/3) = 0.2875

     iter     time        total  log10-change:
                         energy   eigst   dens
iter:   1 23:09:14  -125.508940   -3.37
iter:   2 23:09:23  -125.499521   -4.34  -2.05
iter:   3 23:09:30  -125.498036c  -4.20  -2.34
iter:   4 23:09:37  -125.497921c  -4.94  -2.58
iter:   5 23:09:45  -125.498233c  -4.67  -2.85
iter:   6 23:09:52  -125.497699c  -4.97  -2.78
iter:   7 23:10:01  -125.497653c  -5.87c -3.03
iter:   8 23:10:07  -125.497659c  -5.78c -3.09
iter:   9 23:10:15  -125.497640c  -6.85c -3.48
iter:  10 23:10:22  -125.497687c  -6.52c -3.58
iter:  11 23:10:29  -125.497669c  -6.94c -3.58
iter:  12 23:10:36  -125.497660c  -7.45c -3.87
iter:  13 23:10:44  -125.497659c  -7.99c -3.98
iter:  14 23:10:50  -125.497654c  -8.02c -4.05c

Converged after 14 iterations.

Dipole moment: (-7.425672, -5.177284, 0.187238) |e|*Ang

Energy contributions relative to reference atoms: (reference = -14803.510878)

Kinetic:        +99.163217
Potential:      -88.901093
External:        +0.000000
XC:            -134.728272
Entropy (-ST):   -1.148005
Local:           -0.457503
SIC:             +0.000000
--------------------------
Free energy:   -126.071657
Extrapolated:  -125.497654

Showing all kpts
 Kpt  Band  Eigenvalues  Occupancy
  0    34     -1.82958    1.10703
  0    35     -1.77372    0.82980
  0    36     -1.75758    0.75269
  0    37     -1.71680    0.57281

  1    34     -1.94876    1.60648
  1    35     -1.94170    1.58367
  1    36     -1.84614    1.18795
  1    37     -1.76224    0.77467


Fermi level: -1.80809

No gap
No difference between direct/indirect transitions

Forces in eV/Ang:
  0 Li    0.00001   -0.00102    0.03511
  1 Li   -0.00728   -0.00626    0.18458
  2 Li    0.00608   -0.01076   -0.02946
  3 Li   -0.00432    0.03045   -0.16626
  4 Li    0.00827    0.00451    0.00316
  5 Li   -0.00056    0.02488    0.03663
  6 Li    0.01072    0.00267    0.01086
  7 Li    0.00283    0.01323    0.02110
  8 Li   -0.00713   -0.00083    0.07413
  9 Li   -0.00075    0.00369   -0.08785
 10 Li    0.01144    0.00056   -0.08013
 11 Li   -0.02803   -0.00474   -0.08468
 12 Li    0.00148   -0.01190    0.02991
 13 Li    0.00066    0.01007   -0.02036
 14 Li   -0.00041   -0.00051   -0.00377
 15 Li   -0.00569    0.07620    0.07058
 16 Li   -0.00149    0.00303    0.06438
 17 Li   -0.00012    0.00055    0.19694
 18 Li    0.00291    0.00470   -0.05877
 19 Li   -0.00369   -0.00590   -0.08916
 20 Li   -0.00434    0.01239    0.00035
 21 Li    0.00477    0.00009    0.00784
 22 Li    0.00263    0.05602   -0.03826
 23 Li    0.00328    0.00456   -0.00956
 24 Li   -0.00244   -0.00068    0.04346
 25 Li    0.00861   -0.00793    0.18243
 26 Li    0.00721   -0.00015   -0.05344
 27 Li    0.00090    0.00238   -0.18455
 28 Li   -0.01033    0.00747    0.00599
 29 Li   -0.00440    0.00239   -0.00203
 30 Li    0.00184    0.01166    0.01709
 31 Li   -0.00454    0.02944    0.01473
 32 Li    0.00461    0.00006    0.07480
 33 Li    0.00103   -0.00427    0.19327
 34 Li    0.00495    0.00806   -0.05335
 35 Li    0.03116   -0.01135   -0.12289
 36 Li    0.00218   -0.00272   -0.00314
 37 Li   -0.00321    0.00018   -0.00017
 38 Li   -0.00808    0.01469   -0.00279
 39 Li   -0.01366   -0.00974   -0.00873
 40 Li   -0.00287   -0.00218    0.03393
 41 Li    0.00228    0.00492    0.19555
 42 Li    0.00219    0.00384   -0.05529
 43 Li   -0.00398    0.00312   -0.19537
 44 Li   -0.00005    0.00122    0.00256
 45 Li   -0.00734    0.00286    0.00130
 46 Li    0.00133   -0.00899    0.00712
 47 Li   -0.00247    0.00396   -0.00482
 48 Li    0.00122   -0.00261    0.04130
 49 Li   -0.00366   -0.00513    0.19415
 50 Li    0.00007   -0.00060   -0.05667
 51 Li    0.01532    0.03287   -0.16886
 52 Li    0.00041    0.01856   -0.00438
 53 Li   -0.00109   -0.00338    0.00355
 54 Li   -0.01053    0.00425    0.00449
 55 Li    0.00155   -0.00054   -0.00700
 56 Li   -0.00133   -0.00218    0.03885
 57 Li    0.00160   -0.00113    0.19124
 58 Li   -0.00851    0.00664   -0.10353
 59 Li    0.00167    0.02282   -0.18318
 60 Li   -0.00031   -0.00027    0.00231
 61 Li   -0.00298    0.00434   -0.01137
 62 Li   -0.00290    0.00553    0.00645
 63 Li    0.00667   -0.00537    0.00202
 64 Li    0.00116   -0.00287    0.03761
 65 Li    0.00000    0.00087    0.19918
 66 Li   -0.00007   -0.00119   -0.05855
 67 Li    0.00340    0.00605   -0.20638
 68 Li    0.00471    0.00521   -0.00096
 69 Li    0.00616    0.03013   -0.00905
 70 Li   -0.00519   -0.00524    0.00194
 71 Li   -0.00494   -0.00007   -0.01326
 72 Li    0.00088   -0.36170   -0.05308

Timing:                                      incl.     excl.
-------------------------------------------------------------------
Density initialized from wave functions:    39.552    39.549   0.2% |
 Symmetrize density:                         0.003     0.003   0.0% |
Forces:                                    168.998   168.998   0.8% |
Hamiltonian:                                56.275     0.558   0.0% |
 Atomic:                                    22.866     0.098   0.0% |
  XC Correction:                            22.768    22.768   0.1% |
 Calculate atomic Hamiltonians:             20.783    20.783   0.1% |
 Communicate:                                0.003     0.003   0.0% |
 Initialize Hamiltonian:                     0.003     0.003   0.0% |
 Poisson:                                    2.021     2.021   0.0% |
 XC 3D grid:                                10.041    10.041   0.0% |
LCAO initialization:                        19.802     0.006   0.0% |
 LCAO eigensolver:                           0.417     0.000   0.0% |
  Calculate projections:                     0.004     0.004   0.0% |
  DenseAtomicCorrection:                     0.046     0.046   0.0% |
  Distribute overlap matrix:                 0.000     0.000   0.0% |
  Orbital Layouts:                           0.076     0.076   0.0% |
  Potential matrix:                          0.285     0.285   0.0% |
  Sum over cells:                            0.006     0.006   0.0% |
 LCAO to grid:                              18.724    18.724   0.1% |
 Set positions (LCAO WFS):                   0.656     0.167   0.0% |
  Basic WFS set positions:                   0.002     0.002   0.0% |
  Basis functions set positions:             0.000     0.000   0.0% |
  P tci:                                     0.336     0.336   0.0% |
  ST tci:                                    0.133     0.133   0.0% |
  mktci:                                     0.019     0.019   0.0% |
PWDescriptor:                                0.014     0.014   0.0% |
Redistribute:                                0.083     0.083   0.0% |
SCF-cycle:                                2852.647     0.412   0.0% |
 Davidson:                                1695.835   316.006   1.5% ||
  Apply H:                                 294.623   291.569   1.4% ||
   HMM T:                                    3.054     3.054   0.0% |
  Subspace diag:                           341.782     0.148   0.0% |
   calc_h_matrix:                          317.220    19.318   0.1% |
    Apply H:                               297.902   293.893   1.4% ||
     HMM T:                                  4.009     4.009   0.0% |
   diagonalize:                              0.758     0.758   0.0% |
   rotate_psi:                              23.656    23.656   0.1% |
  calc. matrices:                          690.873    94.758   0.4% |
   Apply H:                                596.114   590.091   2.8% ||
    HMM T:                                   6.023     6.023   0.0% |
  diagonalize:                               5.757     5.757   0.0% |
  rotate_psi:                               46.795    46.795   0.2% |
 Density:                                  408.021     0.006   0.0% |
  Atomic density matrices:                   1.336     1.336   0.0% |
  Mix:                                     261.703   261.703   1.2% |
  Multipole moments:                         0.296     0.296   0.0% |
  Pseudo density:                          144.680   144.673   0.7% |
   Symmetrize density:                       0.007     0.007   0.0% |
 Hamiltonian:                              736.240     1.824   0.0% |
  Atomic:                                  315.793     1.234   0.0% |
   XC Correction:                          314.558   314.558   1.5% ||
  Calculate atomic Hamiltonians:           287.141   287.141   1.3% ||
  Communicate:                               0.003     0.003   0.0% |
  Poisson:                                   1.146     1.146   0.0% |
  XC 3D grid:                              130.334   130.334   0.6% |
 Orthonormalize:                            12.139     0.016   0.0% |
  calc_s_matrix:                             0.766     0.766   0.0% |
  inverse-cholesky:                          0.029     0.029   0.0% |
  projections:                               7.205     7.205   0.0% |
  rotate_psi_s:                              4.124     4.124   0.0% |
Set symmetry:                                0.000     0.000   0.0% |
Other:                                   18139.359 18139.359  85.3% |---------------------------------|
-------------------------------------------------------------------
Total:                                             21276.730 100.0%

Memory usage: 4.13 GiB
Date: Tue Nov 25 00:17:01 2025
