
  ___ ___ ___ _ _ _  
 |   |   |_  | | | | 
 | | | | | . | | | | 
 |__ |  _|___|_____|  25.7.0
 |___|_|             

User:   tew@Mathuss-MacBook-Air-357.local
Date:   Tue Nov 25 00:14:31 2025
Arch:   arm64
Pid:    76608
CWD:    /Users/tew/Documents/Project/GitHub/chem-com
Python: 3.13.5
gpaw:   /Users/tew/Documents/Project/GitHub/chem-com/.venv/lib/python3.13/site-packages/gpaw
_gpaw:  /Users/tew/Documents/Project/GitHub/chem-com/.venv/lib/python3.13/site-packages/
        _gpaw.cpython-313-darwin.so
ase:    /Users/tew/Documents/Project/GitHub/chem-com/.venv/lib/python3.13/site-packages/ase (version 3.26.0)
numpy:  /Users/tew/Documents/Project/GitHub/chem-com/.venv/lib/python3.13/site-packages/numpy (version 2.3.5)
scipy:  /Users/tew/Documents/Project/GitHub/chem-com/.venv/lib/python3.13/site-packages/scipy (version 1.16.3)
libxc:  2.x.y
units:  Angstrom and eV
cores: 1
OpenMP: False
OMP_NUM_THREADS: 1

Input parameters:
  convergence: {density: 0.0001,
                eigenstates: 5e-06}
  kpts: [2 2 1]
  mode: {ecut: 200.0,
         name: pw}
  xc: PBE

System changes: positions, numbers, cell, pbc, initial_charges, initial_magmoms 

Initialize ...

species:
  Li:
    name: Lithium
    id: 830b4218f175192f93f959cfc0aad614
    Z: 3.0
    valence: 1
    core: 2
    charge: 0.0
    file: /Users/tew/Documents/Project/GitHub/chem-com/.venv/lib/python3.13/site-packages/gpaw_data/setups/Li.PBE.gz
    compensation charges: {type: gauss,
                           rc: 0.33,
                           lmax: 2}
    cutoffs: {filter: 1.91,
              core: 2.55}
    projectors:
      #              energy  rcut
      - 2s(1.00)    -2.874   1.058
      - 2p(0.00)    -1.090   1.058
      -  s          24.337   1.058
  
    # Using partial waves for Li as LCAO basis

Reference energy: -14803.510878  # eV

Spin-paired calculation

Convergence criteria:
 Maximum [total energy] change in last 3 cyles: 0.0005 eV / valence electron
 Maximum integral of absolute [dens]ity change: 0.0001 electrons / valence electron
 Maximum integral of absolute [eigenst]ate change: 5e-06 eV^2 / valence electron
 Maximum number of scf [iter]ations: 333
 (Square brackets indicate name in SCF output, whereas a 'c' in
 the SCF output indicates the quantity has converged.)

Symmetries present (total): 1

  ( 1  0  0)
  ( 0  1  0)
  ( 0  0  1)

4 k-points: 2 x 2 x 1 Monkhorst-Pack grid
2 k-points in the irreducible part of the Brillouin zone
       k-points in crystal coordinates                weights
   0:     0.25000000   -0.25000000    0.00000000          2/4
   1:     0.25000000    0.25000000    0.00000000          2/4

Wave functions: Plane wave expansion
  Cutoff energy: 200.000 eV
  Number of coefficients (min, max): 22683, 22683
  Pulay-stress correction: 0.000000 eV/Ang^3 (de/decut=0.000000)
  Using Numpy's FFT
  ScaLapack parameters: grid=1x1, blocksize=None
  Wavefunction extrapolation:
    Improved wavefunction reuse through dual PAW basis 

Occupation numbers: Fermi-Dirac:
  width: 0.1000  # eV
 

Eigensolver
   Davidson(niter=2) 

Densities:
  Coarse grid: 35*35*108 grid
  Fine grid: 70*70*216 grid
  Total Charge: 0.000000 

Density mixing:
  Method: separate
  Backend: pulay
  Linear mixing parameter: 0.05
  old densities: 5
  Damping of long wavelength oscillations: 50 

Hamiltonian:
  XC and Coulomb potentials evaluated on a 70*70*216 grid
  Using the PBE Exchange-Correlation functional
  External potential:
    NoExternalPotential
 

XC parameters: PBE with 2 nearest neighbor stencil

Memory estimate:
  Process memory now: 4231.58 MiB
  Calculator: 138.59 MiB
    Density: 60.32 MiB
      Arrays: 26.24 MiB
      Localized functions: 23.99 MiB
      Mixer: 10.09 MiB
    Hamiltonian: 17.65 MiB
      Arrays: 17.16 MiB
      XC: 0.00 MiB
      Poisson: 0.00 MiB
      vbar: 0.49 MiB
    Wavefunctions: 60.62 MiB
      Arrays psit_nG: 33.23 MiB
      Eigensolver: 18.70 MiB
      Projections: 0.53 MiB
      Projectors: 2.42 MiB
      PW-descriptor: 5.74 MiB

Total number of cores used: 1

Number of atoms: 73
Number of atomic orbitals: 292
Number of bands in calculation: 48
Number of valence electrons: 73
Bands to converge: occupied

... initialized

Initializing position-dependent things.

Density initialized from atomic densities
Creating initial wave functions:
  48 bands from LCAO basis set

       .-------------------------.  
      /|                         |  
     / |                         |  
    /  |                         |  
   /   |                         |  
  /    |                         |  
 *     |                         |  
 |     |                         |  
 |     |                         |  
 |     |                         |  
 |     |                         |  
 |     |                         |  
 |     |                         |  
 |     |  Li       Li       Li   |  
 |     |                         |  
 |     Li       LLi       Li     Li 
 |     |Li                       |  
 |   Li|      Li      LiLi       |  
 |    Li  Li       Li      Li    |  
 |     |    Li  Li  Li       Li  Li 
 |     |Li       Li       Li     |  
 |   Li|      Li  Li  Li         |  
 |    Li  Li   Li  Li   Li  Li   |  
 |     |    Li      Li       Li  |  
 |     |Li       Li       Li     |  
 |   Li|      Li  Li  Li         |  
 |    Li  Li   Li  Li   Li  Li   |  
 | Li  |    Li      Li           |  
 |     |Li       Li       Li     |  
 Li    |  Li      Li             |  
 |   LLi      LLi     LiLi       |  
 |     |                         |  
 | Li  |    Li      Li           |  
 |     |                         |  
 Li    |  Li      Li             |  
 |     |                         |  
 |     |                         |  
 |     |                         |  
 |     |                         |  
 |     |                         |  
 |     .-------------------------.  
 |    /                         /   
 |   /                         /    
 |  /                         /     
 | /                         /      
 |/                         /       
 *-------------------------*        

Atomic positions and initial magnetic moments

Positions:
   0 Li     0.000000    0.000000   10.000000    ( 0.0000,  0.0000,  0.0000)
   1 Li     1.745000    1.745000   11.745000    ( 0.0000,  0.0000,  0.0000)
   2 Li     0.000000    0.000000   13.490000    ( 0.0000,  0.0000,  0.0000)
   3 Li     1.745000    1.745000   15.235000    ( 0.0000,  0.0000,  0.0000)
   4 Li    -0.009667   -0.018316   16.925002    ( 0.0000,  0.0000,  0.0000)
   5 Li     1.744997    1.754425   18.562171    ( 0.0000,  0.0000,  0.0000)
   6 Li    -0.059983   -0.083529   20.377222    ( 0.0000,  0.0000,  0.0000)
   7 Li     1.745003    1.875877   21.709357    ( 0.0000,  0.0000,  0.0000)
   8 Li     0.000000    3.490000   10.000000    ( 0.0000,  0.0000,  0.0000)
   9 Li     1.745000    5.235000   11.745000    ( 0.0000,  0.0000,  0.0000)
  10 Li     0.000000    3.490000   13.490000    ( 0.0000,  0.0000,  0.0000)
  11 Li     1.745000    5.235000   15.235000    ( 0.0000,  0.0000,  0.0000)
  12 Li    -0.027458    3.499158   16.914372    ( 0.0000,  0.0000,  0.0000)
  13 Li     1.744995    5.216132   18.602538    ( 0.0000,  0.0000,  0.0000)
  14 Li    -0.125259    3.531792   20.323022    ( 0.0000,  0.0000,  0.0000)
  15 Li     1.744996    4.973277   22.021908    ( 0.0000,  0.0000,  0.0000)
  16 Li     0.000000    6.980000   10.000000    ( 0.0000,  0.0000,  0.0000)
  17 Li     1.745000    8.725000   11.745000    ( 0.0000,  0.0000,  0.0000)
  18 Li     0.000000    6.980000   13.490000    ( 0.0000,  0.0000,  0.0000)
  19 Li     1.745000    8.725000   15.235000    ( 0.0000,  0.0000,  0.0000)
  20 Li     0.008145    6.989153   16.935763    ( 0.0000,  0.0000,  0.0000)
  21 Li     1.744994    8.734430   18.642956    ( 0.0000,  0.0000,  0.0000)
  22 Li     0.005347    7.021731   20.431503    ( 0.0000,  0.0000,  0.0000)
  23 Li     1.744990    8.855863   22.334308    ( 0.0000,  0.0000,  0.0000)
  24 Li     3.490000    0.000000   10.000000    ( 0.0000,  0.0000,  0.0000)
  25 Li     5.235000    1.745000   11.745000    ( 0.0000,  0.0000,  0.0000)
  26 Li     3.490000    0.000000   13.490000    ( 0.0000,  0.0000,  0.0000)
  27 Li     5.235000    1.745000   15.235000    ( 0.0000,  0.0000,  0.0000)
  28 Li     3.499660   -0.018312   16.925004    ( 0.0000,  0.0000,  0.0000)
  29 Li     5.240208    1.720922   18.635253    ( 0.0000,  0.0000,  0.0000)
  30 Li     3.549974   -0.083530   20.377217    ( 0.0000,  0.0000,  0.0000)
  31 Li     4.976723    1.741544   22.318378    ( 0.0000,  0.0000,  0.0000)
  32 Li     3.490000    3.490000   10.000000    ( 0.0000,  0.0000,  0.0000)
  33 Li     5.235000    5.235000   11.745000    ( 0.0000,  0.0000,  0.0000)
  34 Li     3.490000    3.490000   13.490000    ( 0.0000,  0.0000,  0.0000)
  35 Li     5.235000    5.235000   15.235000    ( 0.0000,  0.0000,  0.0000)
  36 Li     3.517449    3.499157   16.914374    ( 0.0000,  0.0000,  0.0000)
  37 Li     5.273748    5.283179   18.627445    ( 0.0000,  0.0000,  0.0000)
  38 Li     3.615249    3.531793   20.323017    ( 0.0000,  0.0000,  0.0000)
  39 Li     5.111014    5.241883   22.302315    ( 0.0000,  0.0000,  0.0000)
  40 Li     3.490000    6.980000   10.000000    ( 0.0000,  0.0000,  0.0000)
  41 Li     5.235000    8.725000   11.745000    ( 0.0000,  0.0000,  0.0000)
  42 Li     3.490000    6.980000   13.490000    ( 0.0000,  0.0000,  0.0000)
  43 Li     5.235000    8.725000   15.235000    ( 0.0000,  0.0000,  0.0000)
  44 Li     3.481857    6.989151   16.935774    ( 0.0000,  0.0000,  0.0000)
  45 Li     5.307266    8.700904   18.619752    ( 0.0000,  0.0000,  0.0000)
  46 Li     3.484648    7.021731   20.431502    ( 0.0000,  0.0000,  0.0000)
  47 Li     5.245328    8.721552   22.286390    ( 0.0000,  0.0000,  0.0000)
  48 Li     6.980000    0.000000   10.000000    ( 0.0000,  0.0000,  0.0000)
  49 Li     8.725000    1.745000   11.745000    ( 0.0000,  0.0000,  0.0000)
  50 Li     6.980000    0.000000   13.490000    ( 0.0000,  0.0000,  0.0000)
  51 Li     8.725000    1.745000   15.235000    ( 0.0000,  0.0000,  0.0000)
  52 Li     6.980004    0.017291   16.901190    ( 0.0000,  0.0000,  0.0000)
  53 Li     8.719784    1.720917   18.635257    ( 0.0000,  0.0000,  0.0000)
  54 Li     6.980002    0.047076   20.484914    ( 0.0000,  0.0000,  0.0000)
  55 Li     8.983283    1.741544   22.318382    ( 0.0000,  0.0000,  0.0000)
  56 Li     6.980000    3.490000   10.000000    ( 0.0000,  0.0000,  0.0000)
  57 Li     8.725000    5.235000   11.745000    ( 0.0000,  0.0000,  0.0000)
  58 Li     6.980000    3.490000   13.490000    ( 0.0000,  0.0000,  0.0000)
  59 Li     8.725000    5.235000   15.235000    ( 0.0000,  0.0000,  0.0000)
  60 Li     6.980004    3.481359   16.946403    ( 0.0000,  0.0000,  0.0000)
  61 Li     8.686257    5.283191   18.627445    ( 0.0000,  0.0000,  0.0000)
  62 Li     6.980001    3.466465   20.485694    ( 0.0000,  0.0000,  0.0000)
  63 Li     8.848976    5.241882   22.302319    ( 0.0000,  0.0000,  0.0000)
  64 Li     6.980000    6.980000   10.000000    ( 0.0000,  0.0000,  0.0000)
  65 Li     8.725000    8.725000   11.745000    ( 0.0000,  0.0000,  0.0000)
  66 Li     6.980000    6.980000   13.490000    ( 0.0000,  0.0000,  0.0000)
  67 Li     8.725000    8.725000   15.235000    ( 0.0000,  0.0000,  0.0000)
  68 Li     6.980005    6.971359   16.856198    ( 0.0000,  0.0000,  0.0000)
  69 Li     8.652746    8.700896   18.619749    ( 0.0000,  0.0000,  0.0000)
  70 Li     6.980001    6.956458   20.484097    ( 0.0000,  0.0000,  0.0000)
  71 Li     8.714655    8.721555   22.286393    ( 0.0000,  0.0000,  0.0000)
  72 Li     1.745000    2.908334   23.980759    ( 0.0000,  0.0000,  0.0000)

Unit cell:
           periodic     x           y           z      points  spacing
  1. axis:    yes   10.470000    0.000000    0.000000    35     0.2991
  2. axis:    yes    0.000000   10.470000    0.000000    35     0.2991
  3. axis:    no     0.000000    0.000000   32.215000   108     0.2983

  Lengths:  10.470000  10.470000  32.215000
  Angles:   90.000000  90.000000  90.000000

Effective grid spacing dv^(1/3) = 0.2989

     iter     time        total  log10-change:
                         energy   eigst   dens
iter:   1 00:17:18  -137.459334
iter:   2 00:17:24  -133.157673   -0.74  -0.65
iter:   3 00:17:29  -132.769136   -1.23  -0.86
iter:   4 00:17:32  -132.798903   -1.57  -0.90
iter:   5 00:17:37  -131.827735   -1.76  -0.89
iter:   6 00:17:41  -132.057480   -1.39  -1.09
iter:   7 00:17:45  -131.487785   -2.25  -1.07
iter:   8 00:17:49  -131.514387   -1.57  -1.24
iter:   9 00:17:53  -131.314901   -2.60  -1.32
iter:  10 00:17:57  -131.318347   -2.80  -1.55
iter:  11 00:18:01  -131.319530c  -2.96  -1.58
iter:  12 00:18:04  -131.308130c  -3.18  -1.61
iter:  13 00:18:08  -131.327904c  -2.90  -1.71
iter:  14 00:18:12  -131.309388c  -3.68  -1.75
iter:  15 00:18:16  -131.303021c  -3.39  -1.95
iter:  16 00:18:21  -131.301271c  -3.59  -2.19
iter:  17 00:18:25  -131.296465c  -4.19  -2.11
iter:  18 00:18:28  -131.295678c  -4.00  -2.27
iter:  19 00:18:32  -131.296746c  -4.41  -2.72
iter:  20 00:18:36  -131.295751c  -4.79  -2.73
iter:  21 00:18:40  -131.295663c  -5.32c -2.94
iter:  22 00:18:44  -131.295634c  -4.97  -3.00
iter:  23 00:18:47  -131.295222c  -4.96  -3.10
iter:  24 00:18:51  -131.295078c  -5.19  -3.12
iter:  25 00:18:55  -131.295087c  -5.15  -3.37
iter:  26 00:18:59  -131.295052c  -5.15  -3.51
iter:  27 00:19:03  -131.294923c  -5.31c -3.57
iter:  28 00:19:07  -131.294900c  -5.31c -3.60
iter:  29 00:19:12  -131.294828c  -5.67c -3.69
iter:  30 00:19:17  -131.294773c  -5.52c -3.86
iter:  31 00:19:22  -131.294749c  -5.46c -3.89
iter:  32 00:19:26  -131.294776c  -5.21  -3.93
iter:  33 00:19:30  -131.294727c  -5.53c -3.99
iter:  34 00:19:35  -131.294651c  -5.23  -4.18c
iter:  35 00:19:39  -131.294627c  -5.48c -4.23c

Converged after 35 iterations.

Dipole moment: (2.895522, 2.365765, 0.280053) |e|*Ang

Energy contributions relative to reference atoms: (reference = -14803.510878)

Kinetic:       +103.010985
Potential:      -92.478928
External:        +0.000000
XC:            -140.730525
Entropy (-ST):   -1.208901
Local:           -0.491708
SIC:             +0.000000
--------------------------
Free energy:   -131.899077
Extrapolated:  -131.294627

Showing all kpts
 Kpt  Band  Eigenvalues  Occupancy
  0    34     -1.58327    1.60871
  0    35     -1.57316    1.57594
  0    36     -1.38469    0.72154
  0    37     -1.34707    0.55847

  1    34     -1.58327    1.60871
  1    35     -1.57316    1.57594
  1    36     -1.38469    0.72154
  1    37     -1.34707    0.55848


Fermi level: -1.44189

Gap: 0.188 eV
Transition (v -> c):
  (s=0, k=0, n=35, [0.25, -0.25, 0.00]) -> (s=0, k=0, n=36, [0.25, -0.25, 0.00])
No difference between direct/indirect transitions

Forces in eV/Ang:
  0 Li    0.00080   -0.00214   -0.03181
  1 Li    0.00000    0.00106    0.06471
  2 Li    0.00106    0.00087    0.01456
  3 Li   -0.00000    0.00329   -0.00875
  4 Li   -0.00790   -0.00325    0.00526
  5 Li   -0.00000   -0.00668    0.06112
  6 Li    0.01146    0.00601   -0.04583
  7 Li   -0.00000   -0.30958   -0.32942
  8 Li   -0.00226   -0.00016   -0.03480
  9 Li    0.00000   -0.00009    0.06352
 10 Li    0.00002   -0.00044    0.00252
 11 Li    0.00000   -0.00582   -0.01666
 12 Li   -0.00534    0.00116    0.00478
 13 Li   -0.00000    0.00656    0.06725
 14 Li   -0.01027    0.00106   -0.02110
 15 Li    0.00000    0.23343   -0.04612
 16 Li    0.00276    0.00215   -0.03018
 17 Li    0.00000   -0.00095    0.05792
 18 Li    0.00089   -0.00016    0.02376
 19 Li    0.00000    0.00307   -0.03644
 20 Li   -0.00991    0.00172    0.00432
 21 Li    0.00000   -0.00298    0.00055
 22 Li    0.01515   -0.00475   -0.03998
 23 Li    0.00000    0.02022   -0.03249
 24 Li   -0.00080   -0.00214   -0.03182
 25 Li    0.00087    0.00208    0.06055
 26 Li   -0.00107    0.00087    0.01456
 27 Li   -0.00582    0.00124   -0.03589
 28 Li    0.00791   -0.00326    0.00526
 29 Li    0.01263   -0.00699    0.01058
 30 Li   -0.01145    0.00601   -0.04583
 31 Li   -0.01465    0.02656    0.01286
 32 Li    0.00226   -0.00016   -0.03480
 33 Li   -0.00028   -0.00251    0.05998
 34 Li   -0.00002   -0.00044    0.00252
 35 Li   -0.00337   -0.00188   -0.04169
 36 Li    0.00535    0.00117    0.00478
 37 Li    0.01035    0.00644    0.01200
 38 Li    0.01027    0.00106   -0.02109
 39 Li    0.00281   -0.02976    0.01200
 40 Li   -0.00276    0.00215   -0.03018
 41 Li   -0.00242    0.00061    0.05747
 42 Li   -0.00089   -0.00016    0.02376
 43 Li   -0.00126    0.00069   -0.04961
 44 Li    0.00991    0.00172    0.00432
 45 Li   -0.00459    0.00002    0.01623
 46 Li   -0.01515   -0.00474   -0.03998
 47 Li    0.00599    0.00056   -0.02288
 48 Li    0.00000    0.00349   -0.02975
 49 Li   -0.00087    0.00208    0.06055
 50 Li    0.00000    0.00209    0.02221
 51 Li    0.00582    0.00124   -0.03589
 52 Li   -0.00000   -0.00660    0.01350
 53 Li   -0.01262   -0.00698    0.01058
 54 Li   -0.00000    0.01264   -0.00138
 55 Li    0.01465    0.02656    0.01286
 56 Li   -0.00000   -0.00191   -0.02941
 57 Li    0.00028   -0.00251    0.05998
 58 Li    0.00000   -0.00028    0.03123
 59 Li    0.00337   -0.00188   -0.04170
 60 Li   -0.00000    0.00366    0.00739
 61 Li   -0.01035    0.00643    0.01200
 62 Li   -0.00000    0.00166   -0.02225
 63 Li   -0.00280   -0.02976    0.01200
 64 Li    0.00000   -0.00172   -0.03021
 65 Li    0.00242    0.00061    0.05747
 66 Li    0.00000   -0.00137    0.01325
 67 Li    0.00126    0.00069   -0.04962
 68 Li   -0.00001    0.00259    0.02444
 69 Li    0.00459    0.00003    0.01623
 70 Li   -0.00000   -0.01628    0.00836
 71 Li   -0.00598    0.00056   -0.02288
 72 Li   -0.00000    0.06225    0.26177

System changes: positions 

Initializing position-dependent things.

Density initialized from wave functions
       .-------------------------.  
      /|                         |  
     / |                         |  
    /  |                         |  
   /   |                         |  
  /    |                         |  
 *     |                         |  
 |     |                         |  
 |     |                         |  
 |     |                         |  
 |     |                         |  
 |     |                         |  
 |     |                         |  
 |     |  Li       Li       Li   |  
 |     |                         |  
 |     Li       LLi       Li     Li 
 |     |Li                       |  
 |   Li|      Li      LiLi       |  
 |    Li  Li       Li      Li    |  
 |     |    Li  Li  Li       Li  Li 
 |     |Li       Li       Li     |  
 |   Li|      Li  Li  Li         |  
 |    Li  Li   Li  Li   Li  Li   |  
 |     |    Li      Li       Li  |  
 |     |Li       Li       Li     |  
 |   Li|      Li  Li  Li         |  
 |    Li  Li   Li  Li   Li  Li   |  
 | Li  |    Li      Li           |  
 |     |Li       Li       Li     |  
 Li    |  Li      Li             |  
 |   LLi      LLi     LiLi       |  
 |     |                         |  
 | Li  |    Li      Li           |  
 |     |                         |  
 Li    |  Li      Li             |  
 |     |                         |  
 |     |                         |  
 |     |                         |  
 |     |                         |  
 |     |                         |  
 |     .-------------------------.  
 |    /                         /   
 |   /                         /    
 |  /                         /     
 | /                         /      
 |/                         /       
 *-------------------------*        

Atomic positions and initial magnetic moments

Positions:
   0 Li     0.000000    0.000000   10.000000    ( 0.0000,  0.0000,  0.0000)
   1 Li     1.745000    1.745000   11.745000    ( 0.0000,  0.0000,  0.0000)
   2 Li     0.000000    0.000000   13.490000    ( 0.0000,  0.0000,  0.0000)
   3 Li     1.745000    1.745000   15.235000    ( 0.0000,  0.0000,  0.0000)
   4 Li    -0.009742   -0.018346   16.925056    ( 0.0000,  0.0000,  0.0000)
   5 Li     1.744997    1.754360   18.562791    ( 0.0000,  0.0000,  0.0000)
   6 Li    -0.059855   -0.083460   20.376775    ( 0.0000,  0.0000,  0.0000)
   7 Li     1.745003    1.872808   21.706126    ( 0.0000,  0.0000,  0.0000)
   8 Li     0.000000    3.490000   10.000000    ( 0.0000,  0.0000,  0.0000)
   9 Li     1.745000    5.235000   11.745000    ( 0.0000,  0.0000,  0.0000)
  10 Li     0.000000    3.490000   13.490000    ( 0.0000,  0.0000,  0.0000)
  11 Li     1.745000    5.235000   15.235000    ( 0.0000,  0.0000,  0.0000)
  12 Li    -0.027511    3.499166   16.914420    ( 0.0000,  0.0000,  0.0000)
  13 Li     1.744995    5.216200   18.603202    ( 0.0000,  0.0000,  0.0000)
  14 Li    -0.125362    3.531786   20.322811    ( 0.0000,  0.0000,  0.0000)
  15 Li     1.744996    4.975637   22.021384    ( 0.0000,  0.0000,  0.0000)
  16 Li     0.000000    6.980000   10.000000    ( 0.0000,  0.0000,  0.0000)
  17 Li     1.745000    8.725000   11.745000    ( 0.0000,  0.0000,  0.0000)
  18 Li     0.000000    6.980000   13.490000    ( 0.0000,  0.0000,  0.0000)
  19 Li     1.745000    8.725000   15.235000    ( 0.0000,  0.0000,  0.0000)
  20 Li     0.008042    6.989172   16.935804    ( 0.0000,  0.0000,  0.0000)
  21 Li     1.744994    8.734396   18.642961    ( 0.0000,  0.0000,  0.0000)
  22 Li     0.005485    7.021692   20.431092    ( 0.0000,  0.0000,  0.0000)
  23 Li     1.744990    8.856012   22.333983    ( 0.0000,  0.0000,  0.0000)
  24 Li     3.490000    0.000000   10.000000    ( 0.0000,  0.0000,  0.0000)
  25 Li     5.235000    1.745000   11.745000    ( 0.0000,  0.0000,  0.0000)
  26 Li     3.490000    0.000000   13.490000    ( 0.0000,  0.0000,  0.0000)
  27 Li     5.235000    1.745000   15.235000    ( 0.0000,  0.0000,  0.0000)
  28 Li     3.499735   -0.018343   16.925059    ( 0.0000,  0.0000,  0.0000)
  29 Li     5.240341    1.720847   18.635357    ( 0.0000,  0.0000,  0.0000)
  30 Li     3.549846   -0.083462   20.376770    ( 0.0000,  0.0000,  0.0000)
  31 Li     4.976604    1.741809   22.318503    ( 0.0000,  0.0000,  0.0000)
  32 Li     3.490000    3.490000   10.000000    ( 0.0000,  0.0000,  0.0000)
  33 Li     5.235000    5.235000   11.745000    ( 0.0000,  0.0000,  0.0000)
  34 Li     3.490000    3.490000   13.490000    ( 0.0000,  0.0000,  0.0000)
  35 Li     5.235000    5.235000   15.235000    ( 0.0000,  0.0000,  0.0000)
  36 Li     3.517502    3.499165   16.914422    ( 0.0000,  0.0000,  0.0000)
  37 Li     5.273845    5.283239   18.627567    ( 0.0000,  0.0000,  0.0000)
  38 Li     3.615352    3.531787   20.322806    ( 0.0000,  0.0000,  0.0000)
  39 Li     5.111015    5.241584   22.302439    ( 0.0000,  0.0000,  0.0000)
  40 Li     3.490000    6.980000   10.000000    ( 0.0000,  0.0000,  0.0000)
  41 Li     5.235000    8.725000   11.745000    ( 0.0000,  0.0000,  0.0000)
  42 Li     3.490000    6.980000   13.490000    ( 0.0000,  0.0000,  0.0000)
  43 Li     5.235000    8.725000   15.235000    ( 0.0000,  0.0000,  0.0000)
  44 Li     3.481959    6.989170   16.935815    ( 0.0000,  0.0000,  0.0000)
  45 Li     5.307221    8.700914   18.619915    ( 0.0000,  0.0000,  0.0000)
  46 Li     3.484509    7.021692   20.431091    ( 0.0000,  0.0000,  0.0000)
  47 Li     5.245388    8.721559   22.286161    ( 0.0000,  0.0000,  0.0000)
  48 Li     6.980000    0.000000   10.000000    ( 0.0000,  0.0000,  0.0000)
  49 Li     8.725000    1.745000   11.745000    ( 0.0000,  0.0000,  0.0000)
  50 Li     6.980000    0.000000   13.490000    ( 0.0000,  0.0000,  0.0000)
  51 Li     8.725000    1.745000   15.235000    ( 0.0000,  0.0000,  0.0000)
  52 Li     6.980004    0.017223   16.901316    ( 0.0000,  0.0000,  0.0000)
  53 Li     8.719651    1.720842   18.635361    ( 0.0000,  0.0000,  0.0000)
  54 Li     6.980002    0.047198   20.484900    ( 0.0000,  0.0000,  0.0000)
  55 Li     8.983402    1.741809   22.318507    ( 0.0000,  0.0000,  0.0000)
  56 Li     6.980000    3.490000   10.000000    ( 0.0000,  0.0000,  0.0000)
  57 Li     8.725000    5.235000   11.745000    ( 0.0000,  0.0000,  0.0000)
  58 Li     6.980000    3.490000   13.490000    ( 0.0000,  0.0000,  0.0000)
  59 Li     8.725000    5.235000   15.235000    ( 0.0000,  0.0000,  0.0000)
  60 Li     6.980004    3.481399   16.946477    ( 0.0000,  0.0000,  0.0000)
  61 Li     8.686160    5.283250   18.627566    ( 0.0000,  0.0000,  0.0000)
  62 Li     6.980001    3.466491   20.485472    ( 0.0000,  0.0000,  0.0000)
  63 Li     8.848975    5.241583   22.302442    ( 0.0000,  0.0000,  0.0000)
  64 Li     6.980000    6.980000   10.000000    ( 0.0000,  0.0000,  0.0000)
  65 Li     8.725000    8.725000   11.745000    ( 0.0000,  0.0000,  0.0000)
  66 Li     6.980000    6.980000   13.490000    ( 0.0000,  0.0000,  0.0000)
  67 Li     8.725000    8.725000   15.235000    ( 0.0000,  0.0000,  0.0000)
  68 Li     6.980005    6.971383   16.856452    ( 0.0000,  0.0000,  0.0000)
  69 Li     8.652792    8.700906   18.619911    ( 0.0000,  0.0000,  0.0000)
  70 Li     6.980001    6.956290   20.484181    ( 0.0000,  0.0000,  0.0000)
  71 Li     8.714595    8.721562   22.286164    ( 0.0000,  0.0000,  0.0000)
  72 Li     1.745000    2.909192   23.983377    ( 0.0000,  0.0000,  0.0000)

Unit cell:
           periodic     x           y           z      points  spacing
  1. axis:    yes   10.470000    0.000000    0.000000    35     0.2991
  2. axis:    yes    0.000000   10.470000    0.000000    35     0.2991
  3. axis:    no     0.000000    0.000000   32.215000   108     0.2983

  Lengths:  10.470000  10.470000  32.215000
  Angles:   90.000000  90.000000  90.000000

Effective grid spacing dv^(1/3) = 0.2989

     iter     time        total  log10-change:
                         energy   eigst   dens
iter:   1 00:32:14  -131.298274   -4.68
iter:   2 00:32:17  -131.298573   -4.91  -2.71
iter:   3 00:32:21  -131.298456c  -5.02  -2.80
iter:   4 00:32:24  -131.298184c  -5.27  -2.86
iter:   5 00:32:28  -131.297822c  -5.26  -3.25
iter:   6 00:32:31  -131.297987c  -5.46c -3.47
iter:   7 00:32:34  -131.298010c  -5.87c -3.52
iter:   8 00:32:38  -131.297857c  -5.54c -3.61
iter:   9 00:32:41  -131.297861c  -6.38c -4.03c

Converged after 9 iterations.

Dipole moment: (2.895529, 2.362262, 0.280783) |e|*Ang

Energy contributions relative to reference atoms: (reference = -14803.510878)

Kinetic:       +102.990729
Potential:      -92.470392
External:        +0.000000
XC:            -140.724813
Entropy (-ST):   -1.209941
Local:           -0.488414
SIC:             +0.000000
--------------------------
Free energy:   -131.902831
Extrapolated:  -131.297861

Showing all kpts
 Kpt  Band  Eigenvalues  Occupancy
  0    34     -1.58315    1.60840
  0    35     -1.57302    1.57549
  0    36     -1.38479    0.72209
  0    37     -1.34706    0.55849

  1    34     -1.58315    1.60840
  1    35     -1.57302    1.57549
  1    36     -1.38479    0.72209
  1    37     -1.34706    0.55849


Fermi level: -1.44188

Gap: 0.188 eV
Transition (v -> c):
  (s=0, k=0, n=35, [0.25, -0.25, 0.00]) -> (s=0, k=0, n=36, [0.25, -0.25, 0.00])
No difference between direct/indirect transitions

Forces in eV/Ang:
  0 Li    0.00078   -0.00216   -0.03204
  1 Li    0.00000    0.00098    0.06451
  2 Li    0.00107    0.00087    0.01467
  3 Li   -0.00000    0.00328   -0.00883
  4 Li   -0.00793   -0.00329    0.00484
  5 Li   -0.00000   -0.00676    0.05989
  6 Li    0.01041    0.00564   -0.04603
  7 Li   -0.00000   -0.30165   -0.31628
  8 Li   -0.00231   -0.00016   -0.03499
  9 Li    0.00000   -0.00006    0.06342
 10 Li    0.00011   -0.00047    0.00271
 11 Li    0.00000   -0.00579   -0.01648
 12 Li   -0.00524    0.00127    0.00452
 13 Li   -0.00000    0.00666    0.06637
 14 Li   -0.00972    0.00132   -0.02083
 15 Li    0.00000    0.22910   -0.04455
 16 Li    0.00270    0.00219   -0.03041
 17 Li    0.00000   -0.00091    0.05772
 18 Li    0.00082   -0.00013    0.02389
 19 Li    0.00000    0.00307   -0.03626
 20 Li   -0.00975    0.00166    0.00418
 21 Li    0.00000   -0.00267    0.00045
 22 Li    0.01475   -0.00516   -0.03933
 23 Li    0.00000    0.01979   -0.03233
 24 Li   -0.00078   -0.00216   -0.03204
 25 Li    0.00086    0.00205    0.06041
 26 Li   -0.00107    0.00087    0.01466
 27 Li   -0.00586    0.00118   -0.03569
 28 Li    0.00793   -0.00330    0.00484
 29 Li    0.01229   -0.00682    0.01056
 30 Li   -0.01040    0.00564   -0.04602
 31 Li   -0.01399    0.02584    0.01278
 32 Li    0.00230   -0.00016   -0.03499
 33 Li   -0.00029   -0.00250    0.05982
 34 Li   -0.00011   -0.00047    0.00271
 35 Li   -0.00347   -0.00186   -0.04155
 36 Li    0.00525    0.00127    0.00452
 37 Li    0.01021    0.00644    0.01179
 38 Li    0.00972    0.00132   -0.02082
 39 Li    0.00310   -0.02909    0.01221
 40 Li   -0.00270    0.00219   -0.03042
 41 Li   -0.00241    0.00063    0.05745
 42 Li   -0.00082   -0.00013    0.02389
 43 Li   -0.00135    0.00073   -0.04940
 44 Li    0.00975    0.00166    0.00418
 45 Li   -0.00386   -0.00015    0.01564
 46 Li   -0.01475   -0.00516   -0.03934
 47 Li    0.00604    0.00052   -0.02238
 48 Li    0.00000    0.00355   -0.02993
 49 Li   -0.00086    0.00206    0.06041
 50 Li    0.00000    0.00198    0.02232
 51 Li    0.00586    0.00118   -0.03570
 52 Li   -0.00000   -0.00654    0.01329
 53 Li   -0.01228   -0.00681    0.01055
 54 Li   -0.00000    0.01258   -0.00105
 55 Li    0.01399    0.02584    0.01278
 56 Li   -0.00000   -0.00185   -0.02968
 57 Li    0.00029   -0.00250    0.05982
 58 Li    0.00000   -0.00025    0.03119
 59 Li    0.00347   -0.00186   -0.04156
 60 Li   -0.00000    0.00360    0.00726
 61 Li   -0.01021    0.00643    0.01179
 62 Li   -0.00000    0.00160   -0.02136
 63 Li   -0.00309   -0.02908    0.01221
 64 Li    0.00000   -0.00180   -0.03050
 65 Li    0.00241    0.00063    0.05745
 66 Li    0.00000   -0.00133    0.01333
 67 Li    0.00135    0.00073   -0.04940
 68 Li   -0.00001    0.00261    0.02410
 69 Li    0.00385   -0.00014    0.01564
 70 Li   -0.00000   -0.01613    0.00823
 71 Li   -0.00603    0.00052   -0.02238
 72 Li   -0.00000    0.05970    0.24959

System changes: positions 

Initializing position-dependent things.

Density initialized from wave functions
       .-------------------------.  
      /|                         |  
     / |                         |  
    /  |                         |  
   /   |                         |  
  /    |                         |  
 *     |                         |  
 |     |                         |  
 |     |                         |  
 |     |                         |  
 |     |                         |  
 |     |                         |  
 |     |                         |  
 |     |  Li       Li       Li   |  
 |     |                         |  
 |     Li       LLi       Li     Li 
 |     |Li                       |  
 |   Li|      Li      LiLi       |  
 |    Li  Li       Li      Li    |  
 |     |    Li  Li  Li       Li  Li 
 |     |Li       Li       Li     |  
 |   Li|      Li  Li  Li         |  
 |    Li  Li   Li  Li   Li  Li   |  
 |     |    Li      Li       Li  |  
 |     |Li       Li       Li     |  
 |   Li|      Li  Li  Li         |  
 |    Li  Li   Li  Li   Li  Li   |  
 | Li  |    Li      Li           |  
 |     |Li       Li       Li     |  
 Li    |  Li      Li             |  
 |   LLi      LLi     LiLi       |  
 |     |                         |  
 | Li  |    Li      Li           |  
 |     |                         |  
 Li    |  Li      Li             |  
 |     |                         |  
 |     |                         |  
 |     |                         |  
 |     |                         |  
 |     |                         |  
 |     .-------------------------.  
 |    /                         /   
 |   /                         /    
 |  /                         /     
 | /                         /      
 |/                         /       
 *-------------------------*        

Atomic positions and initial magnetic moments

Positions:
   0 Li     0.000000    0.000000   10.000000    ( 0.0000,  0.0000,  0.0000)
   1 Li     1.745000    1.745000   11.745000    ( 0.0000,  0.0000,  0.0000)
   2 Li     0.000000    0.000000   13.490000    ( 0.0000,  0.0000,  0.0000)
   3 Li     1.745000    1.745000   15.235000    ( 0.0000,  0.0000,  0.0000)
   4 Li    -0.009893   -0.018408   16.925161    ( 0.0000,  0.0000,  0.0000)
   5 Li     1.744997    1.754229   18.564018    ( 0.0000,  0.0000,  0.0000)
   6 Li    -0.059611   -0.083327   20.375876    ( 0.0000,  0.0000,  0.0000)
   7 Li     1.745003    1.866746   21.699797    ( 0.0000,  0.0000,  0.0000)
   8 Li     0.000000    3.490000   10.000000    ( 0.0000,  0.0000,  0.0000)
   9 Li     1.745000    5.235000   11.745000    ( 0.0000,  0.0000,  0.0000)
  10 Li     0.000000    3.490000   13.490000    ( 0.0000,  0.0000,  0.0000)
  11 Li     1.745000    5.235000   15.235000    ( 0.0000,  0.0000,  0.0000)
  12 Li    -0.027617    3.499183   16.914513    ( 0.0000,  0.0000,  0.0000)
  13 Li     1.744995    5.216336   18.604523    ( 0.0000,  0.0000,  0.0000)
  14 Li    -0.125562    3.531776   20.322392    ( 0.0000,  0.0000,  0.0000)
  15 Li     1.744996    4.980319   22.020352    ( 0.0000,  0.0000,  0.0000)
  16 Li     0.000000    6.980000   10.000000    ( 0.0000,  0.0000,  0.0000)
  17 Li     1.745000    8.725000   11.745000    ( 0.0000,  0.0000,  0.0000)
  18 Li     0.000000    6.980000   13.490000    ( 0.0000,  0.0000,  0.0000)
  19 Li     1.745000    8.725000   15.235000    ( 0.0000,  0.0000,  0.0000)
  20 Li     0.007838    6.989209   16.935884    ( 0.0000,  0.0000,  0.0000)
  21 Li     1.744994    8.734332   18.642971    ( 0.0000,  0.0000,  0.0000)
  22 Li     0.005758    7.021609   20.430277    ( 0.0000,  0.0000,  0.0000)
  23 Li     1.744990    8.856307   22.333334    ( 0.0000,  0.0000,  0.0000)
  24 Li     3.490000    0.000000   10.000000    ( 0.0000,  0.0000,  0.0000)
  25 Li     5.235000    1.745000   11.745000    ( 0.0000,  0.0000,  0.0000)
  26 Li     3.490000    0.000000   13.490000    ( 0.0000,  0.0000,  0.0000)
  27 Li     5.235000    1.745000   15.235000    ( 0.0000,  0.0000,  0.0000)
  28 Li     3.499887   -0.018405   16.925164    ( 0.0000,  0.0000,  0.0000)
  29 Li     5.240603    1.720699   18.635566    ( 0.0000,  0.0000,  0.0000)
  30 Li     3.549603   -0.083329   20.375871    ( 0.0000,  0.0000,  0.0000)
  31 Li     4.976371    1.742332   22.318754    ( 0.0000,  0.0000,  0.0000)
  32 Li     3.490000    3.490000   10.000000    ( 0.0000,  0.0000,  0.0000)
  33 Li     5.235000    5.235000   11.745000    ( 0.0000,  0.0000,  0.0000)
  34 Li     3.490000    3.490000   13.490000    ( 0.0000,  0.0000,  0.0000)
  35 Li     5.235000    5.235000   15.235000    ( 0.0000,  0.0000,  0.0000)
  36 Li     3.517608    3.499182   16.914515    ( 0.0000,  0.0000,  0.0000)
  37 Li     5.274037    5.283358   18.627808    ( 0.0000,  0.0000,  0.0000)
  38 Li     3.615552    3.531778   20.322387    ( 0.0000,  0.0000,  0.0000)
  39 Li     5.111021    5.240994   22.302688    ( 0.0000,  0.0000,  0.0000)
  40 Li     3.490000    6.980000   10.000000    ( 0.0000,  0.0000,  0.0000)
  41 Li     5.235000    8.725000   11.745000    ( 0.0000,  0.0000,  0.0000)
  42 Li     3.490000    6.980000   13.490000    ( 0.0000,  0.0000,  0.0000)
  43 Li     5.235000    8.725000   15.235000    ( 0.0000,  0.0000,  0.0000)
  44 Li     3.482163    6.989208   16.935896    ( 0.0000,  0.0000,  0.0000)
  45 Li     5.307137    8.700932   18.620233    ( 0.0000,  0.0000,  0.0000)
  46 Li     3.484236    7.021609   20.430275    ( 0.0000,  0.0000,  0.0000)
  47 Li     5.245509    8.721573   22.285708    ( 0.0000,  0.0000,  0.0000)
  48 Li     6.980000    0.000000   10.000000    ( 0.0000,  0.0000,  0.0000)
  49 Li     8.725000    1.745000   11.745000    ( 0.0000,  0.0000,  0.0000)
  50 Li     6.980000    0.000000   13.490000    ( 0.0000,  0.0000,  0.0000)
  51 Li     8.725000    1.745000   15.235000    ( 0.0000,  0.0000,  0.0000)
  52 Li     6.980004    0.017088   16.901565    ( 0.0000,  0.0000,  0.0000)
  53 Li     8.719389    1.720695   18.635570    ( 0.0000,  0.0000,  0.0000)
  54 Li     6.980002    0.047441   20.484876    ( 0.0000,  0.0000,  0.0000)
  55 Li     8.983635    1.742332   22.318758    ( 0.0000,  0.0000,  0.0000)
  56 Li     6.980000    3.490000   10.000000    ( 0.0000,  0.0000,  0.0000)
  57 Li     8.725000    5.235000   11.745000    ( 0.0000,  0.0000,  0.0000)
  58 Li     6.980000    3.490000   13.490000    ( 0.0000,  0.0000,  0.0000)
  59 Li     8.725000    5.235000   15.235000    ( 0.0000,  0.0000,  0.0000)
  60 Li     6.980004    3.481479   16.946624    ( 0.0000,  0.0000,  0.0000)
  61 Li     8.685968    5.283370   18.627808    ( 0.0000,  0.0000,  0.0000)
  62 Li     6.980001    3.466542   20.485036    ( 0.0000,  0.0000,  0.0000)
  63 Li     8.848970    5.240993   22.302691    ( 0.0000,  0.0000,  0.0000)
  64 Li     6.980000    6.980000   10.000000    ( 0.0000,  0.0000,  0.0000)
  65 Li     8.725000    8.725000   11.745000    ( 0.0000,  0.0000,  0.0000)
  66 Li     6.980000    6.980000   13.490000    ( 0.0000,  0.0000,  0.0000)
  67 Li     8.725000    8.725000   15.235000    ( 0.0000,  0.0000,  0.0000)
  68 Li     6.980005    6.971431   16.856955    ( 0.0000,  0.0000,  0.0000)
  69 Li     8.652875    8.700924   18.620230    ( 0.0000,  0.0000,  0.0000)
  70 Li     6.980001    6.955956   20.484347    ( 0.0000,  0.0000,  0.0000)
  71 Li     8.714475    8.721576   22.285711    ( 0.0000,  0.0000,  0.0000)
  72 Li     1.745000    2.910876   23.988487    ( 0.0000,  0.0000,  0.0000)

Unit cell:
           periodic     x           y           z      points  spacing
  1. axis:    yes   10.470000    0.000000    0.000000    35     0.2991
  2. axis:    yes    0.000000   10.470000    0.000000    35     0.2991
  3. axis:    no     0.000000    0.000000   32.215000   108     0.2983

  Lengths:  10.470000  10.470000  32.215000
  Angles:   90.000000  90.000000  90.000000

Effective grid spacing dv^(1/3) = 0.2989

     iter     time        total  log10-change:
                         energy   eigst   dens
iter:   1 00:35:58  -131.306219   -4.18
iter:   2 00:36:02  -131.305601   -4.72  -2.42
iter:   3 00:36:06  -131.305133c  -5.17  -2.70
iter:   4 00:36:10  -131.304874c  -5.02  -2.86
iter:   5 00:36:14  -131.304304c  -5.41c -2.73
iter:   6 00:36:18  -131.304723c  -5.44c -3.22
iter:   7 00:36:22  -131.304392c  -5.87c -3.17
iter:   8 00:36:25  -131.304300c  -6.05c -3.61
iter:   9 00:36:30  -131.304351c  -6.40c -3.77
iter:  10 00:36:33  -131.304351c  -6.47c -3.85
iter:  11 00:36:37  -131.304350c  -6.55c -3.89
iter:  12 00:36:41  -131.304345c  -6.82c -4.09c

Converged after 12 iterations.

Dipole moment: (2.895058, 2.353025, 0.282722) |e|*Ang

Energy contributions relative to reference atoms: (reference = -14803.510878)

Kinetic:       +102.950760
Potential:      -92.446933
External:        +0.000000
XC:            -140.714633
Entropy (-ST):   -1.210475
Local:           -0.488302
SIC:             +0.000000
--------------------------
Free energy:   -131.909582
Extrapolated:  -131.304345

Showing all kpts
 Kpt  Band  Eigenvalues  Occupancy
  0    34     -1.58276    1.60822
  0    35     -1.57261    1.57528
  0    36     -1.38465    0.72302
  0    37     -1.34693    0.55933

  1    34     -1.58276    1.60822
  1    35     -1.57261    1.57528
  1    36     -1.38465    0.72302
  1    37     -1.34693    0.55933


Fermi level: -1.44154

Gap: 0.188 eV
Transition (v -> c):
  (s=0, k=0, n=35, [0.25, -0.25, 0.00]) -> (s=0, k=0, n=36, [0.25, -0.25, 0.00])
No difference between direct/indirect transitions

Forces in eV/Ang:
  0 Li    0.00074   -0.00218   -0.03192
  1 Li    0.00000    0.00104    0.06431
  2 Li    0.00105    0.00091    0.01467
  3 Li   -0.00000    0.00323   -0.00829
  4 Li   -0.00753   -0.00314    0.00489
  5 Li   -0.00000   -0.00664    0.05563
  6 Li    0.00737    0.00321   -0.04663
  7 Li   -0.00000   -0.28536   -0.28999
  8 Li   -0.00239   -0.00011   -0.03482
  9 Li    0.00000   -0.00015    0.06326
 10 Li    0.00007   -0.00047    0.00273
 11 Li    0.00000   -0.00585   -0.01594
 12 Li   -0.00475    0.00120    0.00475
 13 Li    0.00000    0.00656    0.06409
 14 Li   -0.00898    0.00183   -0.01958
 15 Li    0.00000    0.21972   -0.04149
 16 Li    0.00256    0.00217   -0.03026
 17 Li    0.00000   -0.00088    0.05734
 18 Li    0.00072   -0.00020    0.02379
 19 Li    0.00000    0.00315   -0.03568
 20 Li   -0.00924    0.00162    0.00458
 21 Li    0.00000   -0.00237    0.00018
 22 Li    0.01322   -0.00430   -0.03878
 23 Li    0.00000    0.01906   -0.03280
 24 Li   -0.00075   -0.00218   -0.03193
 25 Li    0.00084    0.00209    0.06022
 26 Li   -0.00105    0.00091    0.01467
 27 Li   -0.00586    0.00122   -0.03536
 28 Li    0.00753   -0.00315    0.00489
 29 Li    0.01193   -0.00671    0.01036
 30 Li   -0.00736    0.00321   -0.04663
 31 Li   -0.01393    0.02497    0.01198
 32 Li    0.00239   -0.00010   -0.03482
 33 Li   -0.00024   -0.00250    0.05961
 34 Li   -0.00007   -0.00047    0.00273
 35 Li   -0.00336   -0.00186   -0.04139
 36 Li    0.00476    0.00120    0.00474
 37 Li    0.00999    0.00646    0.01159
 38 Li    0.00898    0.00183   -0.01958
 39 Li    0.00298   -0.02817    0.01172
 40 Li   -0.00256    0.00217   -0.03026
 41 Li   -0.00231    0.00057    0.05723
 42 Li   -0.00072   -0.00020    0.02379
 43 Li   -0.00131    0.00070   -0.04907
 44 Li    0.00924    0.00162    0.00457
 45 Li   -0.00336   -0.00024    0.01577
 46 Li   -0.01322   -0.00430   -0.03878
 47 Li    0.00581    0.00054   -0.02307
 48 Li    0.00000    0.00344   -0.02971
 49 Li   -0.00084    0.00209    0.06022
 50 Li    0.00000    0.00201    0.02212
 51 Li    0.00586    0.00122   -0.03536
 52 Li   -0.00000   -0.00639    0.01348
 53 Li   -0.01192   -0.00670    0.01035
 54 Li   -0.00000    0.01195   -0.00080
 55 Li    0.01393    0.02497    0.01198
 56 Li    0.00000   -0.00172   -0.02946
 57 Li    0.00023   -0.00250    0.05961
 58 Li    0.00000   -0.00016    0.03107
 59 Li    0.00336   -0.00186   -0.04140
 60 Li   -0.00000    0.00345    0.00723
 61 Li   -0.00999    0.00645    0.01159
 62 Li   -0.00000    0.00149   -0.02063
 63 Li   -0.00297   -0.02817    0.01172
 64 Li    0.00000   -0.00182   -0.03032
 65 Li    0.00230    0.00057    0.05723
 66 Li    0.00000   -0.00146    0.01320
 67 Li    0.00131    0.00070   -0.04908
 68 Li   -0.00001    0.00263    0.02379
 69 Li    0.00335   -0.00023    0.01577
 70 Li   -0.00000   -0.01536    0.00794
 71 Li   -0.00581    0.00054   -0.02307
 72 Li   -0.00000    0.05522    0.22564

System changes: positions 

Initializing position-dependent things.

Density initialized from wave functions
       .-------------------------.  
      /|                         |  
     / |                         |  
    /  |                         |  
   /   |                         |  
  /    |                         |  
 *     |                         |  
 |     |                         |  
 |     |                         |  
 |     |                         |  
 |     |                         |  
 |     |                         |  
 |     |                         |  
 |     |  Li       Li       Li   |  
 |     |                         |  
 |     Li       LLi       Li     Li 
 |     |Li                       |  
 |   Li|      Li      LiLi       |  
 |    Li  Li       Li      Li    |  
 |     |    Li  Li  Li       Li  Li 
 |     |Li       Li       Li     |  
 |   Li|      Li  Li  Li         |  
 |    Li  Li   Li  Li   Li  Li   |  
 |     |    Li      Li       Li  |  
 |     |Li       Li       Li     |  
 |   Li|      Li  Li  Li         |  
 |    Li  Li   Li  Li   Li  Li   |  
 | Li  |    Li      Li           |  
 |     |Li       Li       Li     |  
 Li    |  Li      Li             |  
 |   LLi      LLi     LiLi       |  
 |     |                         |  
 | Li  |    Li      Li           |  
 |     |                         |  
 Li    |  Li      Li             |  
 |     |                         |  
 |     |                         |  
 |     |                         |  
 |     |                         |  
 |     |                         |  
 |     .-------------------------.  
 |    /                         /   
 |   /                         /    
 |  /                         /     
 | /                         /      
 |/                         /       
 *-------------------------*        

Atomic positions and initial magnetic moments

Positions:
   0 Li     0.000000    0.000000   10.000000    ( 0.0000,  0.0000,  0.0000)
   1 Li     1.745000    1.745000   11.745000    ( 0.0000,  0.0000,  0.0000)
   2 Li     0.000000    0.000000   13.490000    ( 0.0000,  0.0000,  0.0000)
   3 Li     1.745000    1.745000   15.235000    ( 0.0000,  0.0000,  0.0000)
   4 Li    -0.010117   -0.018500   16.925318    ( 0.0000,  0.0000,  0.0000)
   5 Li     1.744997    1.754033   18.565808    ( 0.0000,  0.0000,  0.0000)
   6 Li    -0.059287   -0.083159   20.374512    ( 0.0000,  0.0000,  0.0000)
   7 Li     1.745003    1.857845   21.690643    ( 0.0000,  0.0000,  0.0000)
   8 Li     0.000000    3.490000   10.000000    ( 0.0000,  0.0000,  0.0000)
   9 Li     1.745000    5.235000   11.745000    ( 0.0000,  0.0000,  0.0000)
  10 Li     0.000000    3.490000   13.490000    ( 0.0000,  0.0000,  0.0000)
  11 Li     1.745000    5.235000   15.235000    ( 0.0000,  0.0000,  0.0000)
  12 Li    -0.027770    3.499209   16.914654    ( 0.0000,  0.0000,  0.0000)
  13 Li     1.744995    5.216541   18.606484    ( 0.0000,  0.0000,  0.0000)
  14 Li    -0.125850    3.531772   20.321776    ( 0.0000,  0.0000,  0.0000)
  15 Li     1.744996    4.987237   22.018846    ( 0.0000,  0.0000,  0.0000)
  16 Li     0.000000    6.980000   10.000000    ( 0.0000,  0.0000,  0.0000)
  17 Li     1.745000    8.725000   11.745000    ( 0.0000,  0.0000,  0.0000)
  18 Li     0.000000    6.980000   13.490000    ( 0.0000,  0.0000,  0.0000)
  19 Li     1.745000    8.725000   15.235000    ( 0.0000,  0.0000,  0.0000)
  20 Li     0.007538    6.989265   16.936010    ( 0.0000,  0.0000,  0.0000)
  21 Li     1.744994    8.734242   18.642982    ( 0.0000,  0.0000,  0.0000)
  22 Li     0.006150    7.021491   20.429059    ( 0.0000,  0.0000,  0.0000)
  23 Li     1.744990    8.856747   22.332351    ( 0.0000,  0.0000,  0.0000)
  24 Li     3.490000    0.000000   10.000000    ( 0.0000,  0.0000,  0.0000)
  25 Li     5.235000    1.745000   11.745000    ( 0.0000,  0.0000,  0.0000)
  26 Li     3.490000    0.000000   13.490000    ( 0.0000,  0.0000,  0.0000)
  27 Li     5.235000    1.745000   15.235000    ( 0.0000,  0.0000,  0.0000)
  28 Li     3.500111   -0.018497   16.925321    ( 0.0000,  0.0000,  0.0000)
  29 Li     5.240992    1.720479   18.635878    ( 0.0000,  0.0000,  0.0000)
  30 Li     3.549279   -0.083161   20.374507    ( 0.0000,  0.0000,  0.0000)
  31 Li     4.976022    1.743106   22.319121    ( 0.0000,  0.0000,  0.0000)
  32 Li     3.490000    3.490000   10.000000    ( 0.0000,  0.0000,  0.0000)
  33 Li     5.235000    5.235000   11.745000    ( 0.0000,  0.0000,  0.0000)
  34 Li     3.490000    3.490000   13.490000    ( 0.0000,  0.0000,  0.0000)
  35 Li     5.235000    5.235000   15.235000    ( 0.0000,  0.0000,  0.0000)
  36 Li     3.517761    3.499208   16.914656    ( 0.0000,  0.0000,  0.0000)
  37 Li     5.274324    5.283539   18.628168    ( 0.0000,  0.0000,  0.0000)
  38 Li     3.615841    3.531773   20.321771    ( 0.0000,  0.0000,  0.0000)
  39 Li     5.111032    5.240119   22.303058    ( 0.0000,  0.0000,  0.0000)
  40 Li     3.490000    6.980000   10.000000    ( 0.0000,  0.0000,  0.0000)
  41 Li     5.235000    8.725000   11.745000    ( 0.0000,  0.0000,  0.0000)
  42 Li     3.490000    6.980000   13.490000    ( 0.0000,  0.0000,  0.0000)
  43 Li     5.235000    8.725000   15.235000    ( 0.0000,  0.0000,  0.0000)
  44 Li     3.482463    6.989264   16.936022    ( 0.0000,  0.0000,  0.0000)
  45 Li     5.307020    8.700956   18.620712    ( 0.0000,  0.0000,  0.0000)
  46 Li     3.483844    7.021491   20.429057    ( 0.0000,  0.0000,  0.0000)
  47 Li     5.245688    8.721593   22.285020    ( 0.0000,  0.0000,  0.0000)
  48 Li     6.980000    0.000000   10.000000    ( 0.0000,  0.0000,  0.0000)
  49 Li     8.725000    1.745000   11.745000    ( 0.0000,  0.0000,  0.0000)
  50 Li     6.980000    0.000000   13.490000    ( 0.0000,  0.0000,  0.0000)
  51 Li     8.725000    1.745000   15.235000    ( 0.0000,  0.0000,  0.0000)
  52 Li     6.980004    0.016887   16.901945    ( 0.0000,  0.0000,  0.0000)
  53 Li     8.719000    1.720475   18.635882    ( 0.0000,  0.0000,  0.0000)
  54 Li     6.980002    0.047800   20.484844    ( 0.0000,  0.0000,  0.0000)
  55 Li     8.983984    1.743106   22.319126    ( 0.0000,  0.0000,  0.0000)
  56 Li     6.980000    3.490000   10.000000    ( 0.0000,  0.0000,  0.0000)
  57 Li     8.725000    5.235000   11.745000    ( 0.0000,  0.0000,  0.0000)
  58 Li     6.980000    3.490000   13.490000    ( 0.0000,  0.0000,  0.0000)
  59 Li     8.725000    5.235000   15.235000    ( 0.0000,  0.0000,  0.0000)
  60 Li     6.980004    3.481596   16.946844    ( 0.0000,  0.0000,  0.0000)
  61 Li     8.685680    5.283550   18.628167    ( 0.0000,  0.0000,  0.0000)
  62 Li     6.980001    3.466617   20.484392    ( 0.0000,  0.0000,  0.0000)
  63 Li     8.848959    5.240118   22.303062    ( 0.0000,  0.0000,  0.0000)
  64 Li     6.980000    6.980000   10.000000    ( 0.0000,  0.0000,  0.0000)
  65 Li     8.725000    8.725000   11.745000    ( 0.0000,  0.0000,  0.0000)
  66 Li     6.980000    6.980000   13.490000    ( 0.0000,  0.0000,  0.0000)
  67 Li     8.725000    8.725000   15.235000    ( 0.0000,  0.0000,  0.0000)
  68 Li     6.980005    6.971505   16.857708    ( 0.0000,  0.0000,  0.0000)
  69 Li     8.652992    8.700948   18.620709    ( 0.0000,  0.0000,  0.0000)
  70 Li     6.980001    6.955463   20.484594    ( 0.0000,  0.0000,  0.0000)
  71 Li     8.714296    8.721596   22.285023    ( 0.0000,  0.0000,  0.0000)
  72 Li     1.745000    2.913322   23.995832    ( 0.0000,  0.0000,  0.0000)

Unit cell:
           periodic     x           y           z      points  spacing
  1. axis:    yes   10.470000    0.000000    0.000000    35     0.2991
  2. axis:    yes    0.000000   10.470000    0.000000    35     0.2991
  3. axis:    no     0.000000    0.000000   32.215000   108     0.2983

  Lengths:  10.470000  10.470000  32.215000
  Angles:   90.000000  90.000000  90.000000

Effective grid spacing dv^(1/3) = 0.2989

     iter     time        total  log10-change:
                         energy   eigst   dens
iter:   1 00:39:59  -131.317701   -3.84
iter:   2 00:40:03  -131.317235   -4.14  -2.26
iter:   3 00:40:07  -131.315272c  -4.57  -2.24
iter:   4 00:40:11  -131.313885c  -5.14  -2.48
iter:   5 00:40:14  -131.312955c  -5.00  -2.82
iter:   6 00:40:18  -131.313662c  -5.27  -3.05
iter:   7 00:40:22  -131.313279c  -6.09c -2.95
iter:   8 00:40:26  -131.313059c  -5.95c -3.33
iter:   9 00:40:29  -131.313218c  -6.53c -3.59
iter:  10 00:40:33  -131.313193c  -6.74c -3.64
iter:  11 00:40:37  -131.313148c  -6.65c -3.70
iter:  12 00:40:40  -131.313107c  -6.81c -3.98
iter:  13 00:40:44  -131.313143c  -6.82c -3.87
iter:  14 00:40:48  -131.313143c  -7.08c -4.19c

Converged after 14 iterations.

Dipole moment: (2.895389, 2.340589, 0.285486) |e|*Ang

Energy contributions relative to reference atoms: (reference = -14803.510878)

Kinetic:       +102.891987
Potential:      -92.411802
External:        +0.000000
XC:            -140.699557
Entropy (-ST):   -1.210842
Local:           -0.488350
SIC:             +0.000000
--------------------------
Free energy:   -131.918564
Extrapolated:  -131.313143

Showing all kpts
 Kpt  Band  Eigenvalues  Occupancy
  0    34     -1.58234    1.60811
  0    35     -1.57218    1.57510
  0    36     -1.38461    0.72457
  0    37     -1.34682    0.56043

  1    34     -1.58234    1.60811
  1    35     -1.57218    1.57510
  1    36     -1.38461    0.72457
  1    37     -1.34682    0.56043


Fermi level: -1.44116

Gap: 0.188 eV
Transition (v -> c):
  (s=0, k=0, n=35, [0.25, -0.25, 0.00]) -> (s=0, k=0, n=36, [0.25, -0.25, 0.00])
No difference between direct/indirect transitions

Forces in eV/Ang:
  0 Li    0.00082   -0.00223   -0.03184
  1 Li    0.00000    0.00092    0.06401
  2 Li    0.00102    0.00082    0.01452
  3 Li   -0.00000    0.00308   -0.00784
  4 Li   -0.00698   -0.00277    0.00498
  5 Li   -0.00000   -0.00642    0.04970
  6 Li    0.00349   -0.00010   -0.04728
  7 Li   -0.00000   -0.26276   -0.25381
  8 Li   -0.00234   -0.00013   -0.03481
  9 Li    0.00000   -0.00008    0.06305
 10 Li    0.00006   -0.00047    0.00264
 11 Li    0.00000   -0.00575   -0.01548
 12 Li   -0.00416    0.00112    0.00543
 13 Li    0.00000    0.00626    0.06091
 14 Li   -0.00809    0.00243   -0.01779
 15 Li    0.00000    0.20698   -0.03737
 16 Li    0.00258    0.00226   -0.03016
 17 Li    0.00000   -0.00084    0.05706
 18 Li    0.00066   -0.00013    0.02359
 19 Li    0.00000    0.00315   -0.03550
 20 Li   -0.00860    0.00134    0.00490
 21 Li    0.00000   -0.00184    0.00013
 22 Li    0.01129   -0.00315   -0.03764
 23 Li    0.00000    0.01794   -0.03347
 24 Li   -0.00082   -0.00223   -0.03184
 25 Li    0.00080    0.00195    0.06002
 26 Li   -0.00102    0.00083    0.01452
 27 Li   -0.00571    0.00115   -0.03515
 28 Li    0.00698   -0.00277    0.00498
 29 Li    0.01137   -0.00612    0.01016
 30 Li   -0.00349   -0.00011   -0.04728
 31 Li   -0.01373    0.02398    0.01078
 32 Li    0.00234   -0.00013   -0.03481
 33 Li   -0.00025   -0.00238    0.05946
 34 Li   -0.00006   -0.00047    0.00264
 35 Li   -0.00314   -0.00171   -0.04127
 36 Li    0.00417    0.00113    0.00543
 37 Li    0.00979    0.00609    0.01137
 38 Li    0.00809    0.00243   -0.01778
 39 Li    0.00310   -0.02706    0.01097
 40 Li   -0.00258    0.00226   -0.03016
 41 Li   -0.00226    0.00058    0.05716
 42 Li   -0.00066   -0.00013    0.02359
 43 Li   -0.00110    0.00063   -0.04916
 44 Li    0.00860    0.00134    0.00489
 45 Li   -0.00290   -0.00044    0.01566
 46 Li   -0.01130   -0.00315   -0.03764
 47 Li    0.00487    0.00044   -0.02338
 48 Li    0.00000    0.00332   -0.02957
 49 Li   -0.00080    0.00195    0.06002
 50 Li    0.00000    0.00187    0.02192
 51 Li    0.00570    0.00115   -0.03515
 52 Li   -0.00000   -0.00602    0.01323
 53 Li   -0.01136   -0.00612    0.01016
 54 Li   -0.00000    0.01182   -0.00020
 55 Li    0.01372    0.02398    0.01078
 56 Li    0.00000   -0.00173   -0.02942
 57 Li    0.00025   -0.00238    0.05946
 58 Li    0.00000   -0.00013    0.03100
 59 Li    0.00314   -0.00171   -0.04128
 60 Li   -0.00000    0.00333    0.00731
 61 Li   -0.00979    0.00608    0.01137
 62 Li   -0.00000    0.00145   -0.01936
 63 Li   -0.00309   -0.02705    0.01097
 64 Li    0.00000   -0.00170   -0.03022
 65 Li    0.00226    0.00058    0.05716
 66 Li    0.00000   -0.00139    0.01321
 67 Li    0.00110    0.00063   -0.04916
 68 Li   -0.00001    0.00244    0.02285
 69 Li    0.00289   -0.00043    0.01566
 70 Li   -0.00000   -0.01514    0.00792
 71 Li   -0.00487    0.00044   -0.02338
 72 Li   -0.00000    0.04899    0.19316

System changes: positions 

Initializing position-dependent things.

Density initialized from wave functions
       .-------------------------.  
      /|                         |  
     / |                         |  
    /  |                         |  
   /   |                         |  
  /    |                         |  
 *     |                         |  
 |     |                         |  
 |     |                         |  
 |     |                         |  
 |     |                         |  
 |     |                         |  
 |     |                         |  
 |     |  Li       Li       Li   |  
 |     |                         |  
 |     Li       LLi       Li     Li 
 |     |Li                       |  
 |   Li|      Li      LiLi       |  
 |    Li  Li       Li      Li    |  
 |     |    Li  Li  Li       Li  Li 
 |     |Li       Li       Li     |  
 |   Li|      Li  Li  Li         |  
 |    Li  Li   Li  Li   Li  Li   |  
 |     |    Li      Li       Li  |  
 |     |Li       Li       Li     |  
 |   Li|      Li  Li  Li         |  
 |    Li  Li   Li  Li   Li  Li   |  
 | Li  |    Li      Li           |  
 |     |Li       Li       Li     |  
 Li    |  Li      Li             |  
 |   LLi      LLi     LiLi       |  
 |     |                         |  
 | Li  |    Li      Li           |  
 |     |                         |  
 Li    |  Li      Li             |  
 |     |                         |  
 |     |                         |  
 |     |                         |  
 |     |                         |  
 |     |                         |  
 |     .-------------------------.  
 |    /                         /   
 |   /                         /    
 |  /                         /     
 | /                         /      
 |/                         /       
 *-------------------------*        

Atomic positions and initial magnetic moments

Positions:
   0 Li     0.000000    0.000000   10.000000    ( 0.0000,  0.0000,  0.0000)
   1 Li     1.745000    1.745000   11.745000    ( 0.0000,  0.0000,  0.0000)
   2 Li     0.000000    0.000000   13.490000    ( 0.0000,  0.0000,  0.0000)
   3 Li     1.745000    1.745000   15.235000    ( 0.0000,  0.0000,  0.0000)
   4 Li    -0.010409   -0.018618   16.925528    ( 0.0000,  0.0000,  0.0000)
   5 Li     1.744997    1.753771   18.568100    ( 0.0000,  0.0000,  0.0000)
   6 Li    -0.058934   -0.083000   20.372657    ( 0.0000,  0.0000,  0.0000)
   7 Li     1.745002    1.846316   21.679049    ( 0.0000,  0.0000,  0.0000)
   8 Li     0.000000    3.490000   10.000000    ( 0.0000,  0.0000,  0.0000)
   9 Li     1.745000    5.235000   11.745000    ( 0.0000,  0.0000,  0.0000)
  10 Li     0.000000    3.490000   13.490000    ( 0.0000,  0.0000,  0.0000)
  11 Li     1.745000    5.235000   15.235000    ( 0.0000,  0.0000,  0.0000)
  12 Li    -0.027964    3.499243   16.914855    ( 0.0000,  0.0000,  0.0000)
  13 Li     1.744995    5.216811   18.609062    ( 0.0000,  0.0000,  0.0000)
  14 Li    -0.126220    3.531782   20.320981    ( 0.0000,  0.0000,  0.0000)
  15 Li     1.744996    4.996289   22.016914    ( 0.0000,  0.0000,  0.0000)
  16 Li     0.000000    6.980000   10.000000    ( 0.0000,  0.0000,  0.0000)
  17 Li     1.745000    8.725000   11.745000    ( 0.0000,  0.0000,  0.0000)
  18 Li     0.000000    6.980000   13.490000    ( 0.0000,  0.0000,  0.0000)
  19 Li     1.745000    8.725000   15.235000    ( 0.0000,  0.0000,  0.0000)
  20 Li     0.007148    6.989335   16.936188    ( 0.0000,  0.0000,  0.0000)
  21 Li     1.744994    8.734132   18.642994    ( 0.0000,  0.0000,  0.0000)
  22 Li     0.006641    7.021352   20.427442    ( 0.0000,  0.0000,  0.0000)
  23 Li     1.744990    8.857327   22.331013    ( 0.0000,  0.0000,  0.0000)
  24 Li     3.490000    0.000000   10.000000    ( 0.0000,  0.0000,  0.0000)
  25 Li     5.235000    1.745000   11.745000    ( 0.0000,  0.0000,  0.0000)
  26 Li     3.490000    0.000000   13.490000    ( 0.0000,  0.0000,  0.0000)
  27 Li     5.235000    1.745000   15.235000    ( 0.0000,  0.0000,  0.0000)
  28 Li     3.500403   -0.018615   16.925531    ( 0.0000,  0.0000,  0.0000)
  29 Li     5.241503    1.720193   18.636294    ( 0.0000,  0.0000,  0.0000)
  30 Li     3.548926   -0.083002   20.372653    ( 0.0000,  0.0000,  0.0000)
  31 Li     4.975553    1.744125   22.319594    ( 0.0000,  0.0000,  0.0000)
  32 Li     3.490000    3.490000   10.000000    ( 0.0000,  0.0000,  0.0000)
  33 Li     5.235000    5.235000   11.745000    ( 0.0000,  0.0000,  0.0000)
  34 Li     3.490000    3.490000   13.490000    ( 0.0000,  0.0000,  0.0000)
  35 Li     5.235000    5.235000   15.235000    ( 0.0000,  0.0000,  0.0000)
  36 Li     3.517956    3.499242   16.914857    ( 0.0000,  0.0000,  0.0000)
  37 Li     5.274708    5.283779   18.628647    ( 0.0000,  0.0000,  0.0000)
  38 Li     3.616210    3.531783   20.320977    ( 0.0000,  0.0000,  0.0000)
  39 Li     5.111054    5.238966   22.303544    ( 0.0000,  0.0000,  0.0000)
  40 Li     3.490000    6.980000   10.000000    ( 0.0000,  0.0000,  0.0000)
  41 Li     5.235000    8.725000   11.745000    ( 0.0000,  0.0000,  0.0000)
  42 Li     3.490000    6.980000   13.490000    ( 0.0000,  0.0000,  0.0000)
  43 Li     5.235000    8.725000   15.235000    ( 0.0000,  0.0000,  0.0000)
  44 Li     3.482853    6.989334   16.936199    ( 0.0000,  0.0000,  0.0000)
  45 Li     5.306876    8.700982   18.621354    ( 0.0000,  0.0000,  0.0000)
  46 Li     3.483353    7.021352   20.427441    ( 0.0000,  0.0000,  0.0000)
  47 Li     5.245915    8.721619   22.284084    ( 0.0000,  0.0000,  0.0000)
  48 Li     6.980000    0.000000   10.000000    ( 0.0000,  0.0000,  0.0000)
  49 Li     8.725000    1.745000   11.745000    ( 0.0000,  0.0000,  0.0000)
  50 Li     6.980000    0.000000   13.490000    ( 0.0000,  0.0000,  0.0000)
  51 Li     8.725000    1.745000   15.235000    ( 0.0000,  0.0000,  0.0000)
  52 Li     6.980004    0.016623   16.902455    ( 0.0000,  0.0000,  0.0000)
  53 Li     8.718489    1.720189   18.636298    ( 0.0000,  0.0000,  0.0000)
  54 Li     6.980002    0.048278   20.484813    ( 0.0000,  0.0000,  0.0000)
  55 Li     8.984453    1.744125   22.319599    ( 0.0000,  0.0000,  0.0000)
  56 Li     6.980000    3.490000   10.000000    ( 0.0000,  0.0000,  0.0000)
  57 Li     8.725000    5.235000   11.745000    ( 0.0000,  0.0000,  0.0000)
  58 Li     6.980000    3.490000   13.490000    ( 0.0000,  0.0000,  0.0000)
  59 Li     8.725000    5.235000   15.235000    ( 0.0000,  0.0000,  0.0000)
  60 Li     6.980003    3.481750   16.947141    ( 0.0000,  0.0000,  0.0000)
  61 Li     8.685297    5.283789   18.628646    ( 0.0000,  0.0000,  0.0000)
  62 Li     6.980001    3.466714   20.483552    ( 0.0000,  0.0000,  0.0000)
  63 Li     8.848937    5.238965   22.303547    ( 0.0000,  0.0000,  0.0000)
  64 Li     6.980000    6.980000   10.000000    ( 0.0000,  0.0000,  0.0000)
  65 Li     8.725000    8.725000   11.745000    ( 0.0000,  0.0000,  0.0000)
  66 Li     6.980000    6.980000   13.490000    ( 0.0000,  0.0000,  0.0000)
  67 Li     8.725000    8.725000   15.235000    ( 0.0000,  0.0000,  0.0000)
  68 Li     6.980005    6.971603   16.858704    ( 0.0000,  0.0000,  0.0000)
  69 Li     8.653135    8.700975   18.621351    ( 0.0000,  0.0000,  0.0000)
  70 Li     6.980001    6.954810   20.484922    ( 0.0000,  0.0000,  0.0000)
  71 Li     8.714069    8.721622   22.284087    ( 0.0000,  0.0000,  0.0000)
  72 Li     1.745000    2.916438   24.005051    ( 0.0000,  0.0000,  0.0000)

Unit cell:
           periodic     x           y           z      points  spacing
  1. axis:    yes   10.470000    0.000000    0.000000    35     0.2991
  2. axis:    yes    0.000000   10.470000    0.000000    35     0.2991
  3. axis:    no     0.000000    0.000000   32.215000   108     0.2983

  Lengths:  10.470000  10.470000  32.215000
  Angles:   90.000000  90.000000  90.000000

Effective grid spacing dv^(1/3) = 0.2989

     iter     time        total  log10-change:
                         energy   eigst   dens
iter:   1 00:45:22  -131.331425   -3.59
iter:   2 00:45:27  -131.328479   -3.96  -2.14
iter:   3 00:45:32  -131.327054c  -4.25  -2.18
iter:   4 00:45:37  -131.324340c  -4.81  -2.30
iter:   5 00:45:42  -131.322862c  -4.72  -2.66
iter:   6 00:45:47  -131.323838c  -5.10  -2.91
iter:   7 00:45:52  -131.323480c  -5.96c -2.83
iter:   8 00:45:55  -131.323062c  -5.80c -3.12
iter:   9 00:45:59  -131.323248c  -6.55c -3.47
iter:  10 00:46:02  -131.323161c  -6.77c -3.49
iter:  11 00:46:06  -131.323159c  -7.07c -3.77
iter:  12 00:46:10  -131.323171c  -7.07c -3.84
iter:  13 00:46:14  -131.323186c  -6.95c -3.91
iter:  14 00:46:18  -131.323114c  -6.67c -3.98
iter:  15 00:46:22  -131.323136c  -7.11c -3.91
iter:  16 00:46:26  -131.323157c  -6.90c -4.10c

Converged after 16 iterations.

Dipole moment: (2.897143, 2.326394, 0.288772) |e|*Ang

Energy contributions relative to reference atoms: (reference = -14803.510878)

Kinetic:       +102.822418
Potential:      -92.370516
External:        +0.000000
XC:            -140.681126
Entropy (-ST):   -1.211214
Local:           -0.488327
SIC:             +0.000000
--------------------------
Free energy:   -131.928764
Extrapolated:  -131.323157

Showing all kpts
 Kpt  Band  Eigenvalues  Occupancy
  0    34     -1.58178    1.60781
  0    35     -1.57161    1.57475
  0    36     -1.38463    0.72679
  0    37     -1.34672    0.56191

  1    34     -1.58178    1.60781
  1    35     -1.57161    1.57475
  1    36     -1.38463    0.72679
  1    37     -1.34672    0.56191


Fermi level: -1.44070

Gap: 0.187 eV
Transition (v -> c):
  (s=0, k=0, n=35, [0.25, -0.25, 0.00]) -> (s=0, k=0, n=36, [0.25, -0.25, 0.00])
No difference between direct/indirect transitions

Forces in eV/Ang:
  0 Li    0.00085   -0.00220   -0.03183
  1 Li    0.00000    0.00089    0.06390
  2 Li    0.00096    0.00079    0.01448
  3 Li   -0.00000    0.00295   -0.00754
  4 Li   -0.00643   -0.00231    0.00513
  5 Li   -0.00000   -0.00635    0.04227
  6 Li   -0.00130   -0.00407   -0.04826
  7 Li   -0.00000   -0.23493   -0.20953
  8 Li   -0.00231   -0.00013   -0.03478
  9 Li    0.00000   -0.00005    0.06301
 10 Li    0.00006   -0.00044    0.00255
 11 Li    0.00000   -0.00558   -0.01508
 12 Li   -0.00345    0.00109    0.00631
 13 Li    0.00000    0.00601    0.05670
 14 Li   -0.00682    0.00311   -0.01585
 15 Li    0.00000    0.19134   -0.03198
 16 Li    0.00260    0.00223   -0.03013
 17 Li    0.00000   -0.00085    0.05696
 18 Li    0.00063   -0.00014    0.02354
 19 Li    0.00000    0.00307   -0.03536
 20 Li   -0.00791    0.00094    0.00521
 21 Li    0.00000   -0.00105    0.00015
 22 Li    0.00893   -0.00188   -0.03617
 23 Li    0.00000    0.01645   -0.03429
 24 Li   -0.00085   -0.00220   -0.03183
 25 Li    0.00079    0.00193    0.05996
 26 Li   -0.00096    0.00079    0.01448
 27 Li   -0.00545    0.00106   -0.03499
 28 Li    0.00644   -0.00231    0.00513
 29 Li    0.01054   -0.00552    0.00987
 30 Li    0.00131   -0.00407   -0.04825
 31 Li   -0.01314    0.02249    0.00935
 32 Li    0.00231   -0.00013   -0.03478
 33 Li   -0.00026   -0.00235    0.05941
 34 Li   -0.00006   -0.00044    0.00255
 35 Li   -0.00289   -0.00152   -0.04115
 36 Li    0.00346    0.00110    0.00631
 37 Li    0.00946    0.00577    0.01095
 38 Li    0.00683    0.00311   -0.01584
 39 Li    0.00344   -0.02543    0.01019
 40 Li   -0.00260    0.00223   -0.03013
 41 Li   -0.00224    0.00056    0.05720
 42 Li   -0.00063   -0.00014    0.02355
 43 Li   -0.00081    0.00053   -0.04903
 44 Li    0.00791    0.00094    0.00521
 45 Li   -0.00195   -0.00071    0.01507
 46 Li   -0.00893   -0.00188   -0.03617
 47 Li    0.00363    0.00032   -0.02343
 48 Li    0.00000    0.00329   -0.02954
 49 Li   -0.00079    0.00193    0.05996
 50 Li    0.00000    0.00179    0.02191
 51 Li    0.00544    0.00106   -0.03499
 52 Li   -0.00000   -0.00578    0.01283
 53 Li   -0.01053   -0.00552    0.00987
 54 Li   -0.00000    0.01173    0.00046
 55 Li    0.01313    0.02249    0.00935
 56 Li   -0.00000   -0.00172   -0.02940
 57 Li    0.00026   -0.00235    0.05941
 58 Li    0.00000   -0.00011    0.03094
 59 Li    0.00289   -0.00152   -0.04115
 60 Li   -0.00000    0.00320    0.00725
 61 Li   -0.00946    0.00576    0.01095
 62 Li   -0.00000    0.00138   -0.01751
 63 Li   -0.00343   -0.02543    0.01019
 64 Li    0.00000   -0.00168   -0.03021
 65 Li    0.00224    0.00056    0.05720
 66 Li    0.00000   -0.00136    0.01333
 67 Li    0.00081    0.00053   -0.04904
 68 Li   -0.00001    0.00239    0.02162
 69 Li    0.00194   -0.00070    0.01507
 70 Li   -0.00000   -0.01492    0.00779
 71 Li   -0.00362    0.00032   -0.02343
 72 Li   -0.00000    0.04155    0.15378

System changes: positions 

Initializing position-dependent things.

Density initialized from wave functions
       .-------------------------.  
      /|                         |  
     / |                         |  
    /  |                         |  
   /   |                         |  
  /    |                         |  
 *     |                         |  
 |     |                         |  
 |     |                         |  
 |     |                         |  
 |     |                         |  
 |     |                         |  
 |     |                         |  
 |     |  Li       Li       Li   |  
 |     |                         |  
 |     Li       LLi       Li     Li 
 |     |Li                       |  
 |   Li|      Li      LiLi       |  
 |    Li  Li       Li      Li    |  
 |     |    Li  Li  Li       Li  Li 
 |     |Li       Li       Li     |  
 |   Li|      Li  Li  Li         |  
 |    Li  Li   Li  Li   Li  Li   |  
 |     |    Li      Li       Li  |  
 |     |Li       Li       Li     |  
 |   Li|      Li  Li  Li         |  
 |    Li  Li   Li  Li   Li  Li   |  
 | Li  |    Li      Li           |  
 |     |Li       Li       Li     |  
 Li    |  Li      Li             |  
 |   LLi      LLi     LiLi       |  
 |     |                         |  
 | Li  |    Li      Li           |  
 |     |                         |  
 Li    |  Li      Li             |  
 |     |                         |  
 |     |                         |  
 |     |                         |  
 |     |                         |  
 |     |                         |  
 |     .-------------------------.  
 |    /                         /   
 |   /                         /    
 |  /                         /     
 | /                         /      
 |/                         /       
 *-------------------------*        

Atomic positions and initial magnetic moments

Positions:
   0 Li     0.000000    0.000000   10.000000    ( 0.0000,  0.0000,  0.0000)
   1 Li     1.745000    1.745000   11.745000    ( 0.0000,  0.0000,  0.0000)
   2 Li     0.000000    0.000000   13.490000    ( 0.0000,  0.0000,  0.0000)
   3 Li     1.745000    1.745000   15.235000    ( 0.0000,  0.0000,  0.0000)
   4 Li    -0.010766   -0.018757   16.925797    ( 0.0000,  0.0000,  0.0000)
   5 Li     1.744997    1.753442   18.570811    ( 0.0000,  0.0000,  0.0000)
   6 Li    -0.058623   -0.082910   20.370269    ( 0.0000,  0.0000,  0.0000)
   7 Li     1.745002    1.832407   21.665511    ( 0.0000,  0.0000,  0.0000)
   8 Li     0.000000    3.490000   10.000000    ( 0.0000,  0.0000,  0.0000)
   9 Li     1.745000    5.235000   11.745000    ( 0.0000,  0.0000,  0.0000)
  10 Li     0.000000    3.490000   13.490000    ( 0.0000,  0.0000,  0.0000)
  11 Li     1.745000    5.235000   15.235000    ( 0.0000,  0.0000,  0.0000)
  12 Li    -0.028191    3.499287   16.915131    ( 0.0000,  0.0000,  0.0000)
  13 Li     1.744995    5.217148   18.612232    ( 0.0000,  0.0000,  0.0000)
  14 Li    -0.126655    3.531821   20.320026    ( 0.0000,  0.0000,  0.0000)
  15 Li     1.744996    5.007363   22.014622    ( 0.0000,  0.0000,  0.0000)
  16 Li     0.000000    6.980000   10.000000    ( 0.0000,  0.0000,  0.0000)
  17 Li     1.745000    8.725000   11.745000    ( 0.0000,  0.0000,  0.0000)
  18 Li     0.000000    6.980000   13.490000    ( 0.0000,  0.0000,  0.0000)
  19 Li     1.745000    8.725000   15.235000    ( 0.0000,  0.0000,  0.0000)
  20 Li     0.006674    6.989414   16.936424    ( 0.0000,  0.0000,  0.0000)
  21 Li     1.744994    8.734013   18.643007    ( 0.0000,  0.0000,  0.0000)
  22 Li     0.007205    7.021206   20.425429    ( 0.0000,  0.0000,  0.0000)
  23 Li     1.744990    8.858043   22.329290    ( 0.0000,  0.0000,  0.0000)
  24 Li     3.490000    0.000000   10.000000    ( 0.0000,  0.0000,  0.0000)
  25 Li     5.235000    1.745000   11.745000    ( 0.0000,  0.0000,  0.0000)
  26 Li     3.490000    0.000000   13.490000    ( 0.0000,  0.0000,  0.0000)
  27 Li     5.235000    1.745000   15.235000    ( 0.0000,  0.0000,  0.0000)
  28 Li     3.500760   -0.018755   16.925800    ( 0.0000,  0.0000,  0.0000)
  29 Li     5.242130    1.719847   18.636817    ( 0.0000,  0.0000,  0.0000)
  30 Li     3.548615   -0.082912   20.370264    ( 0.0000,  0.0000,  0.0000)
  31 Li     4.974959    1.745383   22.320159    ( 0.0000,  0.0000,  0.0000)
  32 Li     3.490000    3.490000   10.000000    ( 0.0000,  0.0000,  0.0000)
  33 Li     5.235000    5.235000   11.745000    ( 0.0000,  0.0000,  0.0000)
  34 Li     3.490000    3.490000   13.490000    ( 0.0000,  0.0000,  0.0000)
  35 Li     5.235000    5.235000   15.235000    ( 0.0000,  0.0000,  0.0000)
  36 Li     3.518183    3.499286   16.915132    ( 0.0000,  0.0000,  0.0000)
  37 Li     5.275190    5.284077   18.629245    ( 0.0000,  0.0000,  0.0000)
  38 Li     3.616646    3.531822   20.320022    ( 0.0000,  0.0000,  0.0000)
  39 Li     5.111099    5.237542   22.304138    ( 0.0000,  0.0000,  0.0000)
  40 Li     3.490000    6.980000   10.000000    ( 0.0000,  0.0000,  0.0000)
  41 Li     5.235000    8.725000   11.745000    ( 0.0000,  0.0000,  0.0000)
  42 Li     3.490000    6.980000   13.490000    ( 0.0000,  0.0000,  0.0000)
  43 Li     5.235000    8.725000   15.235000    ( 0.0000,  0.0000,  0.0000)
  44 Li     3.483328    6.989413   16.936434    ( 0.0000,  0.0000,  0.0000)
  45 Li     5.306717    8.701004   18.622161    ( 0.0000,  0.0000,  0.0000)
  46 Li     3.482789    7.021206   20.425426    ( 0.0000,  0.0000,  0.0000)
  47 Li     5.246175    8.721648   22.282888    ( 0.0000,  0.0000,  0.0000)
  48 Li     6.980000    0.000000   10.000000    ( 0.0000,  0.0000,  0.0000)
  49 Li     8.725000    1.745000   11.745000    ( 0.0000,  0.0000,  0.0000)
  50 Li     6.980000    0.000000   13.490000    ( 0.0000,  0.0000,  0.0000)
  51 Li     8.725000    1.745000   15.235000    ( 0.0000,  0.0000,  0.0000)
  52 Li     6.980004    0.016296   16.903099    ( 0.0000,  0.0000,  0.0000)
  53 Li     8.717863    1.719843   18.636820    ( 0.0000,  0.0000,  0.0000)
  54 Li     6.980001    0.048881   20.484791    ( 0.0000,  0.0000,  0.0000)
  55 Li     8.985047    1.745383   22.320163    ( 0.0000,  0.0000,  0.0000)
  56 Li     6.980000    3.490000   10.000000    ( 0.0000,  0.0000,  0.0000)
  57 Li     8.725000    5.235000   11.745000    ( 0.0000,  0.0000,  0.0000)
  58 Li     6.980000    3.490000   13.490000    ( 0.0000,  0.0000,  0.0000)
  59 Li     8.725000    5.235000   15.235000    ( 0.0000,  0.0000,  0.0000)
  60 Li     6.980003    3.481941   16.947517    ( 0.0000,  0.0000,  0.0000)
  61 Li     8.684815    5.284087   18.629245    ( 0.0000,  0.0000,  0.0000)
  62 Li     6.980001    3.466832   20.482530    ( 0.0000,  0.0000,  0.0000)
  63 Li     8.848893    5.237541   22.304141    ( 0.0000,  0.0000,  0.0000)
  64 Li     6.980000    6.980000   10.000000    ( 0.0000,  0.0000,  0.0000)
  65 Li     8.725000    8.725000   11.745000    ( 0.0000,  0.0000,  0.0000)
  66 Li     6.980000    6.980000   13.490000    ( 0.0000,  0.0000,  0.0000)
  67 Li     8.725000    8.725000   15.235000    ( 0.0000,  0.0000,  0.0000)
  68 Li     6.980004    6.971726   16.859937    ( 0.0000,  0.0000,  0.0000)
  69 Li     8.653294    8.700998   18.622158    ( 0.0000,  0.0000,  0.0000)
  70 Li     6.980001    6.953992   20.485336    ( 0.0000,  0.0000,  0.0000)
  71 Li     8.713810    8.721651   22.282891    ( 0.0000,  0.0000,  0.0000)
  72 Li     1.745000    2.920106   24.015677    ( 0.0000,  0.0000,  0.0000)

Unit cell:
           periodic     x           y           z      points  spacing
  1. axis:    yes   10.470000    0.000000    0.000000    35     0.2991
  2. axis:    yes    0.000000   10.470000    0.000000    35     0.2991
  3. axis:    no     0.000000    0.000000   32.215000   108     0.2983

  Lengths:  10.470000  10.470000  32.215000
  Angles:   90.000000  90.000000  90.000000

Effective grid spacing dv^(1/3) = 0.2989

     iter     time        total  log10-change:
                         energy   eigst   dens
iter:   1 00:50:34  -131.345451   -3.43
iter:   2 00:50:38  -131.339033   -3.91  -2.07
iter:   3 00:50:41  -131.338731c  -4.09  -2.20
iter:   4 00:50:45  -131.334984c  -4.52  -2.20
iter:   5 00:50:49  -131.332989c  -4.59  -2.54
iter:   6 00:50:53  -131.334197c  -4.93  -2.83
iter:   7 00:50:56  -131.333688c  -5.82c -2.75
iter:   8 00:51:00  -131.333187c  -5.66c -3.04
iter:   9 00:51:04  -131.333318c  -6.61c -3.39
iter:  10 00:51:08  -131.333313c  -6.38c -3.41
iter:  11 00:51:11  -131.333331c  -6.99c -3.48
iter:  12 00:51:15  -131.333320c  -7.47c -3.76
iter:  13 00:51:19  -131.333317c  -7.05c -3.84
iter:  14 00:51:22  -131.333306c  -7.41c -3.99
iter:  15 00:51:26  -131.333298c  -7.28c -4.10c

Converged after 15 iterations.

Dipole moment: (2.901523, 2.311629, 0.292171) |e|*Ang

Energy contributions relative to reference atoms: (reference = -14803.510878)

Kinetic:       +102.748621
Potential:      -92.326711
External:        +0.000000
XC:            -140.661232
Entropy (-ST):   -1.211634
Local:           -0.488158
SIC:             +0.000000
--------------------------
Free energy:   -131.939115
Extrapolated:  -131.333298

Showing all kpts
 Kpt  Band  Eigenvalues  Occupancy
  0    34     -1.58101    1.60731
  0    35     -1.57085    1.57427
  0    36     -1.38460    0.72954
  0    37     -1.34655    0.56372

  1    34     -1.58101    1.60731
  1    35     -1.57085    1.57427
  1    36     -1.38460    0.72954
  1    37     -1.34655    0.56372


Fermi level: -1.44007

Gap: 0.186 eV
Transition (v -> c):
  (s=0, k=0, n=35, [0.25, -0.25, 0.00]) -> (s=0, k=0, n=36, [0.25, -0.25, 0.00])
No difference between direct/indirect transitions

Forces in eV/Ang:
  0 Li    0.00084   -0.00215   -0.03170
  1 Li    0.00000    0.00093    0.06386
  2 Li    0.00095    0.00087    0.01449
  3 Li   -0.00000    0.00284   -0.00714
  4 Li   -0.00576   -0.00189    0.00524
  5 Li   -0.00000   -0.00627    0.03315
  6 Li   -0.00737   -0.00878   -0.04936
  7 Li   -0.00000   -0.20252   -0.15934
  8 Li   -0.00231   -0.00008   -0.03457
  9 Li    0.00000   -0.00004    0.06302
 10 Li    0.00001   -0.00041    0.00254
 11 Li    0.00000   -0.00549   -0.01457
 12 Li   -0.00262    0.00107    0.00709
 13 Li    0.00000    0.00590    0.05145
 14 Li   -0.00491    0.00384   -0.01327
 15 Li    0.00000    0.17274   -0.02559
 16 Li    0.00258    0.00215   -0.02994
 17 Li    0.00000   -0.00090    0.05684
 18 Li    0.00058   -0.00027    0.02347
 19 Li    0.00000    0.00303   -0.03494
 20 Li   -0.00700    0.00060    0.00573
 21 Li    0.00000   -0.00022   -0.00009
 22 Li    0.00587   -0.00036   -0.03460
 23 Li    0.00000    0.01471   -0.03520
 24 Li   -0.00084   -0.00215   -0.03170
 25 Li    0.00085    0.00201    0.06000
 26 Li   -0.00095    0.00087    0.01449
 27 Li   -0.00521    0.00108   -0.03477
 28 Li    0.00576   -0.00190    0.00524
 29 Li    0.00960   -0.00495    0.00939
 30 Li    0.00737   -0.00878   -0.04936
 31 Li   -0.01257    0.02040    0.00764
 32 Li    0.00231   -0.00008   -0.03457
 33 Li   -0.00020   -0.00239    0.05947
 34 Li   -0.00001   -0.00041    0.00254
 35 Li   -0.00262   -0.00143   -0.04108
 36 Li    0.00263    0.00107    0.00709
 37 Li    0.00898    0.00554    0.01036
 38 Li    0.00491    0.00384   -0.01327
 39 Li    0.00362   -0.02328    0.00926
 40 Li   -0.00258    0.00215   -0.02995
 41 Li   -0.00218    0.00049    0.05725
 42 Li   -0.00058   -0.00028    0.02347
 43 Li   -0.00059    0.00044   -0.04877
 44 Li    0.00700    0.00060    0.00573
 45 Li   -0.00059   -0.00105    0.01451
 46 Li   -0.00587   -0.00036   -0.03461
 47 Li    0.00252    0.00025   -0.02376
 48 Li    0.00000    0.00330   -0.02936
 49 Li   -0.00085    0.00201    0.06000
 50 Li    0.00000    0.00184    0.02181
 51 Li    0.00521    0.00108   -0.03478
 52 Li   -0.00000   -0.00545    0.01261
 53 Li   -0.00959   -0.00494    0.00939
 54 Li   -0.00000    0.01112    0.00109
 55 Li    0.01257    0.02040    0.00764
 56 Li    0.00000   -0.00168   -0.02913
 57 Li    0.00020   -0.00239    0.05947
 58 Li    0.00000   -0.00004    0.03082
 59 Li    0.00262   -0.00143   -0.04108
 60 Li   -0.00000    0.00299    0.00701
 61 Li   -0.00898    0.00553    0.01036
 62 Li   -0.00000    0.00120   -0.01542
 63 Li   -0.00362   -0.02328    0.00926
 64 Li    0.00000   -0.00174   -0.03000
 65 Li    0.00218    0.00049    0.05725
 66 Li    0.00000   -0.00152    0.01329
 67 Li    0.00059    0.00044   -0.04877
[...]
 11 Li    0.00000   -0.00459   -0.01225
 12 Li    0.00037    0.00128    0.01116
 13 Li    0.00000    0.00525    0.02964
 14 Li    0.00461    0.00491   -0.00185
 15 Li    0.00000    0.10708   -0.00276
 16 Li    0.00264    0.00217   -0.03007
 17 Li    0.00000   -0.00091    0.05614
 18 Li    0.00054   -0.00016    0.02343
 19 Li    0.00000    0.00269   -0.03366
 20 Li   -0.00373   -0.00086    0.00743
 21 Li    0.00000    0.00271   -0.00087
 22 Li   -0.00568    0.00465   -0.02788
 23 Li    0.00000    0.00796   -0.03831
 24 Li   -0.00089   -0.00218   -0.03188
 25 Li    0.00087    0.00182    0.05952
 26 Li   -0.00088    0.00064    0.01456
 27 Li   -0.00413    0.00065   -0.03347
 28 Li    0.00367   -0.00040    0.00574
 29 Li    0.00586   -0.00173    0.00722
 30 Li    0.02849   -0.02370   -0.05108
 31 Li   -0.01041    0.01232    0.00094
 32 Li    0.00218   -0.00004   -0.03474
 33 Li   -0.00013   -0.00218    0.05903
 34 Li    0.00001   -0.00040    0.00259
 35 Li   -0.00160   -0.00060   -0.03998
 36 Li   -0.00037    0.00128    0.01116
 37 Li    0.00685    0.00379    0.00796
 38 Li   -0.00460    0.00491   -0.00185
 39 Li    0.00416   -0.01531    0.00566
 40 Li   -0.00264    0.00217   -0.03007
 41 Li   -0.00214    0.00041    0.05715
 42 Li   -0.00054   -0.00016    0.02343
 43 Li    0.00052    0.00006   -0.04733
 44 Li    0.00373   -0.00086    0.00743
 45 Li    0.00563   -0.00283    0.01031
 46 Li    0.00568    0.00465   -0.02789
 47 Li   -0.00250   -0.00027   -0.02323
 48 Li    0.00000    0.00317   -0.02946
 49 Li   -0.00087    0.00182    0.05952
 50 Li    0.00000    0.00157    0.02189
 51 Li    0.00412    0.00065   -0.03347
 52 Li   -0.00000   -0.00424    0.01087
 53 Li   -0.00585   -0.00173    0.00722
 54 Li   -0.00000    0.00995    0.00315
 55 Li    0.01041    0.01232    0.00094
 56 Li    0.00000   -0.00166   -0.02930
 57 Li    0.00013   -0.00218    0.05903
 58 Li    0.00000   -0.00001    0.03056
 59 Li    0.00160   -0.00060   -0.03999
 60 Li   -0.00000    0.00227    0.00639
 61 Li   -0.00685    0.00378    0.00796
 62 Li   -0.00000    0.00059   -0.00674
 63 Li   -0.00415   -0.01531    0.00566
 64 Li    0.00000   -0.00161   -0.03008
 65 Li    0.00214    0.00041    0.05715
 66 Li    0.00000   -0.00142    0.01372
 67 Li   -0.00052    0.00006   -0.04733
 68 Li   -0.00000    0.00211    0.01434
 69 Li   -0.00563   -0.00282    0.01031
 70 Li   -0.00000   -0.01197    0.00595
 71 Li    0.00250   -0.00027   -0.02323
 72 Li   -0.00000    0.01175   -0.02914

System changes: positions 

Initializing position-dependent things.

Density initialized from wave functions
       .-------------------------.  
      /|                         |  
     / |                         |  
    /  |                         |  
   /   |                         |  
  /    |                         |  
 *     |                         |  
 |     |                         |  
 |     |                         |  
 |     |                         |  
 |     |                         |  
 |     |                         |  
 |     |                         |  
 |     |  Li       Li       Li   |  
 |     Li                        |  
 |     |        LLi       Li     Li 
 |     |Li                       |  
 |   Li|      Li      LiLi       |  
 |    Li  Li       Li      Li    |  
 |     |    Li  Li  Li       Li  Li 
 |     |Li       Li       Li     |  
 |   Li|      Li  Li  Li         |  
 |    Li  Li   Li  Li   Li  Li   |  
 |     |    Li      Li       Li  |  
 |     |Li       Li       Li     |  
 |   Li|      Li  Li  Li         |  
 |    Li  Li   Li  Li   Li  Li   |  
 | Li  |    Li      Li           |  
 |     |Li       Li       Li     |  
 Li    |  Li      Li             |  
 |   LLi      LLi     LiLi       |  
 |     |                         |  
 | Li  |    Li      Li           |  
 |     |                         |  
 Li    |  Li      Li             |  
 |     |                         |  
 |     |                         |  
 |     |                         |  
 |     |                         |  
 |     |                         |  
 |     .-------------------------.  
 |    /                         /   
 |   /                         /    
 |  /                         /     
 | /                         /      
 |/                         /       
 *-------------------------*        

Atomic positions and initial magnetic moments

Positions:
   0 Li     0.000000    0.000000   10.000000    ( 0.0000,  0.0000,  0.0000)
   1 Li     1.745000    1.745000   11.745000    ( 0.0000,  0.0000,  0.0000)
   2 Li     0.000000    0.000000   13.490000    ( 0.0000,  0.0000,  0.0000)
   3 Li     1.745000    1.745000   15.235000    ( 0.0000,  0.0000,  0.0000)
   4 Li    -0.012972   -0.019474   16.927880    ( 0.0000,  0.0000,  0.0000)
   5 Li     1.744996    1.751069   18.583904    ( 0.0000,  0.0000,  0.0000)
   6 Li    -0.060976   -0.085803   20.351656    ( 0.0000,  0.0000,  0.0000)
   7 Li     1.745001    1.753204   21.601494    ( 0.0000,  0.0000,  0.0000)
   8 Li     0.000000    3.490000   10.000000    ( 0.0000,  0.0000,  0.0000)
   9 Li     1.745000    5.235000   11.745000    ( 0.0000,  0.0000,  0.0000)
  10 Li     0.000000    3.490000   13.490000    ( 0.0000,  0.0000,  0.0000)
  11 Li     1.745000    5.235000   15.235000    ( 0.0000,  0.0000,  0.0000)
  12 Li    -0.029231    3.499657   16.917947    ( 0.0000,  0.0000,  0.0000)
  13 Li     1.744996    5.219464   18.631805    ( 0.0000,  0.0000,  0.0000)
  14 Li    -0.128361    3.532828   20.314967    ( 0.0000,  0.0000,  0.0000)
  15 Li     1.744997    5.075154   22.003312    ( 0.0000,  0.0000,  0.0000)
  16 Li     0.000000    6.980000   10.000000    ( 0.0000,  0.0000,  0.0000)
  17 Li     1.745000    8.725000   11.745000    ( 0.0000,  0.0000,  0.0000)
  18 Li     0.000000    6.980000   13.490000    ( 0.0000,  0.0000,  0.0000)
  19 Li     1.745000    8.725000   15.235000    ( 0.0000,  0.0000,  0.0000)
  20 Li     0.003880    6.989678   16.938582    ( 0.0000,  0.0000,  0.0000)
  21 Li     1.744995    8.733831   18.642976    ( 0.0000,  0.0000,  0.0000)
  22 Li     0.009274    7.021113   20.411909    ( 0.0000,  0.0000,  0.0000)
  23 Li     1.744991    8.862739   22.315805    ( 0.0000,  0.0000,  0.0000)
  24 Li     3.490000    0.000000   10.000000    ( 0.0000,  0.0000,  0.0000)
  25 Li     5.235000    1.745000   11.745000    ( 0.0000,  0.0000,  0.0000)
  26 Li     3.490000    0.000000   13.490000    ( 0.0000,  0.0000,  0.0000)
  27 Li     5.235000    1.745000   15.235000    ( 0.0000,  0.0000,  0.0000)
  28 Li     3.502968   -0.019474   16.927882    ( 0.0000,  0.0000,  0.0000)
  29 Li     5.245939    1.717892   18.640376    ( 0.0000,  0.0000,  0.0000)
  30 Li     3.550970   -0.085805   20.351652    ( 0.0000,  0.0000,  0.0000)
  31 Li     4.970634    1.753207   22.323059    ( 0.0000,  0.0000,  0.0000)
  32 Li     3.490000    3.490000   10.000000    ( 0.0000,  0.0000,  0.0000)
  33 Li     5.235000    5.235000   11.745000    ( 0.0000,  0.0000,  0.0000)
  34 Li     3.490000    3.490000   13.490000    ( 0.0000,  0.0000,  0.0000)
  35 Li     5.235000    5.235000   15.235000    ( 0.0000,  0.0000,  0.0000)
  36 Li     3.519225    3.499658   16.917947    ( 0.0000,  0.0000,  0.0000)
  37 Li     5.278487    5.286085   18.633242    ( 0.0000,  0.0000,  0.0000)
  38 Li     3.618353    3.532829   20.314964    ( 0.0000,  0.0000,  0.0000)
  39 Li     5.111974    5.228549   22.307782    ( 0.0000,  0.0000,  0.0000)
  40 Li     3.490000    6.980000   10.000000    ( 0.0000,  0.0000,  0.0000)
  41 Li     5.235000    8.725000   11.745000    ( 0.0000,  0.0000,  0.0000)
  42 Li     3.490000    6.980000   13.490000    ( 0.0000,  0.0000,  0.0000)
  43 Li     5.235000    8.725000   15.235000    ( 0.0000,  0.0000,  0.0000)
  44 Li     3.486122    6.989679   16.938590    ( 0.0000,  0.0000,  0.0000)
  45 Li     5.306593    8.700752   18.627565    ( 0.0000,  0.0000,  0.0000)
  46 Li     3.480720    7.021113   20.411905    ( 0.0000,  0.0000,  0.0000)
  47 Li     5.247123    8.721761   22.273902    ( 0.0000,  0.0000,  0.0000)
  48 Li     6.980000    0.000000   10.000000    ( 0.0000,  0.0000,  0.0000)
  49 Li     8.725000    1.745000   11.745000    ( 0.0000,  0.0000,  0.0000)
  50 Li     6.980000    0.000000   13.490000    ( 0.0000,  0.0000,  0.0000)
  51 Li     8.725000    1.745000   15.235000    ( 0.0000,  0.0000,  0.0000)
  52 Li     6.980002    0.014133   16.907751    ( 0.0000,  0.0000,  0.0000)
  53 Li     8.714057    1.717890   18.640378    ( 0.0000,  0.0000,  0.0000)
  54 Li     6.980001    0.053150   20.485134    ( 0.0000,  0.0000,  0.0000)
  55 Li     8.989370    1.753207   22.323064    ( 0.0000,  0.0000,  0.0000)
  56 Li     6.980000    3.490000   10.000000    ( 0.0000,  0.0000,  0.0000)
  57 Li     8.725000    5.235000   11.745000    ( 0.0000,  0.0000,  0.0000)
  58 Li     6.980000    3.490000   13.490000    ( 0.0000,  0.0000,  0.0000)
  59 Li     8.725000    5.235000   15.235000    ( 0.0000,  0.0000,  0.0000)
  60 Li     6.980003    3.483161   16.950235    ( 0.0000,  0.0000,  0.0000)
  61 Li     8.681517    5.286092   18.633241    ( 0.0000,  0.0000,  0.0000)
  62 Li     6.980001    3.467468   20.476615    ( 0.0000,  0.0000,  0.0000)
  63 Li     8.848020    5.228550   22.307786    ( 0.0000,  0.0000,  0.0000)
  64 Li     6.980000    6.980000   10.000000    ( 0.0000,  0.0000,  0.0000)
  65 Li     8.725000    8.725000   11.745000    ( 0.0000,  0.0000,  0.0000)
  66 Li     6.980000    6.980000   13.490000    ( 0.0000,  0.0000,  0.0000)
  67 Li     8.725000    8.725000   15.235000    ( 0.0000,  0.0000,  0.0000)
  68 Li     6.980002    6.972619   16.867899    ( 0.0000,  0.0000,  0.0000)
  69 Li     8.653416    8.700748   18.627563    ( 0.0000,  0.0000,  0.0000)
  70 Li     6.980000    6.948419   20.488147    ( 0.0000,  0.0000,  0.0000)
  71 Li     8.712863    8.721763   22.273905    ( 0.0000,  0.0000,  0.0000)
  72 Li     1.744999    2.938272   24.061470    ( 0.0000,  0.0000,  0.0000)

Unit cell:
           periodic     x           y           z      points  spacing
  1. axis:    yes   10.470000    0.000000    0.000000    35     0.2991
  2. axis:    yes    0.000000   10.470000    0.000000    35     0.2991
  3. axis:    no     0.000000    0.000000   32.215000   108     0.2983

  Lengths:  10.470000  10.470000  32.215000
  Angles:   90.000000  90.000000  90.000000

Effective grid spacing dv^(1/3) = 0.2989

     iter     time        total  log10-change:
                         energy   eigst   dens
iter:   1 01:11:22  -131.400970   -2.98
iter:   2 01:11:25  -131.376382   -3.50  -1.77
iter:   3 01:11:29  -131.377158c  -3.54  -2.01
iter:   4 01:11:34  -131.364418c  -4.25  -1.91
iter:   5 01:11:38  -131.361763c  -4.28  -2.40
iter:   6 01:11:42  -131.362387c  -4.56  -2.60
iter:   7 01:11:45  -131.361602c  -5.47c -2.67
iter:   8 01:11:49  -131.361298c  -5.53c -2.99
iter:   9 01:11:53  -131.361477c  -6.07c -3.19
iter:  10 01:11:57  -131.361421c  -6.44c -3.24
iter:  11 01:12:01  -131.361403c  -6.62c -3.37
iter:  12 01:12:05  -131.361394c  -6.83c -3.57
iter:  13 01:12:09  -131.361424c  -6.96c -3.64
iter:  14 01:12:12  -131.361406c  -7.34c -3.74
iter:  15 01:12:16  -131.361387c  -7.27c -3.88
iter:  16 01:12:20  -131.361384c  -7.42c -3.95
iter:  17 01:12:24  -131.361376c  -7.50c -4.05c

Converged after 17 iterations.

Dipole moment: (2.999585, 2.309011, 0.304445) |e|*Ang

Energy contributions relative to reference atoms: (reference = -14803.510878)

Kinetic:       +102.486463
Potential:      -92.164966
External:        +0.000000
XC:            -140.587787
Entropy (-ST):   -1.214283
Local:           -0.487944
SIC:             +0.000000
--------------------------
Free energy:   -131.968517
Extrapolated:  -131.361376

Showing all kpts
 Kpt  Band  Eigenvalues  Occupancy
  0    34     -1.57916    1.60531
  0    35     -1.56882    1.57154
  0    36     -1.38704    0.74655
  0    37     -1.34628    0.56754

  1    34     -1.57916    1.60531
  1    35     -1.56882    1.57154
  1    36     -1.38704    0.74655
  1    37     -1.34628    0.56754


Fermi level: -1.43886

Gap: 0.182 eV
Transition (v -> c):
  (s=0, k=0, n=35, [0.25, -0.25, 0.00]) -> (s=0, k=1, n=36, [0.25, 0.25, 0.00])
Direct/indirect transitions are different
Direct gap: 0.182 eV
Transition at: (s=0, k=0, n=35, [0.25, -0.25, 0.00])

Forces in eV/Ang:
  0 Li    0.00090   -0.00210   -0.03205
  1 Li    0.00000    0.00055    0.06284
  2 Li    0.00085    0.00060    0.01465
  3 Li   -0.00000    0.00172   -0.00486
  4 Li   -0.00304    0.00001    0.00592
  5 Li    0.00000   -0.00545   -0.01391
  6 Li   -0.03580   -0.02795   -0.04986
  7 Li   -0.00000   -0.05247    0.04845
  8 Li   -0.00216   -0.00001   -0.03484
  9 Li    0.00000    0.00034    0.06229
 10 Li   -0.00001   -0.00039    0.00265
 11 Li    0.00000   -0.00422   -0.01106
 12 Li    0.00151    0.00154    0.01278
 13 Li    0.00000    0.00514    0.01938
 14 Li    0.00993    0.00444    0.00408
 15 Li    0.00000    0.08144    0.00582
 16 Li    0.00266    0.00207   -0.03024
 17 Li    0.00000   -0.00091    0.05586
 18 Li    0.00053   -0.00016    0.02355
 19 Li    0.00000    0.00254   -0.03291
 20 Li   -0.00240   -0.00138    0.00815
 21 Li    0.00000    0.00348   -0.00141
 22 Li   -0.01063    0.00673   -0.02479
 23 Li    0.00000    0.00503   -0.03959
 24 Li   -0.00090   -0.00210   -0.03206
 25 Li    0.00090    0.00185    0.05931
 26 Li   -0.00085    0.00060    0.01465
 27 Li   -0.00369    0.00051   -0.03270
 28 Li    0.00304    0.00001    0.00592
 29 Li    0.00440   -0.00014    0.00594
 30 Li    0.03580   -0.02795   -0.04986
 31 Li   -0.00966    0.00845   -0.00210
 32 Li    0.00216   -0.00001   -0.03484
 33 Li   -0.00009   -0.00221    0.05880
 34 Li    0.00001   -0.00039    0.00265
 35 Li   -0.00119   -0.00022   -0.03929
 36 Li   -0.00151    0.00154    0.01278
 37 Li    0.00576    0.00285    0.00683
 38 Li   -0.00993    0.00444    0.00408
 39 Li    0.00403   -0.01176    0.00394
 40 Li   -0.00266    0.00207   -0.03024
 41 Li   -0.00216    0.00038    0.05704
 42 Li   -0.00053   -0.00016    0.02355
 43 Li    0.00109   -0.00015   -0.04637
 44 Li    0.00240   -0.00138    0.00814
 45 Li    0.00890   -0.00385    0.00779
 46 Li    0.01063    0.00673   -0.02479
 47 Li   -0.00470   -0.00054   -0.02255
 48 Li    0.00000    0.00321   -0.02963
 49 Li   -0.00090    0.00185    0.05931
 50 Li    0.00000    0.00152    0.02208
 51 Li    0.00369    0.00051   -0.03270
 52 Li   -0.00000   -0.00374    0.01003
 53 Li   -0.00440   -0.00013    0.00594
 54 Li   -0.00000    0.00933    0.00363
 55 Li    0.00966    0.00845   -0.00210
 56 Li    0.00000   -0.00165   -0.02944
 57 Li    0.00009   -0.00221    0.05880
 58 Li    0.00000   -0.00001    0.03041
 59 Li    0.00119   -0.00022   -0.03930
 60 Li   -0.00000    0.00195    0.00587
 61 Li   -0.00577    0.00285    0.00683
 62 Li   -0.00000    0.00023   -0.00291
 63 Li   -0.00403   -0.01176    0.00394
 64 Li    0.00000   -0.00165   -0.03025
 65 Li    0.00216    0.00038    0.05704
 66 Li    0.00000   -0.00144    0.01398
 67 Li   -0.00109   -0.00015   -0.04637
 68 Li   -0.00000    0.00198    0.01147
 69 Li   -0.00890   -0.00385    0.00779
 70 Li   -0.00000   -0.01086    0.00519
 71 Li    0.00471   -0.00054   -0.02255
 72 Li   -0.00000    0.00667   -0.07338

Timing:                                      incl.     excl.
-------------------------------------------------------------------
Density initialized from wave functions:     6.167     6.166   0.1% |
 Symmetrize density:                         0.000     0.000   0.0% |
Forces:                                     31.358    31.358   0.3% |
Hamiltonian:                                13.257     0.067   0.0% |
 Atomic:                                     7.204     0.029   0.0% |
  XC Correction:                             7.175     7.175   0.1% |
 Calculate atomic Hamiltonians:              4.214     4.214   0.0% |
 Communicate:                                0.000     0.000   0.0% |
 Initialize Hamiltonian:                     0.000     0.000   0.0% |
 Poisson:                                    0.172     0.172   0.0% |
 XC 3D grid:                                 1.600     1.600   0.0% |
LCAO initialization:                        13.766     0.007   0.0% |
 LCAO eigensolver:                           0.617     0.000   0.0% |
  Calculate projections:                     0.009     0.009   0.0% |
  DenseAtomicCorrection:                     0.044     0.044   0.0% |
  Distribute overlap matrix:                 0.000     0.000   0.0% |
  Orbital Layouts:                           0.105     0.105   0.0% |
  Potential matrix:                          0.335     0.335   0.0% |
  Sum over cells:                            0.123     0.123   0.0% |
 LCAO to grid:                              11.752    11.752   0.1% |
 Set positions (LCAO WFS):                   1.390     0.235   0.0% |
  Basic WFS set positions:                   0.001     0.001   0.0% |
  Basis functions set positions:             0.000     0.000   0.0% |
  P tci:                                     0.968     0.968   0.0% |
  ST tci:                                    0.161     0.161   0.0% |
  mktci:                                     0.025     0.025   0.0% |
PWDescriptor:                                0.008     0.008   0.0% |
Redistribute:                                0.021     0.021   0.0% |
SCF-cycle:                                 635.046     0.223   0.0% |
 Davidson:                                 349.782    72.461   0.7% |
  Apply H:                                  58.898    58.227   0.5% |
   HMM T:                                    0.671     0.671   0.0% |
  Subspace diag:                            67.893     0.038   0.0% |
   calc_h_matrix:                           62.445     4.183   0.0% |
    Apply H:                                58.262    57.495   0.5% |
     HMM T:                                  0.767     0.767   0.0% |
   diagonalize:                              0.250     0.250   0.0% |
   rotate_psi:                               5.160     5.160   0.0% |
  calc. matrices:                          138.084    20.506   0.2% |
   Apply H:                                117.577   116.238   1.1% |
    HMM T:                                   1.339     1.339   0.0% |
  diagonalize:                               1.961     1.961   0.0% |
  rotate_psi:                               10.486    10.486   0.1% |
 Density:                                   86.861     0.002   0.0% |
  Atomic density matrices:                   0.439     0.439   0.0% |
  Mix:                                      58.082    58.082   0.5% |
  Multipole moments:                         0.097     0.097   0.0% |
  Pseudo density:                           28.241    28.239   0.3% |
   Symmetrize density:                       0.002     0.002   0.0% |
 Hamiltonian:                              194.891     0.346   0.0% |
  Atomic:                                  105.931     0.411   0.0% |
   XC Correction:                          105.520   105.520   1.0% |
  Calculate atomic Hamiltonians:            63.400    63.400   0.6% |
  Communicate:                               0.001     0.001   0.0% |
  Poisson:                                   0.227     0.227   0.0% |
  XC 3D grid:                               24.987    24.987   0.2% |
 Orthonormalize:                             3.290     0.003   0.0% |
  calc_s_matrix:                             0.405     0.405   0.0% |
  inverse-cholesky:                          0.010     0.010   0.0% |
  projections:                               2.422     2.422   0.0% |
  rotate_psi_s:                              0.450     0.450   0.0% |
Set symmetry:                                0.000     0.000   0.0% |
Other:                                   10052.580 10052.580  93.5% |------------------------------------|
-------------------------------------------------------------------
Total:                                             10752.203 100.0%

Memory usage: 4.13 GiB
Date: Tue Nov 25 03:13:44 2025
