
  ___ ___ ___ _ _ _  
 |   |   |_  | | | | 
 | | | | | . | | | | 
 |__ |  _|___|_____|  25.7.0
 |___|_|             

User:   tew@Mathuss-MacBook-Air-357.local
Date:   Tue Nov 25 00:14:31 2025
Arch:   arm64
Pid:    76608
CWD:    /Users/tew/Documents/Project/GitHub/chem-com
Python: 3.13.5
gpaw:   /Users/tew/Documents/Project/GitHub/chem-com/.venv/lib/python3.13/site-packages/gpaw
_gpaw:  /Users/tew/Documents/Project/GitHub/chem-com/.venv/lib/python3.13/site-packages/
        _gpaw.cpython-313-darwin.so
ase:    /Users/tew/Documents/Project/GitHub/chem-com/.venv/lib/python3.13/site-packages/ase (version 3.26.0)
numpy:  /Users/tew/Documents/Project/GitHub/chem-com/.venv/lib/python3.13/site-packages/numpy (version 2.3.5)
scipy:  /Users/tew/Documents/Project/GitHub/chem-com/.venv/lib/python3.13/site-packages/scipy (version 1.16.3)
libxc:  2.x.y
units:  Angstrom and eV
cores: 1
OpenMP: False
OMP_NUM_THREADS: 1

Input parameters:
  convergence: {density: 0.0001,
                eigenstates: 5e-06}
  kpts: [2 2 1]
  mode: {ecut: 200.0,
         name: pw}
  xc: PBE

System changes: positions, numbers, cell, pbc, initial_charges, initial_magmoms 

Initialize ...

species:
  Li:
    name: Lithium
    id: 830b4218f175192f93f959cfc0aad614
    Z: 3.0
    valence: 1
    core: 2
    charge: 0.0
    file: /Users/tew/Documents/Project/GitHub/chem-com/.venv/lib/python3.13/site-packages/gpaw_data/setups/Li.PBE.gz
    compensation charges: {type: gauss,
                           rc: 0.33,
                           lmax: 2}
    cutoffs: {filter: 1.91,
              core: 2.55}
    projectors:
      #              energy  rcut
      - 2s(1.00)    -2.874   1.058
      - 2p(0.00)    -1.090   1.058
      -  s          24.337   1.058
  
    # Using partial waves for Li as LCAO basis

Reference energy: -14803.510878  # eV

Spin-paired calculation

Convergence criteria:
 Maximum [total energy] change in last 3 cyles: 0.0005 eV / valence electron
 Maximum integral of absolute [dens]ity change: 0.0001 electrons / valence electron
 Maximum integral of absolute [eigenst]ate change: 5e-06 eV^2 / valence electron
 Maximum number of scf [iter]ations: 333
 (Square brackets indicate name in SCF output, whereas a 'c' in
 the SCF output indicates the quantity has converged.)

Symmetries present (total): 1

  ( 1  0  0)
  ( 0  1  0)
  ( 0  0  1)

4 k-points: 2 x 2 x 1 Monkhorst-Pack grid
2 k-points in the irreducible part of the Brillouin zone
       k-points in crystal coordinates                weights
   0:     0.25000000   -0.25000000    0.00000000          2/4
   1:     0.25000000    0.25000000    0.00000000          2/4

Wave functions: Plane wave expansion
  Cutoff energy: 200.000 eV
  Number of coefficients (min, max): 22683, 22683
  Pulay-stress correction: 0.000000 eV/Ang^3 (de/decut=0.000000)
  Using Numpy's FFT
  ScaLapack parameters: grid=1x1, blocksize=None
  Wavefunction extrapolation:
    Improved wavefunction reuse through dual PAW basis 

Occupation numbers: Fermi-Dirac:
  width: 0.1000  # eV
 

Eigensolver
   Davidson(niter=2) 

Densities:
  Coarse grid: 35*35*108 grid
  Fine grid: 70*70*216 grid
  Total Charge: 0.000000 

Density mixing:
  Method: separate
  Backend: pulay
  Linear mixing parameter: 0.05
  old densities: 5
  Damping of long wavelength oscillations: 50 

Hamiltonian:
  XC and Coulomb potentials evaluated on a 70*70*216 grid
  Using the PBE Exchange-Correlation functional
  External potential:
    NoExternalPotential
 

XC parameters: PBE with 2 nearest neighbor stencil

Memory estimate:
  Process memory now: 4231.58 MiB
  Calculator: 138.59 MiB
    Density: 60.32 MiB
      Arrays: 26.24 MiB
      Localized functions: 23.99 MiB
      Mixer: 10.09 MiB
    Hamiltonian: 17.65 MiB
      Arrays: 17.16 MiB
      XC: 0.00 MiB
      Poisson: 0.00 MiB
      vbar: 0.49 MiB
    Wavefunctions: 60.62 MiB
      Arrays psit_nG: 33.23 MiB
      Eigensolver: 18.70 MiB
      Projections: 0.53 MiB
      Projectors: 2.42 MiB
      PW-descriptor: 5.74 MiB

Total number of cores used: 1

Number of atoms: 73
Number of atomic orbitals: 292
Number of bands in calculation: 48
Number of valence electrons: 73
Bands to converge: occupied

... initialized

Initializing position-dependent things.

Density initialized from atomic densities
Creating initial wave functions:
  48 bands from LCAO basis set

       .-------------------------.  
      /|                         |  
     / |                         |  
    /  |                         |  
   /   |                         |  
  /    |                         |  
 *     |                         |  
 |     |                         |  
 |     |                         |  
 |     |                         |  
 |     |                         |  
 |     |                         |  
 |     |                         |  
 |     |  Li       Li       Li   |  
 |     |Li                       |  
 |     Li       Li        Li     |  
 |     |Li                       |  
 |     |      LLi     LiLi     Li|  
 |    Li  Li       Li       Li   |  
 |     Li   Li  Li  Li       Li  |  
 |     |Li       Li       Li     |  
 |     |      Li  Li  Li       Li|  
 |    Li  Li   Li  Li   Li  Li   |  
 |     |    Li      Li       Li  |  
 |     |Li       Li       Li     |  
 |   Li|      Li  Li  Li         |  
 |    Li  Li   Li  Li   Li  Li   |  
 | Li  |    Li      Li           |  
 |     |Li       Li       Li     |  
 Li    |  Li      Li             |  
 |   LLi      LLi     LiLi       |  
 |     |                         |  
 | Li  |    Li      Li           |  
 |     |                         |  
 Li    |  Li      Li             |  
 |     |                         |  
 |     |                         |  
 |     |                         |  
 |     |                         |  
 |     |                         |  
 |     .-------------------------.  
 |    /                         /   
 |   /                         /    
 |  /                         /     
 | /                         /      
 |/                         /       
 *-------------------------*        

Atomic positions and initial magnetic moments

Positions:
   0 Li     0.000000    0.000000   10.000000    ( 0.0000,  0.0000,  0.0000)
   1 Li     1.745000    1.745000   11.745000    ( 0.0000,  0.0000,  0.0000)
   2 Li     0.000000    0.000000   13.490000    ( 0.0000,  0.0000,  0.0000)
   3 Li     1.745000    1.745000   15.235000    ( 0.0000,  0.0000,  0.0000)
   4 Li     0.008140   -0.009158   16.935640    ( 0.0000,  0.0000,  0.0000)
   5 Li     1.744996    1.763853   18.602584    ( 0.0000,  0.0000,  0.0000)
   6 Li     0.005327   -0.041764   20.431472    ( 0.0000,  0.0000,  0.0000)
   7 Li     1.744997    2.006746   22.021753    ( 0.0000,  0.0000,  0.0000)
   8 Li     0.000000    3.490000   10.000000    ( 0.0000,  0.0000,  0.0000)
   9 Li     1.745000    5.235000   11.745000    ( 0.0000,  0.0000,  0.0000)
  10 Li     0.000000    3.490000   13.490000    ( 0.0000,  0.0000,  0.0000)
  11 Li     1.745000    5.235000   15.235000    ( 0.0000,  0.0000,  0.0000)
  12 Li    -0.027448    3.480854   16.914383    ( 0.0000,  0.0000,  0.0000)
  13 Li     1.744997    5.225566   18.562149    ( 0.0000,  0.0000,  0.0000)
  14 Li    -0.125223    3.448302   20.323081    ( 0.0000,  0.0000,  0.0000)
  15 Li     1.745002    5.104138   21.709433    ( 0.0000,  0.0000,  0.0000)
  16 Li     0.000000    6.980000   10.000000    ( 0.0000,  0.0000,  0.0000)
  17 Li     1.745000    8.725000   11.745000    ( 0.0000,  0.0000,  0.0000)
  18 Li     0.000000    6.980000   13.490000    ( 0.0000,  0.0000,  0.0000)
  19 Li     1.745000    8.725000   15.235000    ( 0.0000,  0.0000,  0.0000)
  20 Li    -0.009646    6.998301   16.925078    ( 0.0000,  0.0000,  0.0000)
  21 Li     1.744995    8.715575   18.642977    ( 0.0000,  0.0000,  0.0000)
  22 Li    -0.059920    7.063459   20.377321    ( 0.0000,  0.0000,  0.0000)
  23 Li     1.744990    8.594124   22.334228    ( 0.0000,  0.0000,  0.0000)
  24 Li     3.490000    0.000000   10.000000    ( 0.0000,  0.0000,  0.0000)
  25 Li     5.235000    1.745000   11.745000    ( 0.0000,  0.0000,  0.0000)
  26 Li     3.490000    0.000000   13.490000    ( 0.0000,  0.0000,  0.0000)
  27 Li     5.235000    1.745000   15.235000    ( 0.0000,  0.0000,  0.0000)
  28 Li     3.481858   -0.009156   16.935647    ( 0.0000,  0.0000,  0.0000)
  29 Li     5.273717    1.696850   18.627579    ( 0.0000,  0.0000,  0.0000)
  30 Li     3.484667   -0.041765   20.431470    ( 0.0000,  0.0000,  0.0000)
  31 Li     5.111032    1.738097   22.302373    ( 0.0000,  0.0000,  0.0000)
  32 Li     3.490000    3.490000   10.000000    ( 0.0000,  0.0000,  0.0000)
  33 Li     5.235000    5.235000   11.745000    ( 0.0000,  0.0000,  0.0000)
  34 Li     3.490000    3.490000   13.490000    ( 0.0000,  0.0000,  0.0000)
  35 Li     5.235000    5.235000   15.235000    ( 0.0000,  0.0000,  0.0000)
  36 Li     3.517440    3.480855   16.914384    ( 0.0000,  0.0000,  0.0000)
  37 Li     5.240227    5.259090   18.635211    ( 0.0000,  0.0000,  0.0000)
  38 Li     3.615214    3.448301   20.323076    ( 0.0000,  0.0000,  0.0000)
  39 Li     4.976704    5.238441   22.318233    ( 0.0000,  0.0000,  0.0000)
  40 Li     3.490000    6.980000   10.000000    ( 0.0000,  0.0000,  0.0000)
  41 Li     5.235000    8.725000   11.745000    ( 0.0000,  0.0000,  0.0000)
  42 Li     3.490000    6.980000   13.490000    ( 0.0000,  0.0000,  0.0000)
  43 Li     5.235000    8.725000   15.235000    ( 0.0000,  0.0000,  0.0000)
  44 Li     3.499644    6.998299   16.925084    ( 0.0000,  0.0000,  0.0000)
  45 Li     5.307247    8.749063   18.619829    ( 0.0000,  0.0000,  0.0000)
  46 Li     3.549913    7.063460   20.377318    ( 0.0000,  0.0000,  0.0000)
  47 Li     5.245334    8.728451   22.286379    ( 0.0000,  0.0000,  0.0000)
  48 Li     6.980000    0.000000   10.000000    ( 0.0000,  0.0000,  0.0000)
  49 Li     8.725000    1.745000   11.745000    ( 0.0000,  0.0000,  0.0000)
  50 Li     6.980000    0.000000   13.490000    ( 0.0000,  0.0000,  0.0000)
  51 Li     8.725000    1.745000   15.235000    ( 0.0000,  0.0000,  0.0000)
  52 Li     6.980005    0.008645   16.855933    ( 0.0000,  0.0000,  0.0000)
  53 Li     8.686284    1.696841   18.627579    ( 0.0000,  0.0000,  0.0000)
  54 Li     6.980001    0.023538   20.484143    ( 0.0000,  0.0000,  0.0000)
  55 Li     8.848965    1.738099   22.302376    ( 0.0000,  0.0000,  0.0000)
  56 Li     6.980000    3.490000   10.000000    ( 0.0000,  0.0000,  0.0000)
  57 Li     8.725000    5.235000   11.745000    ( 0.0000,  0.0000,  0.0000)
  58 Li     6.980000    3.490000   13.490000    ( 0.0000,  0.0000,  0.0000)
  59 Li     8.725000    5.235000   15.235000    ( 0.0000,  0.0000,  0.0000)
  60 Li     6.980003    3.498648   16.946343    ( 0.0000,  0.0000,  0.0000)
  61 Li     8.719769    5.259095   18.635213    ( 0.0000,  0.0000,  0.0000)
  62 Li     6.980001    3.513547   20.485703    ( 0.0000,  0.0000,  0.0000)
  63 Li     8.983299    5.238441   22.318237    ( 0.0000,  0.0000,  0.0000)
  64 Li     6.980000    6.980000   10.000000    ( 0.0000,  0.0000,  0.0000)
  65 Li     8.725000    8.725000   11.745000    ( 0.0000,  0.0000,  0.0000)
  66 Li     6.980000    6.980000   13.490000    ( 0.0000,  0.0000,  0.0000)
  67 Li     8.725000    8.725000   15.235000    ( 0.0000,  0.0000,  0.0000)
  68 Li     6.980004    6.962711   16.901241    ( 0.0000,  0.0000,  0.0000)
  69 Li     8.652764    8.749065   18.619825    ( 0.0000,  0.0000,  0.0000)
  70 Li     6.980002    6.932914   20.484904    ( 0.0000,  0.0000,  0.0000)
  71 Li     8.714651    8.728451   22.286381    ( 0.0000,  0.0000,  0.0000)
  72 Li     1.745000    4.071667   23.980707    ( 0.0000,  0.0000,  0.0000)

Unit cell:
           periodic     x           y           z      points  spacing
  1. axis:    yes   10.470000    0.000000    0.000000    35     0.2991
  2. axis:    yes    0.000000   10.470000    0.000000    35     0.2991
  3. axis:    no     0.000000    0.000000   32.215000   108     0.2983

  Lengths:  10.470000  10.470000  32.215000
  Angles:   90.000000  90.000000  90.000000

Effective grid spacing dv^(1/3) = 0.2989

     iter     time        total  log10-change:
                         energy   eigst   dens
iter:   1 00:22:41  -137.459154
iter:   2 00:22:45  -133.157825   -0.74  -0.65
iter:   3 00:22:49  -132.769250   -1.23  -0.86
iter:   4 00:22:53  -132.798993   -1.57  -0.90
iter:   5 00:22:58  -131.827818   -1.76  -0.89
iter:   6 00:23:02  -132.057961   -1.39  -1.09
iter:   7 00:23:06  -131.487736   -2.25  -1.07
iter:   8 00:23:10  -131.514522   -1.57  -1.24
iter:   9 00:23:14  -131.314860   -2.60  -1.32
iter:  10 00:23:18  -131.318280   -2.80  -1.55
iter:  11 00:23:23  -131.319477c  -2.96  -1.58
iter:  12 00:23:27  -131.308087c  -3.18  -1.61
iter:  13 00:23:31  -131.327923c  -2.90  -1.71
iter:  14 00:23:36  -131.309338c  -3.67  -1.75
iter:  15 00:23:40  -131.302979c  -3.39  -1.95
iter:  16 00:23:44  -131.301239c  -3.59  -2.19
iter:  17 00:23:48  -131.296430c  -4.19  -2.11
iter:  18 00:23:53  -131.295637c  -4.00  -2.27
iter:  19 00:23:57  -131.296707c  -4.41  -2.72
iter:  20 00:24:01  -131.295710c  -4.79  -2.72
iter:  21 00:24:05  -131.295623c  -5.32c -2.94
iter:  22 00:24:09  -131.295595c  -4.97  -3.00
iter:  23 00:24:13  -131.295181c  -4.96  -3.10
iter:  24 00:24:17  -131.295038c  -5.19  -3.12
iter:  25 00:24:21  -131.295046c  -5.15  -3.37
iter:  26 00:24:25  -131.295012c  -5.15  -3.51
iter:  27 00:24:29  -131.294883c  -5.31c -3.57
iter:  28 00:24:32  -131.294859c  -5.31c -3.60
iter:  29 00:24:36  -131.294787c  -5.67c -3.69
iter:  30 00:24:40  -131.294732c  -5.52c -3.86
iter:  31 00:24:44  -131.294709c  -5.46c -3.89
iter:  32 00:24:47  -131.294735c  -5.21  -3.93
iter:  33 00:24:51  -131.294686c  -5.53c -3.99
iter:  34 00:24:55  -131.294610c  -5.23  -4.18c
iter:  35 00:24:58  -131.294586c  -5.48c -4.23c

Converged after 35 iterations.

Dipole moment: (2.894177, 1.178498, 0.280059) |e|*Ang

Energy contributions relative to reference atoms: (reference = -14803.510878)

Kinetic:       +103.012480
Potential:      -92.479833
External:        +0.000000
XC:            -140.731007
Entropy (-ST):   -1.208903
Local:           -0.491775
SIC:             +0.000000
--------------------------
Free energy:   -131.899038
Extrapolated:  -131.294586

Showing all kpts
 Kpt  Band  Eigenvalues  Occupancy
  0    34     -1.58326    1.60871
  0    35     -1.57316    1.57594
  0    36     -1.38470    0.72159
  0    37     -1.34706    0.55845

  1    34     -1.58326    1.60871
  1    35     -1.57316    1.57594
  1    36     -1.38470    0.72159
  1    37     -1.34706    0.55845


Fermi level: -1.44189

Gap: 0.188 eV
Transition (v -> c):
  (s=0, k=0, n=35, [0.25, -0.25, 0.00]) -> (s=0, k=1, n=36, [0.25, 0.25, 0.00])
Direct/indirect transitions are different
Direct gap: 0.188 eV
Transition at: (s=0, k=1, n=35, [0.25, 0.25, 0.00])

Forces in eV/Ang:
  0 Li    0.00276   -0.00215   -0.03017
  1 Li    0.00000    0.00009    0.06352
  2 Li    0.00089    0.00016    0.02376
  3 Li    0.00000    0.00586   -0.01669
  4 Li   -0.00993   -0.00170    0.00451
  5 Li   -0.00000   -0.00658    0.06717
  6 Li    0.01516    0.00477   -0.03992
  7 Li    0.00000   -0.23345   -0.04598
  8 Li   -0.00226    0.00016   -0.03480
  9 Li    0.00000   -0.00106    0.06472
 10 Li    0.00002    0.00044    0.00252
 11 Li   -0.00000   -0.00327   -0.00873
 12 Li   -0.00535   -0.00120    0.00478
 13 Li   -0.00000    0.00667    0.06121
 14 Li   -0.01031   -0.00112   -0.02119
 15 Li   -0.00000    0.30965   -0.32956
 16 Li    0.00080    0.00214   -0.03181
 17 Li    0.00000    0.00095    0.05792
 18 Li    0.00107   -0.00087    0.01456
 19 Li    0.00000   -0.00314   -0.03646
 20 Li   -0.00792    0.00328    0.00517
 21 Li    0.00000    0.00300    0.00054
 22 Li    0.01141   -0.00595   -0.04599
 23 Li    0.00000   -0.02018   -0.03240
 24 Li   -0.00276   -0.00215   -0.03017
 25 Li   -0.00029    0.00251    0.05998
 26 Li   -0.00089    0.00016    0.02376
 27 Li   -0.00342    0.00195   -0.04175
 28 Li    0.00994   -0.00171    0.00450
 29 Li    0.01040   -0.00650    0.01181
 30 Li   -0.01516    0.00477   -0.03992
 31 Li    0.00277    0.02979    0.01192
 32 Li    0.00226    0.00016   -0.03480
 33 Li    0.00087   -0.00208    0.06056
 34 Li   -0.00002    0.00044    0.00252
 35 Li   -0.00584   -0.00121   -0.03588
 36 Li    0.00536   -0.00120    0.00478
 37 Li    0.01261    0.00696    0.01066
 38 Li    0.01032   -0.00112   -0.02118
 39 Li   -0.01460   -0.02655    0.01303
 40 Li   -0.00080    0.00214   -0.03181
 41 Li   -0.00242   -0.00062    0.05747
 42 Li   -0.00107   -0.00087    0.01456
 43 Li   -0.00129   -0.00079   -0.04965
 44 Li    0.00792    0.00329    0.00516
 45 Li   -0.00456    0.00005    0.01613
 46 Li   -0.01141   -0.00595   -0.04599
 47 Li    0.00598   -0.00059   -0.02288
 48 Li    0.00000    0.00172   -0.03020
 49 Li    0.00028    0.00251    0.05998
 50 Li    0.00000    0.00137    0.01324
 51 Li    0.00342    0.00195   -0.04176
 52 Li   -0.00001   -0.00258    0.02491
 53 Li   -0.01040   -0.00649    0.01181
 54 Li   -0.00000    0.01628    0.00837
 55 Li   -0.00276    0.02978    0.01192
 56 Li   -0.00000    0.00191   -0.02940
 57 Li   -0.00087   -0.00208    0.06056
 58 Li    0.00000    0.00028    0.03124
 59 Li    0.00584   -0.00121   -0.03588
 60 Li   -0.00000   -0.00373    0.00748
 61 Li   -0.01261    0.00695    0.01066
 62 Li   -0.00000   -0.00166   -0.02225
 63 Li    0.01459   -0.02655    0.01303
 64 Li   -0.00000   -0.00349   -0.02975
 65 Li    0.00242   -0.00062    0.05747
 66 Li    0.00000   -0.00209    0.02221
 67 Li    0.00129   -0.00079   -0.04965
 68 Li   -0.00000    0.00664    0.01341
 69 Li    0.00455    0.00005    0.01613
 70 Li   -0.00000   -0.01265   -0.00139
 71 Li   -0.00597   -0.00059   -0.02288
 72 Li   -0.00000   -0.06238    0.26185

System changes: positions 

Initializing position-dependent things.

Density initialized from wave functions
       .-------------------------.  
      /|                         |  
     / |                         |  
    /  |                         |  
   /   |                         |  
  /    |                         |  
 *     |                         |  
 |     |                         |  
 |     |                         |  
 |     |                         |  
 |     |                         |  
 |     |                         |  
 |     |                         |  
 |     |  Li       Li       Li   |  
 |     |Li                       |  
 |     Li       Li        Li     |  
 |     |Li                       |  
 |     |      LLi     LiLi     Li|  
 |    Li  Li       Li       Li   |  
 |     Li   Li  Li  Li       Li  |  
 |     |Li       Li       Li     |  
 |     |      Li  Li  Li       Li|  
 |    Li  Li   Li  Li   Li  Li   |  
 |     |    Li      Li       Li  |  
 |     |Li       Li       Li     |  
 |   Li|      Li  Li  Li         |  
 |    Li  Li   Li  Li   Li  Li   |  
 | Li  |    Li      Li           |  
 |     |Li       Li       Li     |  
 Li    |  Li      Li             |  
 |   LLi      LLi     LiLi       |  
 |     |                         |  
 | Li  |    Li      Li           |  
 |     |                         |  
 Li    |  Li      Li             |  
 |     |                         |  
 |     |                         |  
 |     |                         |  
 |     |                         |  
 |     |                         |  
 |     .-------------------------.  
 |    /                         /   
 |   /                         /    
 |  /                         /     
 | /                         /      
 |/                         /       
 *-------------------------*        

Atomic positions and initial magnetic moments

Positions:
   0 Li     0.000000    0.000000   10.000000    ( 0.0000,  0.0000,  0.0000)
   1 Li     1.745000    1.745000   11.745000    ( 0.0000,  0.0000,  0.0000)
   2 Li     0.000000    0.000000   13.490000    ( 0.0000,  0.0000,  0.0000)
   3 Li     1.745000    1.745000   15.235000    ( 0.0000,  0.0000,  0.0000)
   4 Li     0.008038   -0.009177   16.935683    ( 0.0000,  0.0000,  0.0000)
   5 Li     1.744996    1.763785   18.603248    ( 0.0000,  0.0000,  0.0000)
   6 Li     0.005466   -0.041725   20.431061    ( 0.0000,  0.0000,  0.0000)
   7 Li     1.744997    2.004385   22.021230    ( 0.0000,  0.0000,  0.0000)
   8 Li     0.000000    3.490000   10.000000    ( 0.0000,  0.0000,  0.0000)
   9 Li     1.745000    5.235000   11.745000    ( 0.0000,  0.0000,  0.0000)
  10 Li     0.000000    3.490000   13.490000    ( 0.0000,  0.0000,  0.0000)
  11 Li     1.745000    5.235000   15.235000    ( 0.0000,  0.0000,  0.0000)
  12 Li    -0.027501    3.480846   16.914431    ( 0.0000,  0.0000,  0.0000)
  13 Li     1.744997    5.225631   18.562769    ( 0.0000,  0.0000,  0.0000)
  14 Li    -0.125326    3.448308   20.322869    ( 0.0000,  0.0000,  0.0000)
  15 Li     1.745002    5.107208   21.706201    ( 0.0000,  0.0000,  0.0000)
  16 Li     0.000000    6.980000   10.000000    ( 0.0000,  0.0000,  0.0000)
  17 Li     1.745000    8.725000   11.745000    ( 0.0000,  0.0000,  0.0000)
  18 Li     0.000000    6.980000   13.490000    ( 0.0000,  0.0000,  0.0000)
  19 Li     1.745000    8.725000   15.235000    ( 0.0000,  0.0000,  0.0000)
  20 Li    -0.009722    6.998332   16.925132    ( 0.0000,  0.0000,  0.0000)
  21 Li     1.744995    8.715609   18.642982    ( 0.0000,  0.0000,  0.0000)
  22 Li    -0.059793    7.063391   20.376872    ( 0.0000,  0.0000,  0.0000)
  23 Li     1.744990    8.593975   22.333904    ( 0.0000,  0.0000,  0.0000)
  24 Li     3.490000    0.000000   10.000000    ( 0.0000,  0.0000,  0.0000)
  25 Li     5.235000    1.745000   11.745000    ( 0.0000,  0.0000,  0.0000)
  26 Li     3.490000    0.000000   13.490000    ( 0.0000,  0.0000,  0.0000)
  27 Li     5.235000    1.745000   15.235000    ( 0.0000,  0.0000,  0.0000)
  28 Li     3.481961   -0.009175   16.935690    ( 0.0000,  0.0000,  0.0000)
  29 Li     5.273814    1.696790   18.627698    ( 0.0000,  0.0000,  0.0000)
  30 Li     3.484528   -0.041726   20.431060    ( 0.0000,  0.0000,  0.0000)
  31 Li     5.111032    1.738396   22.302495    ( 0.0000,  0.0000,  0.0000)
  32 Li     3.490000    3.490000   10.000000    ( 0.0000,  0.0000,  0.0000)
  33 Li     5.235000    5.235000   11.745000    ( 0.0000,  0.0000,  0.0000)
  34 Li     3.490000    3.490000   13.490000    ( 0.0000,  0.0000,  0.0000)
  35 Li     5.235000    5.235000   15.235000    ( 0.0000,  0.0000,  0.0000)
  36 Li     3.517493    3.480847   16.914432    ( 0.0000,  0.0000,  0.0000)
  37 Li     5.240360    5.259164   18.635316    ( 0.0000,  0.0000,  0.0000)
  38 Li     3.615317    3.448307   20.322864    ( 0.0000,  0.0000,  0.0000)
  39 Li     4.976585    5.238177   22.318360    ( 0.0000,  0.0000,  0.0000)
  40 Li     3.490000    6.980000   10.000000    ( 0.0000,  0.0000,  0.0000)
  41 Li     5.235000    8.725000   11.745000    ( 0.0000,  0.0000,  0.0000)
  42 Li     3.490000    6.980000   13.490000    ( 0.0000,  0.0000,  0.0000)
  43 Li     5.235000    8.725000   15.235000    ( 0.0000,  0.0000,  0.0000)
  44 Li     3.499719    6.998330   16.925138    ( 0.0000,  0.0000,  0.0000)
  45 Li     5.307201    8.749054   18.619990    ( 0.0000,  0.0000,  0.0000)
  46 Li     3.549786    7.063392   20.376869    ( 0.0000,  0.0000,  0.0000)
  47 Li     5.245394    8.728444   22.286150    ( 0.0000,  0.0000,  0.0000)
  48 Li     6.980000    0.000000   10.000000    ( 0.0000,  0.0000,  0.0000)
  49 Li     8.725000    1.745000   11.745000    ( 0.0000,  0.0000,  0.0000)
  50 Li     6.980000    0.000000   13.490000    ( 0.0000,  0.0000,  0.0000)
  51 Li     8.725000    1.745000   15.235000    ( 0.0000,  0.0000,  0.0000)
  52 Li     6.980004    0.008621   16.856191    ( 0.0000,  0.0000,  0.0000)
  53 Li     8.686186    1.696781   18.627699    ( 0.0000,  0.0000,  0.0000)
  54 Li     6.980001    0.023706   20.484227    ( 0.0000,  0.0000,  0.0000)
  55 Li     8.848964    1.738397   22.302498    ( 0.0000,  0.0000,  0.0000)
  56 Li     6.980000    3.490000   10.000000    ( 0.0000,  0.0000,  0.0000)
  57 Li     8.725000    5.235000   11.745000    ( 0.0000,  0.0000,  0.0000)
  58 Li     6.980000    3.490000   13.490000    ( 0.0000,  0.0000,  0.0000)
  59 Li     8.725000    5.235000   15.235000    ( 0.0000,  0.0000,  0.0000)
  60 Li     6.980003    3.498607   16.946418    ( 0.0000,  0.0000,  0.0000)
  61 Li     8.719637    5.259170   18.635318    ( 0.0000,  0.0000,  0.0000)
  62 Li     6.980001    3.513521   20.485480    ( 0.0000,  0.0000,  0.0000)
  63 Li     8.983417    5.238176   22.318364    ( 0.0000,  0.0000,  0.0000)
  64 Li     6.980000    6.980000   10.000000    ( 0.0000,  0.0000,  0.0000)
  65 Li     8.725000    8.725000   11.745000    ( 0.0000,  0.0000,  0.0000)
  66 Li     6.980000    6.980000   13.490000    ( 0.0000,  0.0000,  0.0000)
  67 Li     8.725000    8.725000   15.235000    ( 0.0000,  0.0000,  0.0000)
  68 Li     6.980004    6.962779   16.901366    ( 0.0000,  0.0000,  0.0000)
  69 Li     8.652810    8.749056   18.619987    ( 0.0000,  0.0000,  0.0000)
  70 Li     6.980002    6.932792   20.484890    ( 0.0000,  0.0000,  0.0000)
  71 Li     8.714591    8.728444   22.286153    ( 0.0000,  0.0000,  0.0000)
  72 Li     1.745000    4.070808   23.983326    ( 0.0000,  0.0000,  0.0000)

Unit cell:
           periodic     x           y           z      points  spacing
  1. axis:    yes   10.470000    0.000000    0.000000    35     0.2991
  2. axis:    yes    0.000000   10.470000    0.000000    35     0.2991
  3. axis:    no     0.000000    0.000000   32.215000   108     0.2983

  Lengths:  10.470000  10.470000  32.215000
  Angles:   90.000000  90.000000  90.000000

Effective grid spacing dv^(1/3) = 0.2989

     iter     time        total  log10-change:
                         energy   eigst   dens
iter:   1 00:33:38  -131.298240   -4.68
iter:   2 00:33:43  -131.298546   -4.91  -2.71
iter:   3 00:33:47  -131.298415c  -5.02  -2.79
iter:   4 00:33:51  -131.298145c  -5.28  -2.86
iter:   5 00:33:54  -131.297787c  -5.26  -3.25
iter:   6 00:33:58  -131.297953c  -5.46c -3.47
iter:   7 00:34:01  -131.297970c  -5.90c -3.51
iter:   8 00:34:05  -131.297820c  -5.54c -3.62
iter:   9 00:34:10  -131.297825c  -6.37c -4.03c

Converged after 9 iterations.

Dipole moment: (2.894197, 1.175914, 0.280801) |e|*Ang

Energy contributions relative to reference atoms: (reference = -14803.510878)

Kinetic:       +102.992017
Potential:      -92.471194
External:        +0.000000
XC:            -140.725262
Entropy (-ST):   -1.209937
Local:           -0.488417
SIC:             +0.000000
--------------------------
Free energy:   -131.902793
Extrapolated:  -131.297825

Showing all kpts
 Kpt  Band  Eigenvalues  Occupancy
  0    34     -1.58316    1.60841
  0    35     -1.57302    1.57550
  0    36     -1.38480    0.72212
  0    37     -1.34705    0.55846

  1    34     -1.58316    1.60841
  1    35     -1.57302    1.57550
  1    36     -1.38480    0.72212
  1    37     -1.34705    0.55846


Fermi level: -1.44188

Gap: 0.188 eV
Transition (v -> c):
  (s=0, k=1, n=35, [0.25, 0.25, 0.00]) -> (s=0, k=1, n=36, [0.25, 0.25, 0.00])
No difference between direct/indirect transitions

Forces in eV/Ang:
  0 Li    0.00270   -0.00219   -0.03040
  1 Li    0.00000    0.00007    0.06342
  2 Li    0.00082    0.00014    0.02388
  3 Li    0.00000    0.00583   -0.01652
  4 Li   -0.00977   -0.00164    0.00436
  5 Li   -0.00000   -0.00667    0.06629
  6 Li    0.01476    0.00518   -0.03927
  7 Li    0.00000   -0.22912   -0.04441
  8 Li   -0.00231    0.00016   -0.03499
  9 Li    0.00000   -0.00099    0.06452
 10 Li    0.00011    0.00047    0.00270
 11 Li   -0.00000   -0.00326   -0.00883
 12 Li   -0.00525   -0.00131    0.00451
 13 Li   -0.00000    0.00675    0.05998
 14 Li   -0.00976   -0.00138   -0.02090
 15 Li   -0.00000    0.30172   -0.31641
 16 Li    0.00078    0.00216   -0.03203
 17 Li    0.00000    0.00090    0.05772
 18 Li    0.00107   -0.00087    0.01466
 19 Li    0.00000   -0.00313   -0.03628
 20 Li   -0.00794    0.00332    0.00475
 21 Li    0.00000    0.00269    0.00045
 22 Li    0.01036   -0.00558   -0.04618
 23 Li    0.00000   -0.01976   -0.03224
 24 Li   -0.00270   -0.00219   -0.03040
 25 Li   -0.00029    0.00251    0.05982
 26 Li   -0.00082    0.00014    0.02388
 27 Li   -0.00351    0.00193   -0.04162
 28 Li    0.00977   -0.00165    0.00435
 29 Li    0.01026   -0.00649    0.01161
 30 Li   -0.01476    0.00518   -0.03927
 31 Li    0.00306    0.02911    0.01213
 32 Li    0.00231    0.00016   -0.03499
 33 Li    0.00086   -0.00206    0.06042
 34 Li   -0.00011    0.00047    0.00270
 35 Li   -0.00588   -0.00115   -0.03569
 36 Li    0.00526   -0.00131    0.00451
 37 Li    0.01227    0.00679    0.01064
 38 Li    0.00977   -0.00138   -0.02090
 39 Li   -0.01394   -0.02583    0.01295
 40 Li   -0.00078    0.00216   -0.03203
 41 Li   -0.00241   -0.00063    0.05745
 42 Li   -0.00107   -0.00087    0.01466
 43 Li   -0.00138   -0.00083   -0.04944
 44 Li    0.00795    0.00332    0.00474
 45 Li   -0.00383    0.00022    0.01555
 46 Li   -0.01036   -0.00558   -0.04618
 47 Li    0.00603   -0.00055   -0.02238
 48 Li    0.00000    0.00180   -0.03049
 49 Li    0.00029    0.00251    0.05982
 50 Li    0.00000    0.00133    0.01332
 51 Li    0.00351    0.00193   -0.04163
 52 Li   -0.00001   -0.00259    0.02456
 53 Li   -0.01026   -0.00649    0.01161
 54 Li   -0.00000    0.01612    0.00824
 55 Li   -0.00305    0.02910    0.01213
 56 Li   -0.00000    0.00184   -0.02967
 57 Li   -0.00086   -0.00206    0.06042
 58 Li    0.00000    0.00024    0.03119
 59 Li    0.00588   -0.00115   -0.03570
 60 Li   -0.00000   -0.00366    0.00734
 61 Li   -0.01227    0.00678    0.01064
 62 Li   -0.00000   -0.00160   -0.02135
 63 Li    0.01394   -0.02583    0.01295
 64 Li   -0.00000   -0.00355   -0.02993
 65 Li    0.00241   -0.00063    0.05745
 66 Li    0.00000   -0.00199    0.02231
 67 Li    0.00138   -0.00083   -0.04945
 68 Li   -0.00000    0.00657    0.01320
 69 Li    0.00382    0.00021    0.01555
 70 Li   -0.00000   -0.01259   -0.00105
 71 Li   -0.00602   -0.00055   -0.02238
 72 Li   -0.00000   -0.05983    0.24967

System changes: positions 

Initializing position-dependent things.

Density initialized from wave functions
       .-------------------------.  
      /|                         |  
     / |                         |  
    /  |                         |  
   /   |                         |  
  /    |                         |  
 *     |                         |  
 |     |                         |  
 |     |                         |  
 |     |                         |  
 |     |                         |  
 |     |                         |  
 |     |                         |  
 |     |  Li       Li       Li   |  
 |     |Li                       |  
 |     Li       Li        Li     |  
 |     |Li                       |  
 |     |      LLi     LiLi     Li|  
 |    Li  Li       Li       Li   |  
 |     Li   Li  Li  Li       Li  |  
 |     |Li       Li       Li     |  
 |     |      Li  Li  Li       Li|  
 |    Li  Li   Li  Li   Li  Li   |  
 |     |    Li      Li       Li  |  
 |     |Li       Li       Li     |  
 |   Li|      Li  Li  Li         |  
 |    Li  Li   Li  Li   Li  Li   |  
 | Li  |    Li      Li           |  
 |     |Li       Li       Li     |  
 Li    |  Li      Li             |  
 |   LLi      LLi     LiLi       |  
 |     |                         |  
 | Li  |    Li      Li           |  
 |     |                         |  
 Li    |  Li      Li             |  
 |     |                         |  
 |     |                         |  
 |     |                         |  
 |     |                         |  
 |     |                         |  
 |     .-------------------------.  
 |    /                         /   
 |   /                         /    
 |  /                         /     
 | /                         /      
 |/                         /       
 *-------------------------*        

Atomic positions and initial magnetic moments

Positions:
   0 Li     0.000000    0.000000   10.000000    ( 0.0000,  0.0000,  0.0000)
   1 Li     1.745000    1.745000   11.745000    ( 0.0000,  0.0000,  0.0000)
   2 Li     0.000000    0.000000   13.490000    ( 0.0000,  0.0000,  0.0000)
   3 Li     1.745000    1.745000   15.235000    ( 0.0000,  0.0000,  0.0000)
   4 Li     0.007833   -0.009214   16.935767    ( 0.0000,  0.0000,  0.0000)
   5 Li     1.744996    1.763648   18.604568    ( 0.0000,  0.0000,  0.0000)
   6 Li     0.005739   -0.041642   20.430247    ( 0.0000,  0.0000,  0.0000)
   7 Li     1.744997    1.999703   22.020200    ( 0.0000,  0.0000,  0.0000)
   8 Li     0.000000    3.490000   10.000000    ( 0.0000,  0.0000,  0.0000)
   9 Li     1.745000    5.235000   11.745000    ( 0.0000,  0.0000,  0.0000)
  10 Li     0.000000    3.490000   13.490000    ( 0.0000,  0.0000,  0.0000)
  11 Li     1.745000    5.235000   15.235000    ( 0.0000,  0.0000,  0.0000)
  12 Li    -0.027607    3.480828   16.914524    ( 0.0000,  0.0000,  0.0000)
  13 Li     1.744997    5.225762   18.563998    ( 0.0000,  0.0000,  0.0000)
  14 Li    -0.125527    3.448316   20.322447    ( 0.0000,  0.0000,  0.0000)
  15 Li     1.745002    5.113272   21.699869    ( 0.0000,  0.0000,  0.0000)
  16 Li     0.000000    6.980000   10.000000    ( 0.0000,  0.0000,  0.0000)
  17 Li     1.745000    8.725000   11.745000    ( 0.0000,  0.0000,  0.0000)
  18 Li     0.000000    6.980000   13.490000    ( 0.0000,  0.0000,  0.0000)
  19 Li     1.745000    8.725000   15.235000    ( 0.0000,  0.0000,  0.0000)
  20 Li    -0.009874    6.998395   16.925235    ( 0.0000,  0.0000,  0.0000)
  21 Li     1.744995    8.715673   18.642992    ( 0.0000,  0.0000,  0.0000)
  22 Li    -0.059550    7.063259   20.375970    ( 0.0000,  0.0000,  0.0000)
  23 Li     1.744990    8.593680   22.333257    ( 0.0000,  0.0000,  0.0000)
  24 Li     3.490000    0.000000   10.000000    ( 0.0000,  0.0000,  0.0000)
  25 Li     5.235000    1.745000   11.745000    ( 0.0000,  0.0000,  0.0000)
  26 Li     3.490000    0.000000   13.490000    ( 0.0000,  0.0000,  0.0000)
  27 Li     5.235000    1.745000   15.235000    ( 0.0000,  0.0000,  0.0000)
  28 Li     3.482166   -0.009212   16.935775    ( 0.0000,  0.0000,  0.0000)
  29 Li     5.274008    1.696669   18.627936    ( 0.0000,  0.0000,  0.0000)
  30 Li     3.484255   -0.041642   20.430246    ( 0.0000,  0.0000,  0.0000)
  31 Li     5.111037    1.738987   22.302743    ( 0.0000,  0.0000,  0.0000)
  32 Li     3.490000    3.490000   10.000000    ( 0.0000,  0.0000,  0.0000)
  33 Li     5.235000    5.235000   11.745000    ( 0.0000,  0.0000,  0.0000)
  34 Li     3.490000    3.490000   13.490000    ( 0.0000,  0.0000,  0.0000)
  35 Li     5.235000    5.235000   15.235000    ( 0.0000,  0.0000,  0.0000)
  36 Li     3.517599    3.480829   16.914525    ( 0.0000,  0.0000,  0.0000)
  37 Li     5.240622    5.259311   18.635526    ( 0.0000,  0.0000,  0.0000)
  38 Li     3.615518    3.448315   20.322443    ( 0.0000,  0.0000,  0.0000)
  39 Li     4.976354    5.237654   22.318614    ( 0.0000,  0.0000,  0.0000)
  40 Li     3.490000    6.980000   10.000000    ( 0.0000,  0.0000,  0.0000)
  41 Li     5.235000    8.725000   11.745000    ( 0.0000,  0.0000,  0.0000)
  42 Li     3.490000    6.980000   13.490000    ( 0.0000,  0.0000,  0.0000)
  43 Li     5.235000    8.725000   15.235000    ( 0.0000,  0.0000,  0.0000)
  44 Li     3.499871    6.998392   16.925241    ( 0.0000,  0.0000,  0.0000)
  45 Li     5.307118    8.749037   18.620307    ( 0.0000,  0.0000,  0.0000)
  46 Li     3.549543    7.063261   20.375968    ( 0.0000,  0.0000,  0.0000)
  47 Li     5.245514    8.728429   22.285697    ( 0.0000,  0.0000,  0.0000)
  48 Li     6.980000    0.000000   10.000000    ( 0.0000,  0.0000,  0.0000)
  49 Li     8.725000    1.745000   11.745000    ( 0.0000,  0.0000,  0.0000)
  50 Li     6.980000    0.000000   13.490000    ( 0.0000,  0.0000,  0.0000)
  51 Li     8.725000    1.745000   15.235000    ( 0.0000,  0.0000,  0.0000)
  52 Li     6.980004    0.008573   16.856704    ( 0.0000,  0.0000,  0.0000)
  53 Li     8.685993    1.696661   18.627937    ( 0.0000,  0.0000,  0.0000)
  54 Li     6.980001    0.024039   20.484393    ( 0.0000,  0.0000,  0.0000)
  55 Li     8.848959    1.738988   22.302746    ( 0.0000,  0.0000,  0.0000)
  56 Li     6.980000    3.490000   10.000000    ( 0.0000,  0.0000,  0.0000)
  57 Li     8.725000    5.235000   11.745000    ( 0.0000,  0.0000,  0.0000)
  58 Li     6.980000    3.490000   13.490000    ( 0.0000,  0.0000,  0.0000)
  59 Li     8.725000    5.235000   15.235000    ( 0.0000,  0.0000,  0.0000)
  60 Li     6.980003    3.498526   16.946566    ( 0.0000,  0.0000,  0.0000)
  61 Li     8.719374    5.259317   18.635529    ( 0.0000,  0.0000,  0.0000)
  62 Li     6.980001    3.513470   20.485044    ( 0.0000,  0.0000,  0.0000)
  63 Li     8.983649    5.237654   22.318618    ( 0.0000,  0.0000,  0.0000)
  64 Li     6.980000    6.980000   10.000000    ( 0.0000,  0.0000,  0.0000)
  65 Li     8.725000    8.725000   11.745000    ( 0.0000,  0.0000,  0.0000)
  66 Li     6.980000    6.980000   13.490000    ( 0.0000,  0.0000,  0.0000)
  67 Li     8.725000    8.725000   15.235000    ( 0.0000,  0.0000,  0.0000)
  68 Li     6.980004    6.962915   16.901614    ( 0.0000,  0.0000,  0.0000)
  69 Li     8.652893    8.749040   18.620303    ( 0.0000,  0.0000,  0.0000)
  70 Li     6.980001    6.932549   20.484866    ( 0.0000,  0.0000,  0.0000)
  71 Li     8.714471    8.728430   22.285700    ( 0.0000,  0.0000,  0.0000)
  72 Li     1.745000    4.069123   23.988437    ( 0.0000,  0.0000,  0.0000)

Unit cell:
           periodic     x           y           z      points  spacing
  1. axis:    yes   10.470000    0.000000    0.000000    35     0.2991
  2. axis:    yes    0.000000   10.470000    0.000000    35     0.2991
  3. axis:    no     0.000000    0.000000   32.215000   108     0.2983

  Lengths:  10.470000  10.470000  32.215000
  Angles:   90.000000  90.000000  90.000000

Effective grid spacing dv^(1/3) = 0.2989

     iter     time        total  log10-change:
                         energy   eigst   dens
iter:   1 00:37:34  -131.306199   -4.17
iter:   2 00:37:38  -131.305561   -4.72  -2.41
iter:   3 00:37:41  -131.305068c  -5.19  -2.70
iter:   4 00:37:45  -131.304409c  -5.10  -2.90
iter:   5 00:37:48  -131.304302c  -5.65c -2.98
iter:   6 00:37:51  -131.304740c  -5.42c -3.20
iter:   7 00:37:55  -131.304366c  -5.82c -3.14
iter:   8 00:37:59  -131.304264c  -6.00c -3.59
iter:   9 00:38:02  -131.304319c  -6.38c -3.77
iter:  10 00:38:06  -131.304317c  -6.56c -3.86
iter:  11 00:38:09  -131.304314c  -6.59c -3.92
iter:  12 00:38:13  -131.304308c  -6.76c -4.07c

Converged after 12 iterations.

Dipole moment: (2.893784, 1.167405, 0.282681) |e|*Ang

Energy contributions relative to reference atoms: (reference = -14803.510878)

Kinetic:       +102.952087
Potential:      -92.447785
External:        +0.000000
XC:            -140.715063
Entropy (-ST):   -1.210481
Local:           -0.488306
SIC:             +0.000000
--------------------------
Free energy:   -131.909548
Extrapolated:  -131.304308

Showing all kpts
 Kpt  Band  Eigenvalues  Occupancy
  0    34     -1.58275    1.60820
  0    35     -1.57260    1.57526
  0    36     -1.38467    0.72309
  0    37     -1.34692    0.55931

  1    34     -1.58275    1.60820
  1    35     -1.57260    1.57526
  1    36     -1.38467    0.72309
  1    37     -1.34692    0.55931


Fermi level: -1.44154

Gap: 0.188 eV
Transition (v -> c):
  (s=0, k=1, n=35, [0.25, 0.25, 0.00]) -> (s=0, k=1, n=36, [0.25, 0.25, 0.00])
No difference between direct/indirect transitions

Forces in eV/Ang:
  0 Li    0.00257   -0.00218   -0.03027
  1 Li    0.00000    0.00015    0.06325
  2 Li    0.00072    0.00020    0.02383
  3 Li    0.00000    0.00589   -0.01595
  4 Li   -0.00926   -0.00160    0.00475
  5 Li   -0.00000   -0.00657    0.06402
  6 Li    0.01323    0.00434   -0.03874
  7 Li    0.00000   -0.21973   -0.04138
  8 Li   -0.00239    0.00011   -0.03483
  9 Li    0.00000   -0.00103    0.06431
 10 Li    0.00007    0.00047    0.00278
 11 Li   -0.00000   -0.00321   -0.00826
 12 Li   -0.00476   -0.00123    0.00475
 13 Li   -0.00000    0.00663    0.05571
 14 Li   -0.00901   -0.00188   -0.01967
 15 Li   -0.00000    0.28540   -0.29012
 16 Li    0.00074    0.00218   -0.03194
 17 Li    0.00000    0.00087    0.05734
 18 Li    0.00106   -0.00091    0.01472
 19 Li    0.00000   -0.00322   -0.03567
 20 Li   -0.00754    0.00317    0.00480
 21 Li    0.00000    0.00238    0.00016
 22 Li    0.00732   -0.00316   -0.04680
 23 Li    0.00000   -0.01902   -0.03270
 24 Li   -0.00257   -0.00218   -0.03027
 25 Li   -0.00023    0.00250    0.05960
 26 Li   -0.00072    0.00020    0.02383
 27 Li   -0.00341    0.00192   -0.04143
 28 Li    0.00926   -0.00160    0.00474
 29 Li    0.01003   -0.00652    0.01141
 30 Li   -0.01323    0.00434   -0.03874
 31 Li    0.00294    0.02821    0.01164
 32 Li    0.00239    0.00011   -0.03483
 33 Li    0.00084   -0.00209    0.06021
 34 Li   -0.00007    0.00047    0.00278
 35 Li   -0.00588   -0.00118   -0.03532
 36 Li    0.00476   -0.00123    0.00475
 37 Li    0.01191    0.00668    0.01042
 38 Li    0.00901   -0.00189   -0.01967
 39 Li   -0.01388   -0.02496    0.01215
 40 Li   -0.00074    0.00218   -0.03194
 41 Li   -0.00231   -0.00058    0.05722
 42 Li   -0.00106   -0.00091    0.01472
 43 Li   -0.00134   -0.00080   -0.04908
 44 Li    0.00755    0.00318    0.00480
 45 Li   -0.00333    0.00031    0.01566
 46 Li   -0.00732   -0.00316   -0.04680
 47 Li    0.00580   -0.00057   -0.02306
 48 Li    0.00000    0.00182   -0.03033
 49 Li    0.00023    0.00250    0.05960
 50 Li    0.00000    0.00146    0.01323
 51 Li    0.00340    0.00192   -0.04143
 52 Li   -0.00001   -0.00262    0.02424
 53 Li   -0.01003   -0.00651    0.01141
 54 Li   -0.00000    0.01536    0.00792
 55 Li   -0.00293    0.02820    0.01164
 56 Li   -0.00000    0.00172   -0.02947
 57 Li   -0.00084   -0.00209    0.06021
 58 Li    0.00000    0.00015    0.03111
 59 Li    0.00588   -0.00118   -0.03532
 60 Li   -0.00000   -0.00351    0.00731
 61 Li   -0.01190    0.00667    0.01042
 62 Li   -0.00000   -0.00149   -0.02064
 63 Li    0.01388   -0.02496    0.01215
 64 Li   -0.00000   -0.00344   -0.02973
 65 Li    0.00231   -0.00058    0.05722
 66 Li    0.00000   -0.00201    0.02216
 67 Li    0.00134   -0.00080   -0.04909
 68 Li   -0.00000    0.00642    0.01339
 69 Li    0.00332    0.00031    0.01567
 70 Li   -0.00000   -0.01196   -0.00082
 71 Li   -0.00579   -0.00057   -0.02306
 72 Li   -0.00000   -0.05534    0.22572

System changes: positions 

Initializing position-dependent things.

Density initialized from wave functions
       .-------------------------.  
      /|                         |  
     / |                         |  
    /  |                         |  
   /   |                         |  
  /    |                         |  
 *     |                         |  
 |     |                         |  
 |     |                         |  
 |     |                         |  
 |     |                         |  
 |     |                         |  
 |     |                         |  
 |     |  Li       Li       Li   |  
 |     |Li                       |  
 |     Li       Li        Li     |  
 |     |Li                       |  
 |     |      LLi     LiLi     Li|  
 |    Li  Li       Li       Li   |  
 |     Li   Li  Li  Li       Li  |  
 |     |Li       Li       Li     |  
 |     |      Li  Li  Li       Li|  
 |    Li  Li   Li  Li   Li  Li   |  
 |     |    Li      Li       Li  |  
 |     |Li       Li       Li     |  
 |   Li|      Li  Li  Li         |  
 |    Li  Li   Li  Li   Li  Li   |  
 | Li  |    Li      Li           |  
 |     |Li       Li       Li     |  
 Li    |  Li      Li             |  
 |   LLi      LLi     LiLi       |  
 |     |                         |  
 | Li  |    Li      Li           |  
 |     |                         |  
 Li    |  Li      Li             |  
 |     |                         |  
 |     |                         |  
 |     |                         |  
 |     |                         |  
 |     |                         |  
 |     .-------------------------.  
 |    /                         /   
 |   /                         /    
 |  /                         /     
 | /                         /      
 |/                         /       
 *-------------------------*        

Atomic positions and initial magnetic moments

Positions:
   0 Li     0.000000    0.000000   10.000000    ( 0.0000,  0.0000,  0.0000)
   1 Li     1.745000    1.745000   11.745000    ( 0.0000,  0.0000,  0.0000)
   2 Li     0.000000    0.000000   13.490000    ( 0.0000,  0.0000,  0.0000)
   3 Li     1.745000    1.745000   15.235000    ( 0.0000,  0.0000,  0.0000)
   4 Li     0.007533   -0.009269   16.935899    ( 0.0000,  0.0000,  0.0000)
   5 Li     1.744996    1.763444   18.606526    ( 0.0000,  0.0000,  0.0000)
   6 Li     0.006131   -0.041523   20.429031    ( 0.0000,  0.0000,  0.0000)
   7 Li     1.744997    1.992785   22.018699    ( 0.0000,  0.0000,  0.0000)
   8 Li     0.000000    3.490000   10.000000    ( 0.0000,  0.0000,  0.0000)
   9 Li     1.745000    5.235000   11.745000    ( 0.0000,  0.0000,  0.0000)
  10 Li     0.000000    3.490000   13.490000    ( 0.0000,  0.0000,  0.0000)
  11 Li     1.745000    5.235000   15.235000    ( 0.0000,  0.0000,  0.0000)
  12 Li    -0.027761    3.480801   16.914665    ( 0.0000,  0.0000,  0.0000)
  13 Li     1.744997    5.225958   18.565791    ( 0.0000,  0.0000,  0.0000)
  14 Li    -0.125817    3.448319   20.321829    ( 0.0000,  0.0000,  0.0000)
  15 Li     1.745002    5.122174   21.690711    ( 0.0000,  0.0000,  0.0000)
  16 Li     0.000000    6.980000   10.000000    ( 0.0000,  0.0000,  0.0000)
  17 Li     1.745000    8.725000   11.745000    ( 0.0000,  0.0000,  0.0000)
  18 Li     0.000000    6.980000   13.490000    ( 0.0000,  0.0000,  0.0000)
  19 Li     1.745000    8.725000   15.235000    ( 0.0000,  0.0000,  0.0000)
  20 Li    -0.010098    6.998487   16.925389    ( 0.0000,  0.0000,  0.0000)
  21 Li     1.744995    8.715764   18.643003    ( 0.0000,  0.0000,  0.0000)
  22 Li    -0.059227    7.063093   20.374601    ( 0.0000,  0.0000,  0.0000)
  23 Li     1.744990    8.593242   22.332276    ( 0.0000,  0.0000,  0.0000)
  24 Li     3.490000    0.000000   10.000000    ( 0.0000,  0.0000,  0.0000)
  25 Li     5.235000    1.745000   11.745000    ( 0.0000,  0.0000,  0.0000)
  26 Li     3.490000    0.000000   13.490000    ( 0.0000,  0.0000,  0.0000)
  27 Li     5.235000    1.745000   15.235000    ( 0.0000,  0.0000,  0.0000)
  28 Li     3.482466   -0.009267   16.935906    ( 0.0000,  0.0000,  0.0000)
  29 Li     5.274297    1.696487   18.628290    ( 0.0000,  0.0000,  0.0000)
  30 Li     3.483863   -0.041524   20.429029    ( 0.0000,  0.0000,  0.0000)
  31 Li     5.111047    1.739862   22.303111    ( 0.0000,  0.0000,  0.0000)
  32 Li     3.490000    3.490000   10.000000    ( 0.0000,  0.0000,  0.0000)
  33 Li     5.235000    5.235000   11.745000    ( 0.0000,  0.0000,  0.0000)
  34 Li     3.490000    3.490000   13.490000    ( 0.0000,  0.0000,  0.0000)
  35 Li     5.235000    5.235000   15.235000    ( 0.0000,  0.0000,  0.0000)
  36 Li     3.517753    3.480802   16.914666    ( 0.0000,  0.0000,  0.0000)
  37 Li     5.241011    5.259530   18.635841    ( 0.0000,  0.0000,  0.0000)
  38 Li     3.615808    3.448318   20.321825    ( 0.0000,  0.0000,  0.0000)
  39 Li     4.976006    5.236880   22.318987    ( 0.0000,  0.0000,  0.0000)
  40 Li     3.490000    6.980000   10.000000    ( 0.0000,  0.0000,  0.0000)
  41 Li     5.235000    8.725000   11.745000    ( 0.0000,  0.0000,  0.0000)
  42 Li     3.490000    6.980000   13.490000    ( 0.0000,  0.0000,  0.0000)
  43 Li     5.235000    8.725000   15.235000    ( 0.0000,  0.0000,  0.0000)
  44 Li     3.500096    6.998485   16.925395    ( 0.0000,  0.0000,  0.0000)
  45 Li     5.307002    8.749016   18.620782    ( 0.0000,  0.0000,  0.0000)
  46 Li     3.549221    7.063095   20.374598    ( 0.0000,  0.0000,  0.0000)
  47 Li     5.245693    8.728408   22.285009    ( 0.0000,  0.0000,  0.0000)
  48 Li     6.980000    0.000000   10.000000    ( 0.0000,  0.0000,  0.0000)
  49 Li     8.725000    1.745000   11.745000    ( 0.0000,  0.0000,  0.0000)
  50 Li     6.980000    0.000000   13.490000    ( 0.0000,  0.0000,  0.0000)
  51 Li     8.725000    1.745000   15.235000    ( 0.0000,  0.0000,  0.0000)
  52 Li     6.980004    0.008499   16.857471    ( 0.0000,  0.0000,  0.0000)
  53 Li     8.685704    1.696479   18.628291    ( 0.0000,  0.0000,  0.0000)
  54 Li     6.980001    0.024532   20.484640    ( 0.0000,  0.0000,  0.0000)
  55 Li     8.848949    1.739863   22.303114    ( 0.0000,  0.0000,  0.0000)
  56 Li     6.980000    3.490000   10.000000    ( 0.0000,  0.0000,  0.0000)
  57 Li     8.725000    5.235000   11.745000    ( 0.0000,  0.0000,  0.0000)
  58 Li     6.980000    3.490000   13.490000    ( 0.0000,  0.0000,  0.0000)
  59 Li     8.725000    5.235000   15.235000    ( 0.0000,  0.0000,  0.0000)
  60 Li     6.980003    3.498407   16.946789    ( 0.0000,  0.0000,  0.0000)
  61 Li     8.718986    5.259536   18.635843    ( 0.0000,  0.0000,  0.0000)
  62 Li     6.980001    3.513395   20.484401    ( 0.0000,  0.0000,  0.0000)
  63 Li     8.983996    5.236880   22.318991    ( 0.0000,  0.0000,  0.0000)
  64 Li     6.980000    6.980000   10.000000    ( 0.0000,  0.0000,  0.0000)
  65 Li     8.725000    8.725000   11.745000    ( 0.0000,  0.0000,  0.0000)
  66 Li     6.980000    6.980000   13.490000    ( 0.0000,  0.0000,  0.0000)
  67 Li     8.725000    8.725000   15.235000    ( 0.0000,  0.0000,  0.0000)
  68 Li     6.980004    6.963117   16.901990    ( 0.0000,  0.0000,  0.0000)
  69 Li     8.653008    8.749018   18.620779    ( 0.0000,  0.0000,  0.0000)
  70 Li     6.980001    6.932189   20.484834    ( 0.0000,  0.0000,  0.0000)
  71 Li     8.714292    8.728409   22.285011    ( 0.0000,  0.0000,  0.0000)
  72 Li     1.744999    4.066674   23.995785    ( 0.0000,  0.0000,  0.0000)

Unit cell:
           periodic     x           y           z      points  spacing
  1. axis:    yes   10.470000    0.000000    0.000000    35     0.2991
  2. axis:    yes    0.000000   10.470000    0.000000    35     0.2991
  3. axis:    no     0.000000    0.000000   32.215000   108     0.2983

  Lengths:  10.470000  10.470000  32.215000
  Angles:   90.000000  90.000000  90.000000

Effective grid spacing dv^(1/3) = 0.2989

     iter     time        total  log10-change:
                         energy   eigst   dens
iter:   1 00:41:55  -131.317860   -3.83
iter:   2 00:41:58  -131.317938   -4.06  -2.25
iter:   3 00:42:02  -131.315099c  -4.61  -2.19
iter:   4 00:42:06  -131.313834c  -5.20  -2.52
iter:   5 00:42:10  -131.312956c  -5.01  -2.84
iter:   6 00:42:14  -131.313598c  -5.29  -3.06
iter:   7 00:42:18  -131.313219c  -6.07c -2.97
iter:   8 00:42:22  -131.313033c  -5.99c -3.37
iter:   9 00:42:26  -131.313153c  -6.58c -3.59
iter:  10 00:42:30  -131.313192c  -6.71c -3.65
iter:  11 00:42:34  -131.313118c  -6.49c -3.71
iter:  12 00:42:38  -131.313031c  -6.57c -3.98
iter:  13 00:42:42  -131.313118c  -6.71c -3.76
iter:  14 00:42:45  -131.313122c  -7.11c -4.20c

Converged after 14 iterations.

Dipole moment: (2.894134, 1.155129, 0.285530) |e|*Ang

Energy contributions relative to reference atoms: (reference = -14803.510878)

Kinetic:       +102.893419
Potential:      -92.412819
External:        +0.000000
XC:            -140.699976
Entropy (-ST):   -1.210827
Local:           -0.488332
SIC:             +0.000000
--------------------------
Free energy:   -131.918536
Extrapolated:  -131.313122

Showing all kpts
 Kpt  Band  Eigenvalues  Occupancy
  0    34     -1.58238    1.60815
  0    35     -1.57222    1.57515
  0    36     -1.38464    0.72458
  0    37     -1.34683    0.56037

  1    34     -1.58238    1.60815
  1    35     -1.57222    1.57515
  1    36     -1.38464    0.72458
  1    37     -1.34683    0.56037


Fermi level: -1.44119

Gap: 0.188 eV
Transition (v -> c):
  (s=0, k=1, n=35, [0.25, 0.25, 0.00]) -> (s=0, k=1, n=36, [0.25, 0.25, 0.00])
No difference between direct/indirect transitions

Forces in eV/Ang:
  0 Li    0.00258   -0.00225   -0.03016
  1 Li    0.00000    0.00009    0.06304
  2 Li    0.00066    0.00014    0.02357
  3 Li    0.00000    0.00578   -0.01555
  4 Li   -0.00862   -0.00133    0.00506
  5 Li   -0.00000   -0.00628    0.06086
  6 Li    0.01131    0.00319   -0.03756
  7 Li    0.00000   -0.20700   -0.03722
  8 Li   -0.00235    0.00013   -0.03481
  9 Li    0.00000   -0.00093    0.06402
 10 Li    0.00006    0.00047    0.00263
 11 Li   -0.00000   -0.00307   -0.00787
 12 Li   -0.00418   -0.00116    0.00540
 13 Li   -0.00000    0.00642    0.04981
 14 Li   -0.00811   -0.00249   -0.01787
 15 Li   -0.00000    0.26282   -0.25388
 16 Li    0.00081    0.00223   -0.03185
 17 Li    0.00000    0.00083    0.05705
 18 Li    0.00102   -0.00084    0.01451
 19 Li    0.00000   -0.00320   -0.03554
 20 Li   -0.00700    0.00280    0.00489
 21 Li    0.00000    0.00185    0.00016
 22 Li    0.00345    0.00014   -0.04742
 23 Li    0.00000   -0.01791   -0.03338
 24 Li   -0.00258   -0.00225   -0.03016
 25 Li   -0.00025    0.00239    0.05945
 26 Li   -0.00066    0.00014    0.02357
 27 Li   -0.00318    0.00178   -0.04137
 28 Li    0.00862   -0.00133    0.00506
 29 Li    0.00982   -0.00616    0.01121
 30 Li   -0.01131    0.00319   -0.03756
 31 Li    0.00307    0.02705    0.01092
 32 Li    0.00235    0.00013   -0.03481
 33 Li    0.00080   -0.00197    0.06002
 34 Li   -0.00006    0.00047    0.00263
 35 Li   -0.00571   -0.00113   -0.03518
 36 Li    0.00419   -0.00116    0.00540
 37 Li    0.01134    0.00611    0.01026
 38 Li    0.00812   -0.00249   -0.01786
 39 Li   -0.01365   -0.02394    0.01096
 40 Li   -0.00081    0.00223   -0.03185
 41 Li   -0.00226   -0.00057    0.05715
 42 Li   -0.00102   -0.00084    0.01451
 43 Li   -0.00114   -0.00072   -0.04920
 44 Li    0.00701    0.00281    0.00488
 45 Li   -0.00284    0.00050    0.01558
 46 Li   -0.00344    0.00014   -0.04742
 47 Li    0.00488   -0.00047   -0.02337
 48 Li    0.00000    0.00171   -0.03022
 49 Li    0.00025    0.00239    0.05945
 50 Li    0.00000    0.00141    0.01319
 51 Li    0.00318    0.00178   -0.04137
 52 Li   -0.00001   -0.00244    0.02327
 53 Li   -0.00982   -0.00615    0.01121
 54 Li   -0.00000    0.01512    0.00793
 55 Li   -0.00307    0.02705    0.01092
 56 Li   -0.00000    0.00172   -0.02942
 57 Li   -0.00080   -0.00197    0.06002
 58 Li    0.00000    0.00012    0.03096
 59 Li    0.00571   -0.00113   -0.03518
 60 Li   -0.00000   -0.00338    0.00738
 61 Li   -0.01134    0.00611    0.01025
 62 Li   -0.00000   -0.00145   -0.01933
 63 Li    0.01365   -0.02394    0.01096
 64 Li   -0.00000   -0.00333   -0.02958
 65 Li    0.00226   -0.00057    0.05715
 66 Li    0.00000   -0.00189    0.02190
 67 Li    0.00114   -0.00072   -0.04921
 68 Li   -0.00000    0.00605    0.01315
 69 Li    0.00283    0.00050    0.01558
 70 Li   -0.00000   -0.01181   -0.00018
 71 Li   -0.00488   -0.00047   -0.02337
 72 Li   -0.00000   -0.04909    0.19321

System changes: positions 

Initializing position-dependent things.

Density initialized from wave functions
       .-------------------------.  
      /|                         |  
     / |                         |  
    /  |                         |  
   /   |                         |  
  /    |                         |  
 *     |                         |  
 |     |                         |  
 |     |                         |  
 |     |                         |  
 |     |                         |  
 |     |                         |  
 |     |                         |  
 |     |  Li       Li       Li   |  
 |     |Li                       |  
 |     Li       Li        Li     |  
 |     |Li                       |  
 |     |      LLi     LiLi     Li|  
 |    Li  Li       Li       Li   |  
 |     Li   Li  Li  Li       Li  |  
 |     |Li       Li       Li     |  
 |     |      Li  Li  Li       Li|  
 |    Li  Li   Li  Li   Li  Li   |  
 |     |    Li      Li       Li  |  
 |     |Li       Li       Li     |  
 |   Li|      Li  Li  Li         |  
 |    Li  Li   Li  Li   Li  Li   |  
 | Li  |    Li      Li           |  
 |     |Li       Li       Li     |  
 Li    |  Li      Li             |  
 |   LLi      LLi     LiLi       |  
 |     |                         |  
 | Li  |    Li      Li           |  
 |     |                         |  
 Li    |  Li      Li             |  
 |     |                         |  
 |     |                         |  
 |     |                         |  
 |     |                         |  
 |     |                         |  
 |     .-------------------------.  
 |    /                         /   
 |   /                         /    
 |  /                         /     
 | /                         /      
 |/                         /       
 *-------------------------*        

Atomic positions and initial magnetic moments

Positions:
   0 Li     0.000000    0.000000   10.000000    ( 0.0000,  0.0000,  0.0000)
   1 Li     1.745000    1.745000   11.745000    ( 0.0000,  0.0000,  0.0000)
   2 Li     0.000000    0.000000   13.490000    ( 0.0000,  0.0000,  0.0000)
   3 Li     1.745000    1.745000   15.235000    ( 0.0000,  0.0000,  0.0000)
   4 Li     0.007142   -0.009338   16.936083    ( 0.0000,  0.0000,  0.0000)
   5 Li     1.744996    1.763172   18.609101    ( 0.0000,  0.0000,  0.0000)
   6 Li     0.006623   -0.041382   20.427417    ( 0.0000,  0.0000,  0.0000)
   7 Li     1.744997    1.983733   22.016773    ( 0.0000,  0.0000,  0.0000)
   8 Li     0.000000    3.490000   10.000000    ( 0.0000,  0.0000,  0.0000)
   9 Li     1.745000    5.235000   11.745000    ( 0.0000,  0.0000,  0.0000)
  10 Li     0.000000    3.490000   13.490000    ( 0.0000,  0.0000,  0.0000)
  11 Li     1.745000    5.235000   15.235000    ( 0.0000,  0.0000,  0.0000)
  12 Li    -0.027955    3.480765   16.914865    ( 0.0000,  0.0000,  0.0000)
  13 Li     1.744997    5.226219   18.568087    ( 0.0000,  0.0000,  0.0000)
  14 Li    -0.126188    3.448306   20.321031    ( 0.0000,  0.0000,  0.0000)
  15 Li     1.745001    5.133706   21.679112    ( 0.0000,  0.0000,  0.0000)
  16 Li     0.000000    6.980000   10.000000    ( 0.0000,  0.0000,  0.0000)
  17 Li     1.745000    8.725000   11.745000    ( 0.0000,  0.0000,  0.0000)
  18 Li     0.000000    6.980000   13.490000    ( 0.0000,  0.0000,  0.0000)
  19 Li     1.745000    8.725000   15.235000    ( 0.0000,  0.0000,  0.0000)
  20 Li    -0.010391    6.998607   16.925595    ( 0.0000,  0.0000,  0.0000)
  21 Li     1.744995    8.715875   18.643014    ( 0.0000,  0.0000,  0.0000)
  22 Li    -0.058876    7.062936   20.372740    ( 0.0000,  0.0000,  0.0000)
  23 Li     1.744990    8.592663   22.330943    ( 0.0000,  0.0000,  0.0000)
  24 Li     3.490000    0.000000   10.000000    ( 0.0000,  0.0000,  0.0000)
  25 Li     5.235000    1.745000   11.745000    ( 0.0000,  0.0000,  0.0000)
  26 Li     3.490000    0.000000   13.490000    ( 0.0000,  0.0000,  0.0000)
  27 Li     5.235000    1.745000   15.235000    ( 0.0000,  0.0000,  0.0000)
  28 Li     3.482857   -0.009336   16.936090    ( 0.0000,  0.0000,  0.0000)
  29 Li     5.274682    1.696244   18.628762    ( 0.0000,  0.0000,  0.0000)
  30 Li     3.483371   -0.041383   20.427415    ( 0.0000,  0.0000,  0.0000)
  31 Li     5.111068    1.741016   22.303593    ( 0.0000,  0.0000,  0.0000)
  32 Li     3.490000    3.490000   10.000000    ( 0.0000,  0.0000,  0.0000)
  33 Li     5.235000    5.235000   11.745000    ( 0.0000,  0.0000,  0.0000)
  34 Li     3.490000    3.490000   13.490000    ( 0.0000,  0.0000,  0.0000)
  35 Li     5.235000    5.235000   15.235000    ( 0.0000,  0.0000,  0.0000)
  36 Li     3.517948    3.480766   16.914866    ( 0.0000,  0.0000,  0.0000)
  37 Li     5.241521    5.259815   18.636260    ( 0.0000,  0.0000,  0.0000)
  38 Li     3.616179    3.448305   20.321027    ( 0.0000,  0.0000,  0.0000)
  39 Li     4.975539    5.235862   22.319467    ( 0.0000,  0.0000,  0.0000)
  40 Li     3.490000    6.980000   10.000000    ( 0.0000,  0.0000,  0.0000)
  41 Li     5.235000    8.725000   11.745000    ( 0.0000,  0.0000,  0.0000)
  42 Li     3.490000    6.980000   13.490000    ( 0.0000,  0.0000,  0.0000)
  43 Li     5.235000    8.725000   15.235000    ( 0.0000,  0.0000,  0.0000)
  44 Li     3.500389    6.998605   16.925601    ( 0.0000,  0.0000,  0.0000)
  45 Li     5.306860    8.748993   18.621421    ( 0.0000,  0.0000,  0.0000)
  46 Li     3.548870    7.062938   20.372738    ( 0.0000,  0.0000,  0.0000)
  47 Li     5.245920    8.728382   22.284074    ( 0.0000,  0.0000,  0.0000)
  48 Li     6.980000    0.000000   10.000000    ( 0.0000,  0.0000,  0.0000)
  49 Li     8.725000    1.745000   11.745000    ( 0.0000,  0.0000,  0.0000)
  50 Li     6.980000    0.000000   13.490000    ( 0.0000,  0.0000,  0.0000)
  51 Li     8.725000    1.745000   15.235000    ( 0.0000,  0.0000,  0.0000)
  52 Li     6.980004    0.008402   16.858485    ( 0.0000,  0.0000,  0.0000)
  53 Li     8.685319    1.696237   18.628762    ( 0.0000,  0.0000,  0.0000)
  54 Li     6.980001    0.025185   20.484968    ( 0.0000,  0.0000,  0.0000)
  55 Li     8.848929    1.741017   22.303596    ( 0.0000,  0.0000,  0.0000)
  56 Li     6.980000    3.490000   10.000000    ( 0.0000,  0.0000,  0.0000)
  57 Li     8.725000    5.235000   11.745000    ( 0.0000,  0.0000,  0.0000)
  58 Li     6.980000    3.490000   13.490000    ( 0.0000,  0.0000,  0.0000)
  59 Li     8.725000    5.235000   15.235000    ( 0.0000,  0.0000,  0.0000)
  60 Li     6.980003    3.498250   16.947089    ( 0.0000,  0.0000,  0.0000)
  61 Li     8.718476    5.259821   18.636262    ( 0.0000,  0.0000,  0.0000)
  62 Li     6.980001    3.513298   20.483561    ( 0.0000,  0.0000,  0.0000)
  63 Li     8.984463    5.235861   22.319471    ( 0.0000,  0.0000,  0.0000)
  64 Li     6.980000    6.980000   10.000000    ( 0.0000,  0.0000,  0.0000)
  65 Li     8.725000    8.725000   11.745000    ( 0.0000,  0.0000,  0.0000)
  66 Li     6.980000    6.980000   13.490000    ( 0.0000,  0.0000,  0.0000)
  67 Li     8.725000    8.725000   15.235000    ( 0.0000,  0.0000,  0.0000)
  68 Li     6.980004    6.963382   16.902497    ( 0.0000,  0.0000,  0.0000)
  69 Li     8.653150    8.748995   18.621418    ( 0.0000,  0.0000,  0.0000)
  70 Li     6.980001    6.931711   20.484802    ( 0.0000,  0.0000,  0.0000)
  71 Li     8.714066    8.728382   22.284077    ( 0.0000,  0.0000,  0.0000)
  72 Li     1.744999    4.063554   24.005007    ( 0.0000,  0.0000,  0.0000)

Unit cell:
           periodic     x           y           z      points  spacing
  1. axis:    yes   10.470000    0.000000    0.000000    35     0.2991
  2. axis:    yes    0.000000   10.470000    0.000000    35     0.2991
  3. axis:    no     0.000000    0.000000   32.215000   108     0.2983

  Lengths:  10.470000  10.470000  32.215000
  Angles:   90.000000  90.000000  90.000000

Effective grid spacing dv^(1/3) = 0.2989

     iter     time        total  log10-change:
                         energy   eigst   dens
iter:   1 00:47:43  -131.331391   -3.59
iter:   2 00:47:46  -131.327991   -3.99  -2.14
iter:   3 00:47:50  -131.327173c  -4.23  -2.21
iter:   4 00:47:53  -131.324359c  -4.76  -2.28
iter:   5 00:47:57  -131.322824c  -4.71  -2.65
iter:   6 00:48:01  -131.323774c  -5.12  -2.90
iter:   7 00:48:04  -131.323489c  -5.92c -2.84
iter:   8 00:48:08  -131.323042c  -5.80c -3.09
iter:   9 00:48:12  -131.323160c  -6.64c -3.47
iter:  10 00:48:16  -131.323140c  -6.60c -3.48
iter:  11 00:48:20  -131.323148c  -7.17c -3.73
iter:  12 00:48:23  -131.323149c  -7.17c -3.84
iter:  13 00:48:27  -131.323151c  -7.03c -3.93
iter:  14 00:48:31  -131.323120c  -6.95c -4.05c

Converged after 14 iterations.

Dipole moment: (2.895884, 1.139717, 0.288495) |e|*Ang

Energy contributions relative to reference atoms: (reference = -14803.510878)

Kinetic:       +102.825273
Potential:      -92.372514
External:        +0.000000
XC:            -140.682014
Entropy (-ST):   -1.211240
Local:           -0.488244
SIC:             +0.000000
--------------------------
Free energy:   -131.928740
Extrapolated:  -131.323120

Showing all kpts
 Kpt  Band  Eigenvalues  Occupancy
  0    34     -1.58154    1.60761
  0    35     -1.57140    1.57464
  0    36     -1.38446    0.72683
  0    37     -1.34662    0.56222

  1    34     -1.58154    1.60761
  1    35     -1.57140    1.57464
  1    36     -1.38446    0.72683
  1    37     -1.34662    0.56222


Fermi level: -1.44051

Gap: 0.187 eV
Transition (v -> c):
  (s=0, k=1, n=35, [0.25, 0.25, 0.00]) -> (s=0, k=1, n=36, [0.25, 0.25, 0.00])
No difference between direct/indirect transitions

Forces in eV/Ang:
  0 Li    0.00257   -0.00219   -0.02990
  1 Li    0.00000    0.00007    0.06317
  2 Li    0.00059    0.00025    0.02357
  3 Li    0.00000    0.00573   -0.01510
  4 Li   -0.00787   -0.00098    0.00542
  5 Li   -0.00000   -0.00613    0.05657
  6 Li    0.00884    0.00182   -0.03624
  7 Li    0.00000   -0.19117   -0.03189
  8 Li   -0.00234    0.00010   -0.03453
  9 Li    0.00000   -0.00096    0.06406
 10 Li    0.00001    0.00042    0.00268
 11 Li   -0.00000   -0.00301   -0.00749
 12 Li   -0.00348   -0.00111    0.00609
 13 Li   -0.00000    0.00638    0.04222
 14 Li   -0.00682   -0.00320   -0.01594
 15 Li   -0.00000    0.23480   -0.20940
 16 Li    0.00083    0.00219   -0.03164
 17 Li    0.00000    0.00088    0.05707
 18 Li    0.00097   -0.00088    0.01457
 19 Li    0.00000   -0.00316   -0.03522
 20 Li   -0.00640    0.00237    0.00501
 21 Li    0.00000    0.00111    0.00005
 22 Li   -0.00152    0.00426   -0.04846
 23 Li    0.00000   -0.01642   -0.03432
 24 Li   -0.00257   -0.00219   -0.02990
 25 Li   -0.00020    0.00240    0.05963
 26 Li   -0.00059    0.00025    0.02357
 27 Li   -0.00291    0.00169   -0.04128
 28 Li    0.00788   -0.00098    0.00542
 29 Li    0.00949   -0.00589    0.01073
 30 Li   -0.00884    0.00182   -0.03625
 31 Li    0.00333    0.02531    0.01004
 32 Li    0.00234    0.00010   -0.03453
 33 Li    0.00085   -0.00201    0.06017
 34 Li   -0.00001    0.00042    0.00268
 35 Li   -0.00550   -0.00117   -0.03497
 36 Li    0.00349   -0.00111    0.00609
 37 Li    0.01056    0.00557    0.00985
 38 Li    0.00683   -0.00320   -0.01594
 39 Li   -0.01312   -0.02230    0.00943
 40 Li   -0.00083    0.00219   -0.03164
 41 Li   -0.00220   -0.00052    0.05731
 42 Li   -0.00097   -0.00088    0.01457
 43 Li   -0.00090   -0.00060   -0.04906
 44 Li    0.00640    0.00238    0.00500
 45 Li   -0.00191    0.00076    0.01516
 46 Li    0.00152    0.00426   -0.04846
 47 Li    0.00379   -0.00038   -0.02370
 48 Li    0.00000    0.00173   -0.02996
 49 Li    0.00020    0.00240    0.05963
 50 Li    0.00000    0.00151    0.01327
 51 Li    0.00291    0.00169   -0.04128
 52 Li   -0.00000   -0.00231    0.02209
 53 Li   -0.00949   -0.00588    0.01072
 54 Li   -0.00000    0.01459    0.00766
 55 Li   -0.00332    0.02530    0.01004
 56 Li   -0.00000    0.00169   -0.02911
 57 Li   -0.00085   -0.00201    0.06017
 58 Li    0.00000    0.00005    0.03100
 59 Li    0.00550   -0.00117   -0.03497
 60 Li   -0.00000   -0.00323    0.00719
 61 Li   -0.01056    0.00556    0.00985
 62 Li   -0.00000   -0.00134   -0.01767
 63 Li    0.01312   -0.02230    0.00943
 64 Li   -0.00000   -0.00330   -0.02933
 65 Li    0.00220   -0.00052    0.05731
 66 Li    0.00000   -0.00188    0.02189
 67 Li    0.00090   -0.00060   -0.04907
 68 Li   -0.00000    0.00572    0.01287
 69 Li    0.00190    0.00076    0.01516
 70 Li   -0.00000   -0.01144    0.00038
 71 Li   -0.00378   -0.00038   -0.02370
 72 Li   -0.00000   -0.04159    0.15357

System changes: positions 

Initializing position-dependent things.

Density initialized from wave functions
       .-------------------------.  
      /|                         |  
     / |                         |  
    /  |                         |  
   /   |                         |  
  /    |                         |  
 *     |                         |  
 |     |                         |  
 |     |                         |  
 |     |                         |  
 |     |                         |  
 |     |                         |  
 |     |                         |  
 |     |  Li       Li       Li   |  
 |     |Li                       |  
 |     Li       Li        Li     |  
 |     |Li                       |  
 |     |      LLi     LiLi     Li|  
 |    Li  Li       Li       Li   |  
 |     Li   Li  Li  Li       Li  |  
 |     |Li       Li       Li     |  
 |     |      Li  Li  Li       Li|  
 |    Li  Li   Li  Li   Li  Li   |  
 |     |    Li      Li       Li  |  
 |     |Li       Li       Li     |  
 |   Li|      Li  Li  Li         |  
 |    Li  Li   Li  Li   Li  Li   |  
 | Li  |    Li      Li           |  
 |     |Li       Li       Li     |  
 Li    |  Li      Li             |  
 |   LLi      LLi     LiLi       |  
 |     |                         |  
 | Li  |    Li      Li           |  
 |     |                         |  
 Li    |  Li      Li             |  
 |     |                         |  
 |     |                         |  
 |     |                         |  
 |     |                         |  
 |     |                         |  
 |     .-------------------------.  
 |    /                         /   
 |   /                         /    
 |  /                         /     
 | /                         /      
 |/                         /       
 *-------------------------*        

Atomic positions and initial magnetic moments

Positions:
   0 Li     0.000000    0.000000   10.000000    ( 0.0000,  0.0000,  0.0000)
   1 Li     1.745000    1.745000   11.745000    ( 0.0000,  0.0000,  0.0000)
   2 Li     0.000000    0.000000   13.490000    ( 0.0000,  0.0000,  0.0000)
   3 Li     1.745000    1.745000   15.235000    ( 0.0000,  0.0000,  0.0000)
   4 Li     0.006668   -0.009417   16.936328    ( 0.0000,  0.0000,  0.0000)
   5 Li     1.744996    1.762833   18.612267    ( 0.0000,  0.0000,  0.0000)
   6 Li     0.007186   -0.041237   20.425404    ( 0.0000,  0.0000,  0.0000)
   7 Li     1.744997    1.972661   22.014488    ( 0.0000,  0.0000,  0.0000)
   8 Li     0.000000    3.490000   10.000000    ( 0.0000,  0.0000,  0.0000)
   9 Li     1.745000    5.235000   11.745000    ( 0.0000,  0.0000,  0.0000)
  10 Li     0.000000    3.490000   13.490000    ( 0.0000,  0.0000,  0.0000)
  11 Li     1.745000    5.235000   15.235000    ( 0.0000,  0.0000,  0.0000)
  12 Li    -0.028183    3.480720   16.915137    ( 0.0000,  0.0000,  0.0000)
  13 Li     1.744997    5.226549   18.570801    ( 0.0000,  0.0000,  0.0000)
  14 Li    -0.126625    3.448264   20.320071    ( 0.0000,  0.0000,  0.0000)
  15 Li     1.745001    5.147615   21.665572    ( 0.0000,  0.0000,  0.0000)
  16 Li     0.000000    6.980000   10.000000    ( 0.0000,  0.0000,  0.0000)
  17 Li     1.745000    8.725000   11.745000    ( 0.0000,  0.0000,  0.0000)
  18 Li     0.000000    6.980000   13.490000    ( 0.0000,  0.0000,  0.0000)
  19 Li     1.745000    8.725000   15.235000    ( 0.0000,  0.0000,  0.0000)
  20 Li    -0.010748    6.998748   16.925859    ( 0.0000,  0.0000,  0.0000)
  21 Li     1.744995    8.715995   18.643026    ( 0.0000,  0.0000,  0.0000)
  22 Li    -0.058570    7.062851   20.370343    ( 0.0000,  0.0000,  0.0000)
  23 Li     1.744990    8.591948   22.329223    ( 0.0000,  0.0000,  0.0000)
  24 Li     3.490000    0.000000   10.000000    ( 0.0000,  0.0000,  0.0000)
  25 Li     5.235000    1.745000   11.745000    ( 0.0000,  0.0000,  0.0000)
  26 Li     3.490000    0.000000   13.490000    ( 0.0000,  0.0000,  0.0000)
  27 Li     5.235000    1.745000   15.235000    ( 0.0000,  0.0000,  0.0000)
  28 Li     3.483331   -0.009416   16.936335    ( 0.0000,  0.0000,  0.0000)
  29 Li     5.275165    1.695942   18.629350    ( 0.0000,  0.0000,  0.0000)
  30 Li     3.482808   -0.041237   20.425403    ( 0.0000,  0.0000,  0.0000)
  31 Li     5.111110    1.742439   22.304183    ( 0.0000,  0.0000,  0.0000)
  32 Li     3.490000    3.490000   10.000000    ( 0.0000,  0.0000,  0.0000)
  33 Li     5.235000    5.235000   11.745000    ( 0.0000,  0.0000,  0.0000)
  34 Li     3.490000    3.490000   13.490000    ( 0.0000,  0.0000,  0.0000)
  35 Li     5.235000    5.235000   15.235000    ( 0.0000,  0.0000,  0.0000)
  36 Li     3.518176    3.480720   16.915138    ( 0.0000,  0.0000,  0.0000)
  37 Li     5.242146    5.260161   18.636786    ( 0.0000,  0.0000,  0.0000)
  38 Li     3.616616    3.448263   20.320068    ( 0.0000,  0.0000,  0.0000)
  39 Li     4.974947    5.234607   22.320039    ( 0.0000,  0.0000,  0.0000)
  40 Li     3.490000    6.980000   10.000000    ( 0.0000,  0.0000,  0.0000)
  41 Li     5.235000    8.725000   11.745000    ( 0.0000,  0.0000,  0.0000)
  42 Li     3.490000    6.980000   13.490000    ( 0.0000,  0.0000,  0.0000)
  43 Li     5.235000    8.725000   15.235000    ( 0.0000,  0.0000,  0.0000)
  44 Li     3.500746    6.998747   16.925864    ( 0.0000,  0.0000,  0.0000)
  45 Li     5.306703    8.748973   18.622225    ( 0.0000,  0.0000,  0.0000)
  46 Li     3.548563    7.062852   20.370340    ( 0.0000,  0.0000,  0.0000)
  47 Li     5.246182    8.728350   22.282874    ( 0.0000,  0.0000,  0.0000)
  48 Li     6.980000    0.000000   10.000000    ( 0.0000,  0.0000,  0.0000)
  49 Li     8.725000    1.745000   11.745000    ( 0.0000,  0.0000,  0.0000)
  50 Li     6.980000    0.000000   13.490000    ( 0.0000,  0.0000,  0.0000)
  51 Li     8.725000    1.745000   15.235000    ( 0.0000,  0.0000,  0.0000)
  52 Li     6.980004    0.008281   16.859742    ( 0.0000,  0.0000,  0.0000)
  53 Li     8.684835    1.695935   18.629351    ( 0.0000,  0.0000,  0.0000)
  54 Li     6.980001    0.025998   20.485380    ( 0.0000,  0.0000,  0.0000)
  55 Li     8.848887    1.742440   22.304186    ( 0.0000,  0.0000,  0.0000)
  56 Li     6.980000    3.490000   10.000000    ( 0.0000,  0.0000,  0.0000)
  57 Li     8.725000    5.235000   11.745000    ( 0.0000,  0.0000,  0.0000)
  58 Li     6.980000    3.490000   13.490000    ( 0.0000,  0.0000,  0.0000)
  59 Li     8.725000    5.235000   15.235000    ( 0.0000,  0.0000,  0.0000)
  60 Li     6.980003    3.498057   16.947468    ( 0.0000,  0.0000,  0.0000)
  61 Li     8.717851    5.260166   18.636787    ( 0.0000,  0.0000,  0.0000)
  62 Li     6.980001    3.513181   20.482537    ( 0.0000,  0.0000,  0.0000)
  63 Li     8.985055    5.234607   22.320043    ( 0.0000,  0.0000,  0.0000)
  64 Li     6.980000    6.980000   10.000000    ( 0.0000,  0.0000,  0.0000)
  65 Li     8.725000    8.725000   11.745000    ( 0.0000,  0.0000,  0.0000)
  66 Li     6.980000    6.980000   13.490000    ( 0.0000,  0.0000,  0.0000)
  67 Li     8.725000    8.725000   15.235000    ( 0.0000,  0.0000,  0.0000)
  68 Li     6.980003    6.963710   16.903139    ( 0.0000,  0.0000,  0.0000)
  69 Li     8.653307    8.748975   18.622222    ( 0.0000,  0.0000,  0.0000)
  70 Li     6.980001    6.931113   20.484780    ( 0.0000,  0.0000,  0.0000)
  71 Li     8.713804    8.728351   22.282876    ( 0.0000,  0.0000,  0.0000)
  72 Li     1.744999    4.059882   24.015632    ( 0.0000,  0.0000,  0.0000)

Unit cell:
           periodic     x           y           z      points  spacing
  1. axis:    yes   10.470000    0.000000    0.000000    35     0.2991
  2. axis:    yes    0.000000   10.470000    0.000000    35     0.2991
  3. axis:    no     0.000000    0.000000   32.215000   108     0.2983

  Lengths:  10.470000  10.470000  32.215000
  Angles:   90.000000  90.000000  90.000000

Effective grid spacing dv^(1/3) = 0.2989

     iter     time        total  log10-change:
                         energy   eigst   dens
iter:   1 00:52:37  -131.344657   -3.47
iter:   2 00:52:41  -131.339788   -3.94  -2.10
iter:   3 00:52:44  -131.338403c  -4.14  -2.15
iter:   4 00:52:48  -131.334719c  -4.60  -2.23
iter:   5 00:52:52  -131.333031c  -4.65  -2.58
iter:   6 00:52:56  -131.334276c  -4.91  -2.86
iter:   7 00:52:59  -131.333557c  -5.81c -2.73
iter:   8 00:53:03  -131.333160c  -5.67c -3.10
iter:   9 00:53:07  -131.333431c  -6.43c -3.39
iter:  10 00:53:11  -131.333303c  -6.47c -3.34
iter:  11 00:53:14  -131.333299c  -7.22c -3.73
iter:  12 00:53:18  -131.333294c  -7.17c -3.78
iter:  13 00:53:22  -131.333313c  -7.04c -3.83
iter:  14 00:53:26  -131.333286c  -7.19c -3.96
iter:  15 00:53:30  -131.333281c  -7.44c -4.08c

Converged after 15 iterations.

Dipole moment: (2.900505, 1.121080, 0.292203) |e|*Ang

Energy contributions relative to reference atoms: (reference = -14803.510878)

Kinetic:       +102.749975
Potential:      -92.327668
External:        +0.000000
XC:            -140.661648
Entropy (-ST):   -1.211629
Local:           -0.488125
SIC:             +0.000000
--------------------------
Free energy:   -131.939096
Extrapolated:  -131.333281

Showing all kpts
 Kpt  Band  Eigenvalues  Occupancy
  0    34     -1.58101    1.60731
  0    35     -1.57086    1.57427
  0    36     -1.38462    0.72960
  0    37     -1.34655    0.56368

  1    34     -1.58101    1.60731
  1    35     -1.57086    1.57427
  1    36     -1.38462    0.72960
  1    37     -1.34655    0.56368


Fermi level: -1.44008

Gap: 0.186 eV
Transition (v -> c):
  (s=0, k=1, n=35, [0.25, 0.25, 0.00]) -> (s=0, k=1, n=36, [0.25, 0.25, 0.00])
No difference between direct/indirect transitions

Forces in eV/Ang:
  0 Li    0.00260   -0.00225   -0.02999
  1 Li    0.00000   -0.00004    0.06288
  2 Li    0.00058    0.00017    0.02347
  3 Li    0.00000    0.00548   -0.01441
  4 Li   -0.00698   -0.00062    0.00599
  5 Li   -0.00000   -0.00588    0.05140
  6 Li    0.00586    0.00045   -0.03463
  7 Li    0.00000   -0.17263   -0.02559
  8 Li   -0.00230    0.00010   -0.03468
  9 Li    0.00000   -0.00082    0.06373
 10 Li    0.00001    0.00044    0.00262
 11 Li   -0.00000   -0.00275   -0.00693
 12 Li   -0.00263   -0.00109    0.00724
 13 Li   -0.00000    0.00620    0.03318
 14 Li   -0.00491   -0.00391   -0.01336
 15 Li   -0.00000    0.20241   -0.15942
 16 Li    0.00085    0.00223   -0.03173
 17 Li    0.00000    0.00087    0.05674
 18 Li    0.00096   -0.00078    0.01451
 19 Li    0.00000   -0.00309   -0.03483
 20 Li   -0.00575    0.00193    0.00522
 21 Li    0.00000    0.00026   -0.00015
 22 Li   -0.00745    0.00880   -0.04953
 23 Li    0.00000   -0.01469   -0.03515
 24 Li   -0.00260   -0.00225   -0.02999
 25 Li   -0.00019    0.00230    0.05937
 26 Li   -0.00058    0.00017    0.02347
 27 Li   -0.00265    0.00145   -0.04096
 28 Li    0.00698   -0.00062    0.00599
 29 Li    0.00901   -0.00551    0.01024
 30 Li   -0.00586    0.00045   -0.03463
 31 Li    0.00355    0.02334    0.00912
 32 Li    0.00230    0.00010   -0.03468
 33 Li    0.00084   -0.00191    0.05989
 34 Li   -0.00001    0.00044    0.00262
 35 Li   -0.00523   -0.00101   -0.03460
 36 Li    0.00264   -0.00109    0.00724
 37 Li    0.00960    0.00485    0.00945
 38 Li    0.00491   -0.00391   -0.01336
 39 Li   -0.01257   -0.02043    0.00771
 40 Li   -0.00086    0.00223   -0.03174
 41 Li   -0.00218   -0.00051    0.05718
 42 Li   -0.00096   -0.00078    0.01451
 43 Li   -0.00064   -0.00052   -0.04871
 44 Li    0.00575    0.00194    0.00522
 45 Li   -0.00060    0.00110    0.01444
 46 Li    0.00745    0.00880   -0.04953
 47 Li    0.00255   -0.00026   -0.02384
 48 Li    0.00000    0.00165   -0.03003
 49 Li    0.00019    0.00230    0.05936
 50 Li    0.00000    0.00143    0.01332
 51 Li    0.00265    0.00145   -0.04097
 52 Li   -0.00000   -0.00230    0.02077
 53 Li   -0.00901   -0.00551    0.01024
 54 Li   -0.00000    0.01408    0.00731
 55 Li   -0.00355    0.02334    0.00912
 56 Li   -0.00000    0.00170   -0.02924
 57 Li   -0.00084   -0.00191    0.05989
 58 Li    0.00000    0.00006    0.03088
 59 Li    0.00523   -0.00101   -0.03460
 60 Li   -0.00000   -0.00302    0.00727
 61 Li   -0.00960    0.00485    0.00945
 62 Li   -0.00000   -0.00122   -0.01553
 63 Li    0.01257   -0.02043    0.00771
 64 Li   -0.00000   -0.00323   -0.02939
 65 Li    0.00217   -0.00051    0.05718
 66 Li    0.00000   -0.00177    0.02181
 67 Li    0.00064   -0.00052   -0.04872
 68 Li   -0.00000    0.00543    0.01264
[...]
  9 Li    0.00000   -0.00070    0.06317
 10 Li    0.00002    0.00041    0.00252
 11 Li    0.00000   -0.00200   -0.00549
 12 Li    0.00046   -0.00131    0.01125
 13 Li    0.00000    0.00557   -0.00099
 14 Li    0.00473   -0.00492   -0.00182
 15 Li   -0.00000    0.09214   -0.00158
 16 Li    0.00089    0.00209   -0.03197
 17 Li    0.00000    0.00090    0.05615
 18 Li    0.00089   -0.00070    0.01464
 19 Li    0.00000   -0.00271   -0.03352
 20 Li   -0.00372    0.00043    0.00576
 21 Li    0.00000   -0.00258   -0.00122
 22 Li   -0.02862    0.02388   -0.05137
 23 Li    0.00000   -0.00800   -0.03813
 24 Li   -0.00263   -0.00206   -0.03018
 25 Li   -0.00013    0.00230    0.05895
 26 Li   -0.00055    0.00020    0.02355
 27 Li   -0.00167    0.00056   -0.03990
 28 Li    0.00377    0.00086    0.00751
 29 Li    0.00686   -0.00404    0.00779
 30 Li    0.00573   -0.00475   -0.02810
 31 Li    0.00408    0.01545    0.00555
 32 Li    0.00224    0.00002   -0.03477
 33 Li    0.00088   -0.00193    0.05949
 34 Li   -0.00002    0.00041    0.00252
 35 Li   -0.00415   -0.00056   -0.03338
 36 Li   -0.00046   -0.00131    0.01125
 37 Li    0.00590    0.00197    0.00714
 38 Li   -0.00472   -0.00492   -0.00182
 39 Li   -0.01058   -0.01251    0.00101
 40 Li   -0.00089    0.00209   -0.03197
 41 Li   -0.00217   -0.00042    0.05708
 42 Li   -0.00089   -0.00070    0.01465
 43 Li    0.00056   -0.00012   -0.04709
 44 Li    0.00372    0.00043    0.00576
 45 Li    0.00572    0.00283    0.01011
 46 Li    0.02862    0.02388   -0.05137
 47 Li   -0.00251    0.00023   -0.02331
 48 Li    0.00000    0.00172   -0.03023
 49 Li    0.00013    0.00230    0.05895
 50 Li    0.00000    0.00145    0.01380
 51 Li    0.00166    0.00056   -0.03990
 52 Li   -0.00000   -0.00241    0.01476
 53 Li   -0.00686   -0.00404    0.00779
 54 Li   -0.00000    0.01202    0.00579
 55 Li   -0.00408    0.01545    0.00556
 56 Li   -0.00000    0.00166   -0.02935
 57 Li   -0.00088   -0.00193    0.05949
 58 Li    0.00000    0.00003    0.03053
 59 Li    0.00415   -0.00056   -0.03338
 60 Li   -0.00000   -0.00227    0.00637
 61 Li   -0.00589    0.00197    0.00714
 62 Li   -0.00000   -0.00057   -0.00687
 63 Li    0.01058   -0.01250    0.00101
 64 Li   -0.00000   -0.00327   -0.02959
 65 Li    0.00217   -0.00042    0.05708
 66 Li    0.00000   -0.00163    0.02203
 67 Li   -0.00056   -0.00012   -0.04710
 68 Li   -0.00000    0.00456    0.01094
 69 Li   -0.00572    0.00283    0.01011
 70 Li   -0.00000   -0.00999    0.00296
 71 Li    0.00252    0.00023   -0.02331
 72 Li   -0.00000   -0.01195   -0.02890

System changes: positions 

Initializing position-dependent things.

Density initialized from wave functions
       .-------------------------.  
      /|                         |  
     / |                         |  
    /  |                         |  
   /   |                         |  
  /    |                         |  
 *     |                         |  
 |     |                         |  
 |     |                         |  
 |     |                         |  
 |     |                         |  
 |     |                         |  
 |     |                         |  
 |     |  Li       Li       Li   |  
 |     |Li                       |  
 |     Li       Li        Li     |  
 |     |Li                       |  
 |     |      LLi     LiLi     Li|  
 |    Li  Li       Li       Li   |  
 |     Li   Li  Li  Li       Li  |  
 |     |Li       Li       Li     |  
 |     |      Li  Li  Li       Li|  
 |    Li  Li   Li  Li   Li  Li   |  
 |     |    Li      Li       Li  |  
 |     |Li       Li       Li     |  
 |   Li|      Li  Li  Li         |  
 |    Li  Li   Li  Li   Li  Li   |  
 | Li  |    Li      Li           |  
 |     |Li       Li       Li     |  
 Li    |  Li      Li             |  
 |   LLi      LLi     LiLi       |  
 |     |                         |  
 | Li  |    Li      Li           |  
 |     |                         |  
 Li    |  Li      Li             |  
 |     |                         |  
 |     |                         |  
 |     |                         |  
 |     |                         |  
 |     |                         |  
 |     .-------------------------.  
 |    /                         /   
 |   /                         /    
 |  /                         /     
 | /                         /      
 |/                         /       
 *-------------------------*        

Atomic positions and initial magnetic moments

Positions:
   0 Li     0.000000    0.000000   10.000000    ( 0.0000,  0.0000,  0.0000)
   1 Li     1.745000    1.745000   11.745000    ( 0.0000,  0.0000,  0.0000)
   2 Li     0.000000    0.000000   13.490000    ( 0.0000,  0.0000,  0.0000)
   3 Li     1.745000    1.745000   15.235000    ( 0.0000,  0.0000,  0.0000)
   4 Li     0.003899   -0.009678   16.938560    ( 0.0000,  0.0000,  0.0000)
   5 Li     1.744996    1.760525   18.631838    ( 0.0000,  0.0000,  0.0000)
   6 Li     0.009305   -0.041107   20.411953    ( 0.0000,  0.0000,  0.0000)
   7 Li     1.744997    1.905147   22.003600    ( 0.0000,  0.0000,  0.0000)
   8 Li     0.000000    3.490000   10.000000    ( 0.0000,  0.0000,  0.0000)
   9 Li     1.745000    5.235000   11.745000    ( 0.0000,  0.0000,  0.0000)
  10 Li     0.000000    3.490000   13.490000    ( 0.0000,  0.0000,  0.0000)
  11 Li     1.745000    5.235000   15.235000    ( 0.0000,  0.0000,  0.0000)
  12 Li    -0.029227    3.480319   16.917926    ( 0.0000,  0.0000,  0.0000)
  13 Li     1.744996    5.228912   18.583815    ( 0.0000,  0.0000,  0.0000)
  14 Li    -0.128329    3.447138   20.315017    ( 0.0000,  0.0000,  0.0000)
  15 Li     1.745001    5.226843   21.601217    ( 0.0000,  0.0000,  0.0000)
  16 Li     0.000000    6.980000   10.000000    ( 0.0000,  0.0000,  0.0000)
  17 Li     1.745000    8.725000   11.745000    ( 0.0000,  0.0000,  0.0000)
  18 Li     0.000000    6.980000   13.490000    ( 0.0000,  0.0000,  0.0000)
  19 Li     1.745000    8.725000   15.235000    ( 0.0000,  0.0000,  0.0000)
  20 Li    -0.012970    6.999493   16.927891    ( 0.0000,  0.0000,  0.0000)
  21 Li     1.744996    8.716182   18.642953    ( 0.0000,  0.0000,  0.0000)
  22 Li    -0.061058    7.065841   20.351628    ( 0.0000,  0.0000,  0.0000)
  23 Li     1.744991    8.586950   22.315781    ( 0.0000,  0.0000,  0.0000)
  24 Li     3.490000    0.000000   10.000000    ( 0.0000,  0.0000,  0.0000)
  25 Li     5.235000    1.745000   11.745000    ( 0.0000,  0.0000,  0.0000)
  26 Li     3.490000    0.000000   13.490000    ( 0.0000,  0.0000,  0.0000)
  27 Li     5.235000    1.745000   15.235000    ( 0.0000,  0.0000,  0.0000)
  28 Li     3.486101   -0.009678   16.938566    ( 0.0000,  0.0000,  0.0000)
  29 Li     5.278514    1.693885   18.633274    ( 0.0000,  0.0000,  0.0000)
  30 Li     3.480688   -0.041108   20.411950    ( 0.0000,  0.0000,  0.0000)
  31 Li     5.112100    1.751427   22.307762    ( 0.0000,  0.0000,  0.0000)
  32 Li     3.490000    3.490000   10.000000    ( 0.0000,  0.0000,  0.0000)
  33 Li     5.235000    5.235000   11.745000    ( 0.0000,  0.0000,  0.0000)
  34 Li     3.490000    3.490000   13.490000    ( 0.0000,  0.0000,  0.0000)
  35 Li     5.235000    5.235000   15.235000    ( 0.0000,  0.0000,  0.0000)
  36 Li     3.519222    3.480320   16.917926    ( 0.0000,  0.0000,  0.0000)
  37 Li     5.245928    5.262085   18.640354    ( 0.0000,  0.0000,  0.0000)
  38 Li     3.618322    3.447136   20.315015    ( 0.0000,  0.0000,  0.0000)
  39 Li     4.970456    5.226791   22.322993    ( 0.0000,  0.0000,  0.0000)
  40 Li     3.490000    6.980000   10.000000    ( 0.0000,  0.0000,  0.0000)
  41 Li     5.235000    8.725000   11.745000    ( 0.0000,  0.0000,  0.0000)
  42 Li     3.490000    6.980000   13.490000    ( 0.0000,  0.0000,  0.0000)
  43 Li     5.235000    8.725000   15.235000    ( 0.0000,  0.0000,  0.0000)
  44 Li     3.502969    6.999494   16.927895    ( 0.0000,  0.0000,  0.0000)
  45 Li     5.306580    8.749301   18.627624    ( 0.0000,  0.0000,  0.0000)
  46 Li     3.551053    7.065843   20.351625    ( 0.0000,  0.0000,  0.0000)
  47 Li     5.247154    8.728233   22.273848    ( 0.0000,  0.0000,  0.0000)
  48 Li     6.980000    0.000000   10.000000    ( 0.0000,  0.0000,  0.0000)
  49 Li     8.725000    1.745000   11.745000    ( 0.0000,  0.0000,  0.0000)
  50 Li     6.980000    0.000000   13.490000    ( 0.0000,  0.0000,  0.0000)
  51 Li     8.725000    1.745000   15.235000    ( 0.0000,  0.0000,  0.0000)
  52 Li     6.980002    0.007387   16.867803    ( 0.0000,  0.0000,  0.0000)
  53 Li     8.681487    1.693881   18.633274    ( 0.0000,  0.0000,  0.0000)
  54 Li     6.980000    0.031497   20.488179    ( 0.0000,  0.0000,  0.0000)
  55 Li     8.847899    1.751427   22.307765    ( 0.0000,  0.0000,  0.0000)
  56 Li     6.980000    3.490000   10.000000    ( 0.0000,  0.0000,  0.0000)
  57 Li     8.725000    5.235000   11.745000    ( 0.0000,  0.0000,  0.0000)
  58 Li     6.980000    3.490000   13.490000    ( 0.0000,  0.0000,  0.0000)
  59 Li     8.725000    5.235000   15.235000    ( 0.0000,  0.0000,  0.0000)
  60 Li     6.980002    3.496843   16.950201    ( 0.0000,  0.0000,  0.0000)
  61 Li     8.714070    5.262088   18.640355    ( 0.0000,  0.0000,  0.0000)
  62 Li     6.980001    3.512601   20.476592    ( 0.0000,  0.0000,  0.0000)
  63 Li     8.989546    5.226791   22.322997    ( 0.0000,  0.0000,  0.0000)
  64 Li     6.980000    6.980000   10.000000    ( 0.0000,  0.0000,  0.0000)
  65 Li     8.725000    8.725000   11.745000    ( 0.0000,  0.0000,  0.0000)
  66 Li     6.980000    6.980000   13.490000    ( 0.0000,  0.0000,  0.0000)
  67 Li     8.725000    8.725000   15.235000    ( 0.0000,  0.0000,  0.0000)
  68 Li     6.980002    6.965862   16.907829    ( 0.0000,  0.0000,  0.0000)
  69 Li     8.653428    8.749302   18.627622    ( 0.0000,  0.0000,  0.0000)
  70 Li     6.980001    6.926860   20.485109    ( 0.0000,  0.0000,  0.0000)
  71 Li     8.712834    8.728234   22.273850    ( 0.0000,  0.0000,  0.0000)
  72 Li     1.744999    4.043008   24.061350    ( 0.0000,  0.0000,  0.0000)

Unit cell:
           periodic     x           y           z      points  spacing
  1. axis:    yes   10.470000    0.000000    0.000000    35     0.2991
  2. axis:    yes    0.000000   10.470000    0.000000    35     0.2991
  3. axis:    no     0.000000    0.000000   32.215000   108     0.2983

  Lengths:  10.470000  10.470000  32.215000
  Angles:   90.000000  90.000000  90.000000

Effective grid spacing dv^(1/3) = 0.2989

     iter     time        total  log10-change:
                         energy   eigst   dens
iter:   1 01:13:45  -131.400113   -2.98
iter:   2 01:13:49  -131.376005   -3.54  -1.78
iter:   3 01:13:53  -131.376341c  -3.57  -2.01
iter:   4 01:13:56  -131.364425c  -4.25  -1.92
iter:   5 01:14:00  -131.361741c  -4.30  -2.39
iter:   6 01:14:04  -131.362356c  -4.55  -2.61
iter:   7 01:14:07  -131.361571c  -5.47c -2.68
iter:   8 01:14:12  -131.361284c  -5.55c -3.00
iter:   9 01:14:15  -131.361479c  -6.07c -3.19
iter:  10 01:14:19  -131.361409c  -6.44c -3.24
iter:  11 01:14:24  -131.361389c  -6.63c -3.37
iter:  12 01:14:28  -131.361380c  -6.83c -3.57
iter:  13 01:14:32  -131.361406c  -7.00c -3.65
iter:  14 01:14:35  -131.361391c  -7.36c -3.75
iter:  15 01:14:39  -131.361372c  -7.29c -3.89
iter:  16 01:14:43  -131.361368c  -7.46c -3.95
iter:  17 01:14:47  -131.361362c  -7.52c -4.06c

Converged after 17 iterations.

Dipole moment: (2.999602, 1.011124, 0.304465) |e|*Ang

Energy contributions relative to reference atoms: (reference = -14803.510878)

Kinetic:       +102.487884
Potential:      -92.165837
External:        +0.000000
XC:            -140.588325
Entropy (-ST):   -1.214278
Local:           -0.487944
SIC:             +0.000000
--------------------------
Free energy:   -131.968501
Extrapolated:  -131.361362

Showing all kpts
 Kpt  Band  Eigenvalues  Occupancy
  0    34     -1.57916    1.60532
  0    35     -1.56882    1.57153
  0    36     -1.38704    0.74657
  0    37     -1.34626    0.56749

  1    34     -1.57916    1.60532
  1    35     -1.56882    1.57153
  1    36     -1.38704    0.74657
  1    37     -1.34626    0.56749


Fermi level: -1.43886

Gap: 0.182 eV
Transition (v -> c):
  (s=0, k=1, n=35, [0.25, 0.25, 0.00]) -> (s=0, k=1, n=36, [0.25, 0.25, 0.00])
No difference between direct/indirect transitions

Forces in eV/Ang:
  0 Li    0.00266   -0.00209   -0.03024
  1 Li    0.00000   -0.00035    0.06227
  2 Li    0.00052    0.00013    0.02355
  3 Li    0.00000    0.00421   -0.01107
  4 Li   -0.00241    0.00138    0.00821
  5 Li    0.00000   -0.00512    0.01939
  6 Li   -0.01054   -0.00666   -0.02473
  7 Li    0.00000   -0.08147    0.00588
  8 Li   -0.00216    0.00001   -0.03486
  9 Li    0.00000   -0.00053    0.06282
 10 Li   -0.00001    0.00039    0.00265
 11 Li    0.00000   -0.00169   -0.00483
 12 Li    0.00150   -0.00155    0.01284
 13 Li    0.00000    0.00547   -0.01389
 14 Li    0.00986   -0.00448    0.00392
 15 Li   -0.00000    0.05258    0.04819
 16 Li    0.00090    0.00211   -0.03206
 17 Li    0.00000    0.00091    0.05585
 18 Li    0.00085   -0.00058    0.01463
 19 Li    0.00000   -0.00256   -0.03291
 20 Li   -0.00306   -0.00001    0.00592
 21 Li    0.00000   -0.00352   -0.00134
 22 Li   -0.03573    0.02792   -0.04993
 23 Li    0.00000   -0.00503   -0.03955
 24 Li   -0.00266   -0.00209   -0.03024
 25 Li   -0.00009    0.00220    0.05878
 26 Li   -0.00052    0.00014    0.02355
 27 Li   -0.00120    0.00022   -0.03930
 28 Li    0.00242    0.00138    0.00820
 29 Li    0.00576   -0.00283    0.00680
 30 Li    0.01054   -0.00666   -0.02473
 31 Li    0.00406    0.01176    0.00388
 32 Li    0.00216    0.00001   -0.03486
 33 Li    0.00090   -0.00183    0.05930
 34 Li    0.00001    0.00039    0.00265
 35 Li   -0.00370   -0.00047   -0.03266
 36 Li   -0.00150   -0.00155    0.01284
 37 Li    0.00435    0.00011    0.00597
 38 Li   -0.00985   -0.00448    0.00392
 39 Li   -0.00962   -0.00843   -0.00205
 40 Li   -0.00090    0.00211   -0.03206
 41 Li   -0.00215   -0.00038    0.05703
 42 Li   -0.00085   -0.00059    0.01463
 43 Li    0.00108    0.00012   -0.04637
 44 Li    0.00306   -0.00000    0.00592
 45 Li    0.00891    0.00387    0.00770
 46 Li    0.03573    0.02792   -0.04993
 47 Li   -0.00474    0.00053   -0.02249
 48 Li    0.00000    0.00163   -0.03025
 49 Li    0.00009    0.00220    0.05878
 50 Li    0.00000    0.00142    0.01397
 51 Li    0.00120    0.00022   -0.03931
 52 Li   -0.00000   -0.00200    0.01159
 53 Li   -0.00576   -0.00283    0.00680
 54 Li   -0.00000    0.01094    0.00514
 55 Li   -0.00406    0.01176    0.00388
 56 Li   -0.00000    0.00165   -0.02945
 57 Li   -0.00090   -0.00183    0.05930
 58 Li    0.00000    0.00001    0.03042
 59 Li    0.00370   -0.00047   -0.03267
 60 Li   -0.00000   -0.00197    0.00594
 61 Li   -0.00435    0.00010    0.00597
 62 Li    0.00000   -0.00026   -0.00291
 63 Li    0.00963   -0.00843   -0.00205
 64 Li   -0.00000   -0.00320   -0.02963
 65 Li    0.00215   -0.00038    0.05703
 66 Li    0.00000   -0.00150    0.02208
 67 Li   -0.00108    0.00012   -0.04637
 68 Li   -0.00000    0.00377    0.00999
 69 Li   -0.00891    0.00387    0.00770
 70 Li   -0.00000   -0.00939    0.00360
 71 Li    0.00475    0.00053   -0.02249
 72 Li   -0.00000   -0.00680   -0.07323

Timing:                                      incl.     excl.
-------------------------------------------------------------------
Density initialized from wave functions:     6.305     6.305   0.1% |
 Symmetrize density:                         0.000     0.000   0.0% |
Forces:                                     31.521    31.521   0.3% |
Hamiltonian:                                12.545     0.049   0.0% |
 Atomic:                                     6.708     0.031   0.0% |
  XC Correction:                             6.676     6.676   0.1% |
 Calculate atomic Hamiltonians:              4.003     4.003   0.0% |
 Communicate:                                0.000     0.000   0.0% |
 Initialize Hamiltonian:                     0.000     0.000   0.0% |
 Poisson:                                    0.174     0.174   0.0% |
 XC 3D grid:                                 1.611     1.611   0.0% |
LCAO initialization:                        13.771     0.013   0.0% |
 LCAO eigensolver:                           0.483     0.000   0.0% |
  Calculate projections:                     0.004     0.004   0.0% |
  DenseAtomicCorrection:                     0.049     0.049   0.0% |
  Distribute overlap matrix:                 0.000     0.000   0.0% |
  Orbital Layouts:                           0.082     0.082   0.0% |
  Potential matrix:                          0.339     0.339   0.0% |
  Sum over cells:                            0.008     0.008   0.0% |
 LCAO to grid:                              12.425    12.425   0.1% |
 Set positions (LCAO WFS):                   0.850     0.216   0.0% |
  Basic WFS set positions:                   0.002     0.002   0.0% |
  Basis functions set positions:             0.000     0.000   0.0% |
  P tci:                                     0.412     0.412   0.0% |
  ST tci:                                    0.192     0.192   0.0% |
  mktci:                                     0.028     0.028   0.0% |
PWDescriptor:                                0.008     0.008   0.0% |
Redistribute:                                0.017     0.017   0.0% |
SCF-cycle:                                 611.037     0.120   0.0% |
 Davidson:                                 338.277    70.223   0.7% |
  Apply H:                                  56.923    56.281   0.5% |
   HMM T:                                    0.642     0.642   0.0% |
  Subspace diag:                            65.416     0.075   0.0% |
   calc_h_matrix:                           60.045     4.020   0.0% |
    Apply H:                                56.025    55.287   0.5% |
     HMM T:                                  0.738     0.738   0.0% |
   diagonalize:                              0.242     0.242   0.0% |
   rotate_psi:                               5.055     5.055   0.0% |
  calc. matrices:                          133.720    19.746   0.2% |
   Apply H:                                113.974   112.684   1.0% |
    HMM T:                                   1.290     1.290   0.0% |
  diagonalize:                               1.859     1.859   0.0% |
  rotate_psi:                               10.135    10.135   0.1% |
 Density:                                   84.054     0.002   0.0% |
  Atomic density matrices:                   0.428     0.428   0.0% |
  Mix:                                      55.839    55.839   0.5% |
  Multipole moments:                         0.096     0.096   0.0% |
  Pseudo density:                           27.689    27.687   0.3% |
   Symmetrize density:                       0.002     0.002   0.0% |
 Hamiltonian:                              186.708     0.309   0.0% |
  Atomic:                                  100.710     0.371   0.0% |
   XC Correction:                          100.338   100.338   0.9% |
  Calculate atomic Hamiltonians:            61.759    61.759   0.6% |
  Communicate:                               0.001     0.001   0.0% |
  Poisson:                                   0.214     0.214   0.0% |
  XC 3D grid:                               23.715    23.715   0.2% |
 Orthonormalize:                             1.877     0.004   0.0% |
  calc_s_matrix:                             0.136     0.136   0.0% |
  inverse-cholesky:                          0.008     0.008   0.0% |
  projections:                               1.370     1.370   0.0% |
  rotate_psi_s:                              0.359     0.359   0.0% |
Set symmetry:                                0.000     0.000   0.0% |
Other:                                   10076.998 10076.998  93.7% |------------------------------------|
-------------------------------------------------------------------
Total:                                             10752.203 100.0%

Memory usage: 4.13 GiB
Date: Tue Nov 25 03:13:44 2025
