
  ___ ___ ___ _ _ _  
 |   |   |_  | | | | 
 | | | | | . | | | | 
 |__ |  _|___|_____|  25.7.0
 |___|_|             

User:   tew@Mathuss-MacBook-Air-357.local
Date:   Mon Nov 24 23:12:41 2025
Arch:   arm64
Pid:    76608
CWD:    /Users/tew/Documents/Project/GitHub/chem-com
Python: 3.13.5
gpaw:   /Users/tew/Documents/Project/GitHub/chem-com/.venv/lib/python3.13/site-packages/gpaw
_gpaw:  /Users/tew/Documents/Project/GitHub/chem-com/.venv/lib/python3.13/site-packages/
        _gpaw.cpython-313-darwin.so
ase:    /Users/tew/Documents/Project/GitHub/chem-com/.venv/lib/python3.13/site-packages/ase (version 3.26.0)
numpy:  /Users/tew/Documents/Project/GitHub/chem-com/.venv/lib/python3.13/site-packages/numpy (version 2.3.5)
scipy:  /Users/tew/Documents/Project/GitHub/chem-com/.venv/lib/python3.13/site-packages/scipy (version 1.16.3)
libxc:  2.x.y
units:  Angstrom and eV
cores: 1
OpenMP: False
OMP_NUM_THREADS: 1

Input parameters:
  convergence: {density: 0.0001,
                eigenstates: 5e-06}
  kpts: [2 2 1]
  mode: {ecut: 200.0,
         name: pw}
  xc: PBE

System changes: positions, numbers, cell, pbc, initial_charges, initial_magmoms 

Initialize ...

species:
  Li:
    name: Lithium
    id: 830b4218f175192f93f959cfc0aad614
    Z: 3.0
    valence: 1
    core: 2
    charge: 0.0
    file: /Users/tew/Documents/Project/GitHub/chem-com/.venv/lib/python3.13/site-packages/gpaw_data/setups/Li.PBE.gz
    compensation charges: {type: gauss,
                           rc: 0.33,
                           lmax: 2}
    cutoffs: {filter: 1.91,
              core: 2.55}
    projectors:
      #              energy  rcut
      - 2s(1.00)    -2.874   1.058
      - 2p(0.00)    -1.090   1.058
      -  s          24.337   1.058
  
    # Using partial waves for Li as LCAO basis

Reference energy: -14803.510878  # eV

Spin-paired calculation

Convergence criteria:
 Maximum [total energy] change in last 3 cyles: 0.0005 eV / valence electron
 Maximum integral of absolute [dens]ity change: 0.0001 electrons / valence electron
 Maximum integral of absolute [eigenst]ate change: 5e-06 eV^2 / valence electron
 Maximum number of scf [iter]ations: 333
 (Square brackets indicate name in SCF output, whereas a 'c' in
 the SCF output indicates the quantity has converged.)

Symmetries present (total): 2

  ( 1  0  0)  ( 0  1  0)
  ( 0  1  0)  ( 1  0  0)
  ( 0  0  1)  ( 0  0  1)

4 k-points: 2 x 2 x 1 Monkhorst-Pack grid
2 k-points in the irreducible part of the Brillouin zone
       k-points in crystal coordinates                weights
   0:     0.25000000   -0.25000000    0.00000000          2/4
   1:     0.25000000    0.25000000    0.00000000          2/4

Wave functions: Plane wave expansion
  Cutoff energy: 200.000 eV
  Number of coefficients (min, max): 22683, 22683
  Pulay-stress correction: 0.000000 eV/Ang^3 (de/decut=0.000000)
  Using Numpy's FFT
  ScaLapack parameters: grid=1x1, blocksize=None
  Wavefunction extrapolation:
    Improved wavefunction reuse through dual PAW basis 

Occupation numbers: Fermi-Dirac:
  width: 0.1000  # eV
 

Eigensolver
   Davidson(niter=2) 

Densities:
  Coarse grid: 35*35*108 grid
  Fine grid: 70*70*216 grid
  Total Charge: 0.000000 

Density mixing:
  Method: separate
  Backend: pulay
  Linear mixing parameter: 0.05
  old densities: 5
  Damping of long wavelength oscillations: 50 

Hamiltonian:
  XC and Coulomb potentials evaluated on a 70*70*216 grid
  Using the PBE Exchange-Correlation functional
  External potential:
    NoExternalPotential
 

XC parameters: PBE with 2 nearest neighbor stencil

Memory estimate:
  Process memory now: 4231.58 MiB
  Calculator: 138.59 MiB
    Density: 60.32 MiB
      Arrays: 26.24 MiB
      Localized functions: 23.99 MiB
      Mixer: 10.09 MiB
    Hamiltonian: 17.65 MiB
      Arrays: 17.16 MiB
      XC: 0.00 MiB
      Poisson: 0.00 MiB
      vbar: 0.49 MiB
    Wavefunctions: 60.62 MiB
      Arrays psit_nG: 33.23 MiB
      Eigensolver: 18.70 MiB
      Projections: 0.53 MiB
      Projectors: 2.42 MiB
      PW-descriptor: 5.74 MiB

Total number of cores used: 1

Number of atoms: 73
Number of atomic orbitals: 292
Number of bands in calculation: 48
Number of valence electrons: 73
Bands to converge: occupied

... initialized

Initializing position-dependent things.

Density initialized from atomic densities
Creating initial wave functions:
  48 bands from LCAO basis set

       .-------------------------.  
      /|                         |  
     / |                         |  
    /  |                         |  
   /   |                         |  
  /    |                         |  
 *     |                         |  
 |     |                         |  
 |     |                         |  
 |     |                         |  
 |     |                         |  
 |     |                         |  
 |     |                         |  
 |     |  Li       Li       Li   |  
 |     |                         |  
 |    LiLi       Li       Li     |  
 |     |                         |  
 |   LLi      LLi     LiLi       |  
 |     |  Li       Li       Li   |  
 | Li  |    Li      Li           |  
 |     |Li       Li       Li     |  
 Li  Li|  Li  Li  Li  Li         |  
 |    Li  Li   Li  Li   Li  Li   |  
 | Li  |    Li      Li           |  
 |     |Li       Li       Li     |  
 Li  Li|  Li  Li  Li  Li         |  
 |    Li  Li   Li  Li   Li  Li   |  
 | Li  |    Li      Li           |  
 |     |Li       Li       Li     |  
 Li    |  Li      Li             |  
 |   LLi      LLi     LiLi       |  
 |     |                         |  
 | Li  |    Li      Li           |  
 |     |                         |  
 Li    |  Li      Li             |  
 |     |                         |  
 |     |                         |  
 |     |                         |  
 |     |                         |  
 |     |                         |  
 |     .-------------------------.  
 |    /                         /   
 |   /                         /    
 |  /                         /     
 | /                         /      
 |/                         /       
 *-------------------------*        

Atomic positions and initial magnetic moments

Positions:
   0 Li     0.000000    0.000000   10.000000    ( 0.0000,  0.0000,  0.0000)
   1 Li     1.745000    1.745000   11.745000    ( 0.0000,  0.0000,  0.0000)
   2 Li     0.000000    0.000000   13.490000    ( 0.0000,  0.0000,  0.0000)
   3 Li     1.745000    1.745000   15.235000    ( 0.0000,  0.0000,  0.0000)
   4 Li     0.000000    0.000000   16.980000    ( 0.0000,  0.0000,  0.0000)
   5 Li     1.745000    1.745000   18.725000    ( 0.0000,  0.0000,  0.0000)
   6 Li     0.000000    0.000000   20.470000    ( 0.0000,  0.0000,  0.0000)
   7 Li     1.745000    1.745000   22.215000    ( 0.0000,  0.0000,  0.0000)
   8 Li     0.000000    3.490000   10.000000    ( 0.0000,  0.0000,  0.0000)
   9 Li     1.745000    5.235000   11.745000    ( 0.0000,  0.0000,  0.0000)
  10 Li     0.000000    3.490000   13.490000    ( 0.0000,  0.0000,  0.0000)
  11 Li     1.745000    5.235000   15.235000    ( 0.0000,  0.0000,  0.0000)
  12 Li     0.000000    3.490000   16.980000    ( 0.0000,  0.0000,  0.0000)
  13 Li     1.745000    5.235000   18.725000    ( 0.0000,  0.0000,  0.0000)
  14 Li     0.000000    3.490000   20.470000    ( 0.0000,  0.0000,  0.0000)
  15 Li     1.745000    5.235000   22.215000    ( 0.0000,  0.0000,  0.0000)
  16 Li     0.000000    6.980000   10.000000    ( 0.0000,  0.0000,  0.0000)
  17 Li     1.745000    8.725000   11.745000    ( 0.0000,  0.0000,  0.0000)
  18 Li     0.000000    6.980000   13.490000    ( 0.0000,  0.0000,  0.0000)
  19 Li     1.745000    8.725000   15.235000    ( 0.0000,  0.0000,  0.0000)
  20 Li     0.000000    6.980000   16.980000    ( 0.0000,  0.0000,  0.0000)
  21 Li     1.745000    8.725000   18.725000    ( 0.0000,  0.0000,  0.0000)
  22 Li     0.000000    6.980000   20.470000    ( 0.0000,  0.0000,  0.0000)
  23 Li     1.745000    8.725000   22.215000    ( 0.0000,  0.0000,  0.0000)
  24 Li     3.490000    0.000000   10.000000    ( 0.0000,  0.0000,  0.0000)
  25 Li     5.235000    1.745000   11.745000    ( 0.0000,  0.0000,  0.0000)
  26 Li     3.490000    0.000000   13.490000    ( 0.0000,  0.0000,  0.0000)
  27 Li     5.235000    1.745000   15.235000    ( 0.0000,  0.0000,  0.0000)
  28 Li     3.490000    0.000000   16.980000    ( 0.0000,  0.0000,  0.0000)
  29 Li     5.235000    1.745000   18.725000    ( 0.0000,  0.0000,  0.0000)
  30 Li     3.490000    0.000000   20.470000    ( 0.0000,  0.0000,  0.0000)
  31 Li     5.235000    1.745000   22.215000    ( 0.0000,  0.0000,  0.0000)
  32 Li     3.490000    3.490000   10.000000    ( 0.0000,  0.0000,  0.0000)
  33 Li     5.235000    5.235000   11.745000    ( 0.0000,  0.0000,  0.0000)
  34 Li     3.490000    3.490000   13.490000    ( 0.0000,  0.0000,  0.0000)
  35 Li     5.235000    5.235000   15.235000    ( 0.0000,  0.0000,  0.0000)
  36 Li     3.490000    3.490000   16.980000    ( 0.0000,  0.0000,  0.0000)
  37 Li     5.235000    5.235000   18.725000    ( 0.0000,  0.0000,  0.0000)
  38 Li     3.490000    3.490000   20.470000    ( 0.0000,  0.0000,  0.0000)
  39 Li     5.235000    5.235000   22.215000    ( 0.0000,  0.0000,  0.0000)
  40 Li     3.490000    6.980000   10.000000    ( 0.0000,  0.0000,  0.0000)
  41 Li     5.235000    8.725000   11.745000    ( 0.0000,  0.0000,  0.0000)
  42 Li     3.490000    6.980000   13.490000    ( 0.0000,  0.0000,  0.0000)
  43 Li     5.235000    8.725000   15.235000    ( 0.0000,  0.0000,  0.0000)
  44 Li     3.490000    6.980000   16.980000    ( 0.0000,  0.0000,  0.0000)
  45 Li     5.235000    8.725000   18.725000    ( 0.0000,  0.0000,  0.0000)
  46 Li     3.490000    6.980000   20.470000    ( 0.0000,  0.0000,  0.0000)
  47 Li     5.235000    8.725000   22.215000    ( 0.0000,  0.0000,  0.0000)
  48 Li     6.980000    0.000000   10.000000    ( 0.0000,  0.0000,  0.0000)
  49 Li     8.725000    1.745000   11.745000    ( 0.0000,  0.0000,  0.0000)
  50 Li     6.980000    0.000000   13.490000    ( 0.0000,  0.0000,  0.0000)
  51 Li     8.725000    1.745000   15.235000    ( 0.0000,  0.0000,  0.0000)
  52 Li     6.980000    0.000000   16.980000    ( 0.0000,  0.0000,  0.0000)
  53 Li     8.725000    1.745000   18.725000    ( 0.0000,  0.0000,  0.0000)
  54 Li     6.980000    0.000000   20.470000    ( 0.0000,  0.0000,  0.0000)
  55 Li     8.725000    1.745000   22.215000    ( 0.0000,  0.0000,  0.0000)
  56 Li     6.980000    3.490000   10.000000    ( 0.0000,  0.0000,  0.0000)
  57 Li     8.725000    5.235000   11.745000    ( 0.0000,  0.0000,  0.0000)
  58 Li     6.980000    3.490000   13.490000    ( 0.0000,  0.0000,  0.0000)
  59 Li     8.725000    5.235000   15.235000    ( 0.0000,  0.0000,  0.0000)
  60 Li     6.980000    3.490000   16.980000    ( 0.0000,  0.0000,  0.0000)
  61 Li     8.725000    5.235000   18.725000    ( 0.0000,  0.0000,  0.0000)
  62 Li     6.980000    3.490000   20.470000    ( 0.0000,  0.0000,  0.0000)
  63 Li     8.725000    5.235000   22.215000    ( 0.0000,  0.0000,  0.0000)
  64 Li     6.980000    6.980000   10.000000    ( 0.0000,  0.0000,  0.0000)
  65 Li     8.725000    8.725000   11.745000    ( 0.0000,  0.0000,  0.0000)
  66 Li     6.980000    6.980000   13.490000    ( 0.0000,  0.0000,  0.0000)
  67 Li     8.725000    8.725000   15.235000    ( 0.0000,  0.0000,  0.0000)
  68 Li     6.980000    6.980000   16.980000    ( 0.0000,  0.0000,  0.0000)
  69 Li     8.725000    8.725000   18.725000    ( 0.0000,  0.0000,  0.0000)
  70 Li     6.980000    6.980000   20.470000    ( 0.0000,  0.0000,  0.0000)
  71 Li     8.725000    8.725000   22.215000    ( 0.0000,  0.0000,  0.0000)
  72 Li     1.745000    1.745000   24.215000    ( 0.0000,  0.0000,  0.0000)

Unit cell:
           periodic     x           y           z      points  spacing
  1. axis:    yes   10.470000    0.000000    0.000000    35     0.2991
  2. axis:    yes    0.000000   10.470000    0.000000    35     0.2991
  3. axis:    no     0.000000    0.000000   32.215000   108     0.2983

  Lengths:  10.470000  10.470000  32.215000
  Angles:   90.000000  90.000000  90.000000

Effective grid spacing dv^(1/3) = 0.2989

     iter     time        total  log10-change:
                         energy   eigst   dens
iter:   1 23:13:01  -136.426799
iter:   2 23:13:05  -132.525482   -0.74  -0.66
iter:   3 23:13:08  -132.155774   -1.25  -0.85
iter:   4 23:13:12  -132.216607   -1.57  -0.90
iter:   5 23:13:16  -131.224344   -1.71  -0.88
iter:   6 23:13:20  -131.263813   -1.47  -1.08
iter:   7 23:13:25  -130.943597   -2.21  -1.11
iter:   8 23:13:29  -130.870101   -1.51  -1.19
iter:   9 23:13:34  -130.681573   -2.62  -1.33
iter:  10 23:13:38  -130.690142   -2.70  -1.56
iter:  11 23:13:43  -130.682535c  -3.01  -1.56
iter:  12 23:13:48  -130.668647c  -3.20  -1.61
iter:  13 23:13:52  -130.672772c  -3.17  -1.72
iter:  14 23:13:56  -130.671207c  -3.77  -1.81
iter:  15 23:14:00  -130.664356c  -3.50  -1.94
iter:  16 23:14:05  -130.658836c  -3.63  -2.08
iter:  17 23:14:10  -130.654112c  -4.06  -2.16
iter:  18 23:14:14  -130.654404c  -4.04  -2.38
iter:  19 23:14:19  -130.654729c  -4.67  -2.73
iter:  20 23:14:23  -130.654325c  -4.81  -2.79
iter:  21 23:14:28  -130.654239c  -5.09  -2.93
iter:  22 23:14:32  -130.653954c  -4.74  -3.05
iter:  23 23:14:37  -130.653548c  -4.49  -3.07
iter:  24 23:14:42  -130.653053c  -5.15  -3.07
iter:  25 23:14:46  -130.653082c  -5.53c -3.34
iter:  26 23:14:51  -130.653172c  -5.27  -3.45
iter:  27 23:14:55  -130.652968c  -5.51c -3.50
iter:  28 23:15:00  -130.652986c  -5.90c -3.66
iter:  29 23:15:05  -130.653102c  -5.61c -3.72
iter:  30 23:15:10  -130.653042c  -5.80c -3.70
iter:  31 23:15:14  -130.652874c  -5.51c -3.76
iter:  32 23:15:19  -130.652896c  -5.66c -3.93
iter:  33 23:15:24  -130.652898c  -5.57c -4.12c

Converged after 33 iterations.

Dipole moment: (-0.643070, -0.643070, 0.247879) |e|*Ang

Energy contributions relative to reference atoms: (reference = -14803.510878)

Kinetic:       +103.305444
Potential:      -92.249627
External:        +0.000000
XC:            -140.598267
Entropy (-ST):   -1.231237
Local:           -0.494829
SIC:             +0.000000
--------------------------
Free energy:   -131.268517
Extrapolated:  -130.652898

Showing all kpts
 Kpt  Band  Eigenvalues  Occupancy
  0    34     -1.58127    1.55614
  0    35     -1.57664    1.53997
  0    36     -1.42039    0.82467
  0    37     -1.35907    0.55078

  1    34     -1.58127    1.55614
  1    35     -1.57664    1.53997
  1    36     -1.42039    0.82467
  1    37     -1.35907    0.55078


Fermi level: -1.45582

Gap: 0.156 eV
Transition (v -> c):
  (s=0, k=0, n=35, [0.25, -0.25, 0.00]) -> (s=0, k=1, n=36, [0.25, 0.25, 0.00])
Direct/indirect transitions are different
Direct gap: 0.156 eV
Transition at: (s=0, k=1, n=35, [0.25, 0.25, 0.00])

Forces in eV/Ang:
  0 Li    0.00047    0.00047   -0.03208
  1 Li   -0.00000   -0.00000    0.06823
  2 Li    0.00065    0.00065    0.00744
  3 Li    0.00000    0.00000    0.01318
  4 Li   -0.00049   -0.00049   -0.00525
  5 Li    0.00000    0.00000   -0.04754
  6 Li    0.00868    0.00868   -0.00258
  7 Li    0.00000    0.00000   -1.99223
  8 Li    0.00047   -0.00047   -0.03208
  9 Li    0.00000    0.00078    0.05976
 10 Li    0.00065   -0.00065    0.00744
 11 Li    0.00000   -0.00160    0.00433
 12 Li   -0.00049    0.00049   -0.00525
 13 Li    0.00000    0.00233   -0.00627
 14 Li    0.00868   -0.00868   -0.00257
 15 Li   -0.00000   -0.11317    0.11702
 16 Li    0.00326   -0.00000   -0.02884
 17 Li    0.00000   -0.00078    0.05976
 18 Li    0.00398    0.00000    0.01904
 19 Li    0.00000    0.00160    0.00433
 20 Li    0.00357   -0.00000   -0.00316
 21 Li    0.00000   -0.00233   -0.00627
 22 Li    0.00294    0.00000   -0.08173
 23 Li   -0.00000    0.11317    0.11702
 24 Li   -0.00047    0.00047   -0.03208
 25 Li    0.00078    0.00000    0.05976
 26 Li   -0.00065    0.00065    0.00744
 27 Li   -0.00160    0.00000    0.00433
 28 Li    0.00049   -0.00049   -0.00525
 29 Li    0.00233    0.00000   -0.00627
 30 Li   -0.00868    0.00868   -0.00257
 31 Li   -0.11317   -0.00000    0.11702
 32 Li   -0.00047   -0.00047   -0.03208
 33 Li   -0.00116   -0.00116    0.05801
 34 Li   -0.00065   -0.00065    0.00744
 35 Li    0.00123    0.00123   -0.00276
 36 Li    0.00049    0.00049   -0.00525
 37 Li   -0.00082   -0.00082   -0.01111
 38 Li   -0.00868   -0.00868   -0.00257
 39 Li   -0.01223   -0.01223    0.05093
 40 Li   -0.00326    0.00000   -0.02884
 41 Li   -0.00116    0.00116    0.05800
 42 Li   -0.00398    0.00000    0.01904
 43 Li    0.00123   -0.00123   -0.00276
 44 Li   -0.00357    0.00000   -0.00316
 45 Li   -0.00082    0.00082   -0.01111
 46 Li   -0.00294    0.00000   -0.08173
 47 Li   -0.01223    0.01223    0.05093
 48 Li   -0.00000    0.00326   -0.02884
 49 Li   -0.00078    0.00000    0.05976
 50 Li    0.00000    0.00398    0.01904
 51 Li    0.00160    0.00000    0.00433
 52 Li   -0.00000    0.00357   -0.00316
 53 Li   -0.00233    0.00000   -0.00627
 54 Li    0.00000    0.00294   -0.08173
 55 Li    0.11317   -0.00000    0.11702
 56 Li    0.00000   -0.00326   -0.02884
 57 Li    0.00116   -0.00116    0.05800
 58 Li    0.00000   -0.00398    0.01904
 59 Li   -0.00123    0.00123   -0.00276
 60 Li    0.00000   -0.00357   -0.00316
 61 Li    0.00082   -0.00082   -0.01111
 62 Li    0.00000   -0.00294   -0.08173
 63 Li    0.01223   -0.01223    0.05093
 64 Li   -0.00000   -0.00000   -0.03080
 65 Li    0.00116    0.00116    0.05800
 66 Li   -0.00000   -0.00000    0.01807
 67 Li   -0.00123   -0.00123   -0.00276
 68 Li    0.00000    0.00000   -0.00446
 69 Li    0.00082    0.00082   -0.01111
 70 Li    0.00000    0.00000   -0.04703
 71 Li    0.01223    0.01223    0.05093
 72 Li   -0.00000   -0.00000    1.45006

System changes: positions 

Initializing position-dependent things.

Density initialized from wave functions
       .-------------------------.  
      /|                         |  
     / |                         |  
    /  |                         |  
   /   |                         |  
  /    |                         |  
 *     |                         |  
 |     |                         |  
 |     |                         |  
 |     |                         |  
 |     |                         |  
 |     |                         |  
 |     |                         |  
 |     |  Li       Li       Li   |  
 |     |                         |  
 |    LiLi       Li       Li     |  
 |     |                         |  
 |   LLi      LLi     LiLi       |  
 |     |  Li       Li       Li   |  
 | Li  |    Li  Li  Li           Li 
 |     |Li       Li       Li     |  
 Li  Li|  Li  Li  Li  Li         |  
 |    Li  Li   Li  Li   Li  Li   |  
 |     |    Li      Li       Li  |  
 |     |Li       Li       Li     |  
 |   Li|      Li  Li  Li         |  
 |    Li  Li   Li  Li   Li  Li   |  
 | Li  |    Li      Li           |  
 |     |Li       Li       Li     |  
 Li    |  Li      Li             |  
 |   LLi      LLi     LiLi       |  
 |     |                         |  
 | Li  |    Li      Li           |  
 |     |                         |  
 Li    |  Li      Li             |  
 |     |                         |  
 |     |                         |  
 |     |                         |  
 |     |                         |  
 |     |                         |  
 |     .-------------------------.  
 |    /                         /   
 |   /                         /    
 |  /                         /     
 | /                         /      
 |/                         /       
 *-------------------------*        

Atomic positions and initial magnetic moments

Positions:
   0 Li     0.000000    0.000000   10.000000    ( 0.0000,  0.0000,  0.0000)
   1 Li     1.745000    1.745000   11.745000    ( 0.0000,  0.0000,  0.0000)
   2 Li     0.000000    0.000000   13.490000    ( 0.0000,  0.0000,  0.0000)
   3 Li     1.745000    1.745000   15.235000    ( 0.0000,  0.0000,  0.0000)
   4 Li    -0.000007   -0.000007   16.979925    ( 0.0000,  0.0000,  0.0000)
   5 Li     1.745000    1.745000   18.724321    ( 0.0000,  0.0000,  0.0000)
   6 Li     0.000124    0.000124   20.469963    ( 0.0000,  0.0000,  0.0000)
   7 Li     1.745000    1.745000   22.186540    ( 0.0000,  0.0000,  0.0000)
   8 Li     0.000000    3.490000   10.000000    ( 0.0000,  0.0000,  0.0000)
   9 Li     1.745000    5.235000   11.745000    ( 0.0000,  0.0000,  0.0000)
  10 Li     0.000000    3.490000   13.490000    ( 0.0000,  0.0000,  0.0000)
  11 Li     1.745000    5.235000   15.235000    ( 0.0000,  0.0000,  0.0000)
  12 Li    -0.000007    3.490007   16.979925    ( 0.0000,  0.0000,  0.0000)
  13 Li     1.745000    5.235033   18.724910    ( 0.0000,  0.0000,  0.0000)
  14 Li     0.000124    3.489876   20.469963    ( 0.0000,  0.0000,  0.0000)
  15 Li     1.745000    5.233383   22.216672    ( 0.0000,  0.0000,  0.0000)
  16 Li     0.000000    6.980000   10.000000    ( 0.0000,  0.0000,  0.0000)
  17 Li     1.745000    8.725000   11.745000    ( 0.0000,  0.0000,  0.0000)
  18 Li     0.000000    6.980000   13.490000    ( 0.0000,  0.0000,  0.0000)
  19 Li     1.745000    8.725000   15.235000    ( 0.0000,  0.0000,  0.0000)
  20 Li     0.000051    6.980000   16.979955    ( 0.0000,  0.0000,  0.0000)
  21 Li     1.745000    8.724967   18.724910    ( 0.0000,  0.0000,  0.0000)
  22 Li     0.000042    6.980000   20.468832    ( 0.0000,  0.0000,  0.0000)
  23 Li     1.745000    8.726617   22.216672    ( 0.0000,  0.0000,  0.0000)
  24 Li     3.490000    0.000000   10.000000    ( 0.0000,  0.0000,  0.0000)
  25 Li     5.235000    1.745000   11.745000    ( 0.0000,  0.0000,  0.0000)
  26 Li     3.490000    0.000000   13.490000    ( 0.0000,  0.0000,  0.0000)
  27 Li     5.235000    1.745000   15.235000    ( 0.0000,  0.0000,  0.0000)
  28 Li     3.490007   -0.000007   16.979925    ( 0.0000,  0.0000,  0.0000)
  29 Li     5.235033    1.745000   18.724910    ( 0.0000,  0.0000,  0.0000)
  30 Li     3.489876    0.000124   20.469963    ( 0.0000,  0.0000,  0.0000)
  31 Li     5.233383    1.745000   22.216672    ( 0.0000,  0.0000,  0.0000)
  32 Li     3.490000    3.490000   10.000000    ( 0.0000,  0.0000,  0.0000)
  33 Li     5.235000    5.235000   11.745000    ( 0.0000,  0.0000,  0.0000)
  34 Li     3.490000    3.490000   13.490000    ( 0.0000,  0.0000,  0.0000)
  35 Li     5.235000    5.235000   15.235000    ( 0.0000,  0.0000,  0.0000)
  36 Li     3.490007    3.490007   16.979925    ( 0.0000,  0.0000,  0.0000)
  37 Li     5.234988    5.234988   18.724841    ( 0.0000,  0.0000,  0.0000)
  38 Li     3.489876    3.489876   20.469963    ( 0.0000,  0.0000,  0.0000)
  39 Li     5.234825    5.234825   22.215728    ( 0.0000,  0.0000,  0.0000)
  40 Li     3.490000    6.980000   10.000000    ( 0.0000,  0.0000,  0.0000)
  41 Li     5.235000    8.725000   11.745000    ( 0.0000,  0.0000,  0.0000)
  42 Li     3.490000    6.980000   13.490000    ( 0.0000,  0.0000,  0.0000)
  43 Li     5.235000    8.725000   15.235000    ( 0.0000,  0.0000,  0.0000)
  44 Li     3.489949    6.980000   16.979955    ( 0.0000,  0.0000,  0.0000)
  45 Li     5.234988    8.725012   18.724841    ( 0.0000,  0.0000,  0.0000)
  46 Li     3.489958    6.980000   20.468832    ( 0.0000,  0.0000,  0.0000)
  47 Li     5.234825    8.725175   22.215728    ( 0.0000,  0.0000,  0.0000)
  48 Li     6.980000    0.000000   10.000000    ( 0.0000,  0.0000,  0.0000)
  49 Li     8.725000    1.745000   11.745000    ( 0.0000,  0.0000,  0.0000)
  50 Li     6.980000    0.000000   13.490000    ( 0.0000,  0.0000,  0.0000)
  51 Li     8.725000    1.745000   15.235000    ( 0.0000,  0.0000,  0.0000)
  52 Li     6.980000    0.000051   16.979955    ( 0.0000,  0.0000,  0.0000)
  53 Li     8.724967    1.745000   18.724910    ( 0.0000,  0.0000,  0.0000)
  54 Li     6.980000    0.000042   20.468832    ( 0.0000,  0.0000,  0.0000)
  55 Li     8.726617    1.745000   22.216672    ( 0.0000,  0.0000,  0.0000)
  56 Li     6.980000    3.490000   10.000000    ( 0.0000,  0.0000,  0.0000)
  57 Li     8.725000    5.235000   11.745000    ( 0.0000,  0.0000,  0.0000)
  58 Li     6.980000    3.490000   13.490000    ( 0.0000,  0.0000,  0.0000)
  59 Li     8.725000    5.235000   15.235000    ( 0.0000,  0.0000,  0.0000)
  60 Li     6.980000    3.489949   16.979955    ( 0.0000,  0.0000,  0.0000)
  61 Li     8.725012    5.234988   18.724841    ( 0.0000,  0.0000,  0.0000)
  62 Li     6.980000    3.489958   20.468832    ( 0.0000,  0.0000,  0.0000)
  63 Li     8.725175    5.234825   22.215728    ( 0.0000,  0.0000,  0.0000)
  64 Li     6.980000    6.980000   10.000000    ( 0.0000,  0.0000,  0.0000)
  65 Li     8.725000    8.725000   11.745000    ( 0.0000,  0.0000,  0.0000)
  66 Li     6.980000    6.980000   13.490000    ( 0.0000,  0.0000,  0.0000)
  67 Li     8.725000    8.725000   15.235000    ( 0.0000,  0.0000,  0.0000)
  68 Li     6.980000    6.980000   16.979936    ( 0.0000,  0.0000,  0.0000)
  69 Li     8.725012    8.725012   18.724841    ( 0.0000,  0.0000,  0.0000)
  70 Li     6.980000    6.980000   20.469328    ( 0.0000,  0.0000,  0.0000)
  71 Li     8.725175    8.725175   22.215728    ( 0.0000,  0.0000,  0.0000)
  72 Li     1.745000    1.745000   24.235715    ( 0.0000,  0.0000,  0.0000)

Unit cell:
           periodic     x           y           z      points  spacing
  1. axis:    yes   10.470000    0.000000    0.000000    35     0.2991
  2. axis:    yes    0.000000   10.470000    0.000000    35     0.2991
  3. axis:    no     0.000000    0.000000   32.215000   108     0.2983

  Lengths:  10.470000  10.470000  32.215000
  Angles:   90.000000  90.000000  90.000000

Effective grid spacing dv^(1/3) = 0.2989

     iter     time        total  log10-change:
                         energy   eigst   dens
iter:   1 23:15:34  -130.754090   -3.23
iter:   2 23:15:39  -130.765547   -3.11  -1.90
iter:   3 23:15:45  -130.739378c  -3.81  -1.77
iter:   4 23:15:50  -130.738061c  -4.81  -2.41
iter:   5 23:15:55  -130.736522c  -4.67  -2.74
iter:   6 23:16:00  -130.736583c  -5.06  -2.90
iter:   7 23:16:05  -130.736737c  -5.11  -3.02
iter:   8 23:16:10  -130.736210c  -5.05  -3.06
iter:   9 23:16:16  -130.736248c  -5.90c -3.43
iter:  10 23:16:22  -130.736439c  -5.19  -3.46
iter:  11 23:16:27  -130.736219c  -5.10  -3.43
iter:  12 23:16:32  -130.736139c  -5.59c -3.71
iter:  13 23:16:36  -130.736183c  -5.15  -3.80
iter:  14 23:16:41  -130.735977c  -5.06  -3.71
iter:  15 23:16:46  -130.735886c  -5.58c -4.00c

Converged after 15 iterations.

Dipole moment: (-0.653287, -0.653287, 0.264695) |e|*Ang

Energy contributions relative to reference atoms: (reference = -14803.510878)

Kinetic:       +103.186856
Potential:      -92.250140
External:        +0.000000
XC:            -140.568710
Entropy (-ST):   -1.234256
Local:           -0.486764
SIC:             +0.000000
--------------------------
Free energy:   -131.353014
Extrapolated:  -130.735886

Showing all kpts
 Kpt  Band  Eigenvalues  Occupancy
  0    34     -1.57752    1.55429
  0    35     -1.57291    1.53814
  0    36     -1.41697    0.82367
  0    37     -1.35816    0.56000

  1    34     -1.57752    1.55429
  1    35     -1.57291    1.53814
  1    36     -1.41697    0.82367
  1    37     -1.35816    0.56000


Fermi level: -1.45261

Gap: 0.156 eV
Transition (v -> c):
  (s=0, k=1, n=35, [0.25, 0.25, 0.00]) -> (s=0, k=1, n=36, [0.25, 0.25, 0.00])
No difference between direct/indirect transitions

Forces in eV/Ang:
  0 Li    0.00052    0.00052   -0.03187
  1 Li   -0.00000   -0.00000    0.06783
  2 Li    0.00059    0.00059    0.00743
  3 Li   -0.00000   -0.00000    0.01401
  4 Li   -0.00070   -0.00070   -0.00663
  5 Li    0.00000    0.00000   -0.04663
  6 Li    0.00365    0.00365   -0.00959
  7 Li    0.00000    0.00000   -1.78108
  8 Li    0.00052   -0.00052   -0.03186
  9 Li    0.00000    0.00076    0.05947
 10 Li    0.00059   -0.00059    0.00743
 11 Li    0.00000   -0.00159    0.00478
 12 Li   -0.00070    0.00070   -0.00664
 13 Li    0.00000    0.00125   -0.00600
 14 Li    0.00365   -0.00365   -0.00959
 15 Li   -0.00000   -0.10937    0.11388
 16 Li    0.00347    0.00000   -0.02874
 17 Li   -0.00000   -0.00076    0.05947
 18 Li    0.00384    0.00000    0.01996
 19 Li    0.00000    0.00160    0.00478
 20 Li    0.00377    0.00000   -0.00286
 21 Li   -0.00000   -0.00125   -0.00600
 22 Li    0.00348    0.00000   -0.07783
 23 Li   -0.00000    0.10937    0.11388
 24 Li   -0.00052    0.00052   -0.03186
 25 Li    0.00076    0.00000    0.05947
 26 Li   -0.00059    0.00059    0.00743
 27 Li   -0.00159    0.00000    0.00478
 28 Li    0.00070   -0.00070   -0.00664
 29 Li    0.00125    0.00000   -0.00600
 30 Li   -0.00365    0.00365   -0.00959
 31 Li   -0.10937   -0.00000    0.11388
 32 Li   -0.00052   -0.00052   -0.03186
 33 Li   -0.00126   -0.00126    0.05788
 34 Li   -0.00059   -0.00059    0.00743
 35 Li    0.00119    0.00119   -0.00252
 36 Li    0.00070    0.00070   -0.00663
 37 Li   -0.00046   -0.00046   -0.01200
 38 Li   -0.00365   -0.00365   -0.00959
 39 Li   -0.01138   -0.01138    0.04924
 40 Li   -0.00347    0.00000   -0.02874
 41 Li   -0.00126    0.00126    0.05788
 42 Li   -0.00384   -0.00000    0.01995
 43 Li    0.00119   -0.00119   -0.00252
 44 Li   -0.00377    0.00000   -0.00286
 45 Li   -0.00046    0.00046   -0.01200
 46 Li   -0.00348    0.00000   -0.07783
 47 Li   -0.01138    0.01138    0.04924
 48 Li    0.00000    0.00347   -0.02874
 49 Li   -0.00076   -0.00000    0.05947
 50 Li    0.00000    0.00384    0.01996
 51 Li    0.00160    0.00000    0.00478
 52 Li    0.00000    0.00377   -0.00286
 53 Li   -0.00125   -0.00000   -0.00600
 54 Li    0.00000    0.00348   -0.07783
 55 Li    0.10937   -0.00000    0.11388
 56 Li    0.00000   -0.00347   -0.02874
 57 Li    0.00126   -0.00126    0.05788
 58 Li   -0.00000   -0.00384    0.01995
 59 Li   -0.00119    0.00119   -0.00252
 60 Li    0.00000   -0.00377   -0.00286
 61 Li    0.00046   -0.00046   -0.01200
 62 Li    0.00000   -0.00348   -0.07783
 63 Li    0.01138   -0.01138    0.04924
 64 Li   -0.00000   -0.00000   -0.03111
 65 Li    0.00126    0.00126    0.05788
 66 Li    0.00000    0.00000    0.01895
 67 Li   -0.00119   -0.00119   -0.00251
 68 Li    0.00000    0.00000   -0.00483
 69 Li    0.00046    0.00046   -0.01201
 70 Li   -0.00000   -0.00000   -0.04596
 71 Li    0.01138    0.01138    0.04924
 72 Li   -0.00000   -0.00000    1.27069

System changes: positions 

Initializing position-dependent things.

Density initialized from wave functions
       .-------------------------.  
      /|                         |  
     / |                         |  
    /  |                         |  
   /   |                         |  
  /    |                         |  
 *     |                         |  
 |     |                         |  
 |     |                         |  
 |     |                         |  
 |     |                         |  
 |     |                         |  
 |     |                         |  
 |     |  Li       Li       Li   |  
 |     |                         |  
 |    LiLi       Li       Li     |  
 |     |                         |  
 |   Li|      LLi     LiLi       |  
 |    Li  Li       Li       Li   |  
 | Li  |    Li  Li  Li           Li 
 |     |Li       Li       Li     |  
 Li  Li|  Li  Li  Li  Li         |  
 |    Li  Li   Li  Li   Li  Li   |  
 |     |    Li      Li       Li  |  
 |     |Li       Li       Li     |  
 |   Li|      Li  Li  Li         |  
 |    Li  Li   Li  Li   Li  Li   |  
 | Li  |    Li      Li           |  
 |     |Li       Li       Li     |  
 Li    |  Li      Li             |  
 |   LLi      LLi     LiLi       |  
 |     |                         |  
 | Li  |    Li      Li           |  
 |     |                         |  
 Li    |  Li      Li             |  
 |     |                         |  
 |     |                         |  
 |     |                         |  
 |     |                         |  
 |     |                         |  
 |     .-------------------------.  
 |    /                         /   
 |   /                         /    
 |  /                         /     
 | /                         /      
 |/                         /       
 *-------------------------*        

Atomic positions and initial magnetic moments

Positions:
   0 Li     0.000000    0.000000   10.000000    ( 0.0000,  0.0000,  0.0000)
   1 Li     1.745000    1.745000   11.745000    ( 0.0000,  0.0000,  0.0000)
   2 Li     0.000000    0.000000   13.490000    ( 0.0000,  0.0000,  0.0000)
   3 Li     1.745000    1.745000   15.235000    ( 0.0000,  0.0000,  0.0000)
   4 Li    -0.000086   -0.000086   16.979181    ( 0.0000,  0.0000,  0.0000)
   5 Li     1.745000    1.745000   18.719086    ( 0.0000,  0.0000,  0.0000)
   6 Li     0.000535    0.000535   20.468888    ( 0.0000,  0.0000,  0.0000)
   7 Li     1.745000    1.745000   21.986540    ( 0.0000,  0.0000,  0.0000)
   8 Li     0.000000    3.490000   10.000000    ( 0.0000,  0.0000,  0.0000)
   9 Li     1.745000    5.235000   11.745000    ( 0.0000,  0.0000,  0.0000)
  10 Li     0.000000    3.490000   13.490000    ( 0.0000,  0.0000,  0.0000)
  11 Li     1.745000    5.235000   15.235000    ( 0.0000,  0.0000,  0.0000)
  12 Li    -0.000086    3.490086   16.979181    ( 0.0000,  0.0000,  0.0000)
  13 Li     1.745000    5.235173   18.724237    ( 0.0000,  0.0000,  0.0000)
  14 Li     0.000535    3.489464   20.468888    ( 0.0000,  0.0000,  0.0000)
  15 Li     1.745000    5.221105   22.229456    ( 0.0000,  0.0000,  0.0000)
  16 Li     0.000000    6.980000   10.000000    ( 0.0000,  0.0000,  0.0000)
  17 Li     1.745000    8.725000   11.745000    ( 0.0000,  0.0000,  0.0000)
  18 Li     0.000000    6.980000   13.490000    ( 0.0000,  0.0000,  0.0000)
  19 Li     1.745000    8.725000   15.235000    ( 0.0000,  0.0000,  0.0000)
  20 Li     0.000474    6.980000   16.979634    ( 0.0000,  0.0000,  0.0000)
  21 Li     1.745000    8.724826   18.724237    ( 0.0000,  0.0000,  0.0000)
  22 Li     0.000432    6.980000   20.460094    ( 0.0000,  0.0000,  0.0000)
  23 Li     1.745000    8.738895   22.229457    ( 0.0000,  0.0000,  0.0000)
  24 Li     3.490000    0.000000   10.000000    ( 0.0000,  0.0000,  0.0000)
  25 Li     5.235000    1.745000   11.745000    ( 0.0000,  0.0000,  0.0000)
  26 Li     3.490000    0.000000   13.490000    ( 0.0000,  0.0000,  0.0000)
  27 Li     5.235000    1.745000   15.235000    ( 0.0000,  0.0000,  0.0000)
  28 Li     3.490086   -0.000086   16.979181    ( 0.0000,  0.0000,  0.0000)
  29 Li     5.235173    1.745000   18.724237    ( 0.0000,  0.0000,  0.0000)
  30 Li     3.489464    0.000535   20.468888    ( 0.0000,  0.0000,  0.0000)
  31 Li     5.221105    1.745000   22.229456    ( 0.0000,  0.0000,  0.0000)
  32 Li     3.490000    3.490000   10.000000    ( 0.0000,  0.0000,  0.0000)
  33 Li     5.235000    5.235000   11.745000    ( 0.0000,  0.0000,  0.0000)
  34 Li     3.490000    3.490000   13.490000    ( 0.0000,  0.0000,  0.0000)
  35 Li     5.235000    5.235000   15.235000    ( 0.0000,  0.0000,  0.0000)
  36 Li     3.490086    3.490086   16.979181    ( 0.0000,  0.0000,  0.0000)
  37 Li     5.234936    5.234936   18.723495    ( 0.0000,  0.0000,  0.0000)
  38 Li     3.489465    3.489465   20.468889    ( 0.0000,  0.0000,  0.0000)
  39 Li     5.233548    5.233548   22.221256    ( 0.0000,  0.0000,  0.0000)
  40 Li     3.490000    6.980000   10.000000    ( 0.0000,  0.0000,  0.0000)
  41 Li     5.235000    8.725000   11.745000    ( 0.0000,  0.0000,  0.0000)
  42 Li     3.490000    6.980000   13.490000    ( 0.0000,  0.0000,  0.0000)
  43 Li     5.235000    8.725000   15.235000    ( 0.0000,  0.0000,  0.0000)
  44 Li     3.489526    6.980000   16.979634    ( 0.0000,  0.0000,  0.0000)
  45 Li     5.234936    8.725064   18.723494    ( 0.0000,  0.0000,  0.0000)
  46 Li     3.489568    6.980000   20.460094    ( 0.0000,  0.0000,  0.0000)
  47 Li     5.233548    8.726452   22.221256    ( 0.0000,  0.0000,  0.0000)
  48 Li     6.980000    0.000000   10.000000    ( 0.0000,  0.0000,  0.0000)
  49 Li     8.725000    1.745000   11.745000    ( 0.0000,  0.0000,  0.0000)
  50 Li     6.980000    0.000000   13.490000    ( 0.0000,  0.0000,  0.0000)
  51 Li     8.725000    1.745000   15.235000    ( 0.0000,  0.0000,  0.0000)
  52 Li     6.980000    0.000474   16.979634    ( 0.0000,  0.0000,  0.0000)
  53 Li     8.724826    1.745000   18.724237    ( 0.0000,  0.0000,  0.0000)
  54 Li     6.980000    0.000432   20.460094    ( 0.0000,  0.0000,  0.0000)
  55 Li     8.738895    1.745000   22.229457    ( 0.0000,  0.0000,  0.0000)
  56 Li     6.980000    3.490000   10.000000    ( 0.0000,  0.0000,  0.0000)
  57 Li     8.725000    5.235000   11.745000    ( 0.0000,  0.0000,  0.0000)
  58 Li     6.980000    3.490000   13.490000    ( 0.0000,  0.0000,  0.0000)
  59 Li     8.725000    5.235000   15.235000    ( 0.0000,  0.0000,  0.0000)
  60 Li     6.980000    3.489526   16.979634    ( 0.0000,  0.0000,  0.0000)
  61 Li     8.725064    5.234936   18.723494    ( 0.0000,  0.0000,  0.0000)
  62 Li     6.980000    3.489568   20.460094    ( 0.0000,  0.0000,  0.0000)
  63 Li     8.726452    5.233548   22.221256    ( 0.0000,  0.0000,  0.0000)
  64 Li     6.980000    6.980000   10.000000    ( 0.0000,  0.0000,  0.0000)
  65 Li     8.725000    8.725000   11.745000    ( 0.0000,  0.0000,  0.0000)
  66 Li     6.980000    6.980000   13.490000    ( 0.0000,  0.0000,  0.0000)
  67 Li     8.725000    8.725000   15.235000    ( 0.0000,  0.0000,  0.0000)
  68 Li     6.980000    6.980000   16.979394    ( 0.0000,  0.0000,  0.0000)
  69 Li     8.725064    8.725064   18.723494    ( 0.0000,  0.0000,  0.0000)
  70 Li     6.980000    6.980000   20.464169    ( 0.0000,  0.0000,  0.0000)
  71 Li     8.726452    8.726452   22.221256    ( 0.0000,  0.0000,  0.0000)
  72 Li     1.745000    1.745000   24.378411    ( 0.0000,  0.0000,  0.0000)

Unit cell:
           periodic     x           y           z      points  spacing
  1. axis:    yes   10.470000    0.000000    0.000000    35     0.2991
  2. axis:    yes    0.000000   10.470000    0.000000    35     0.2991
  3. axis:    no     0.000000    0.000000   32.215000   108     0.2983

  Lengths:  10.470000  10.470000  32.215000
  Angles:   90.000000  90.000000  90.000000

Effective grid spacing dv^(1/3) = 0.2989

     iter     time        total  log10-change:
                         energy   eigst   dens
iter:   1 23:16:55  -132.667825   -1.36
iter:   2 23:16:59  -133.961195   -1.09  -0.93
iter:   3 23:17:03  -131.154721   -2.10  -0.79
iter:   4 23:17:08  -131.122096   -2.63  -1.55
iter:   5 23:17:12  -131.089860   -2.81  -1.78
iter:   6 23:17:16  -131.096471c  -3.29  -2.08
iter:   7 23:17:20  -131.092846c  -4.05  -2.02
iter:   8 23:17:24  -131.088036c  -4.30  -2.16
iter:   9 23:17:28  -131.087617c  -4.53  -2.51
iter:  10 23:17:32  -131.088360c  -4.79  -2.65
iter:  11 23:17:35  -131.088173c  -5.15  -2.71
iter:  12 23:17:39  -131.088182c  -5.13  -2.84
iter:  13 23:17:43  -131.088208c  -5.44c -2.91
iter:  14 23:17:47  -131.088188c  -5.44c -2.98
iter:  15 23:17:51  -131.087905c  -5.58c -3.14
iter:  16 23:17:55  -131.087913c  -5.91c -3.33
iter:  17 23:17:59  -131.087881c  -5.98c -3.45
iter:  18 23:18:02  -131.087873c  -5.91c -3.55
iter:  19 23:18:06  -131.087898c  -6.13c -3.65
iter:  20 23:18:10  -131.087946c  -6.27c -3.80
iter:  21 23:18:15  -131.087936c  -6.24c -3.94
iter:  22 23:18:19  -131.087929c  -6.14c -4.02c

Converged after 22 iterations.

Dipole moment: (-0.699205, -0.699205, 0.357904) |e|*Ang

Energy contributions relative to reference atoms: (reference = -14803.510878)

Kinetic:       +102.269608
Potential:      -91.910645
External:        +0.000000
XC:            -140.342098
Entropy (-ST):   -1.236107
Local:           -0.486741
SIC:             +0.000000
--------------------------
Free energy:   -131.705983
Extrapolated:  -131.087929

Showing all kpts
 Kpt  Band  Eigenvalues  Occupancy
  0    34     -1.55957    1.54968
  0    35     -1.55535    1.53480
  0    36     -1.39995    0.82176
  0    37     -1.35324    0.60836

  1    34     -1.55957    1.54968
  1    35     -1.55535    1.53480
  1    36     -1.39995    0.82176
  1    37     -1.35324    0.60836


Fermi level: -1.43598

Gap: 0.155 eV
Transition (v -> c):
  (s=0, k=1, n=35, [0.25, 0.25, 0.00]) -> (s=0, k=1, n=36, [0.25, 0.25, 0.00])
No difference between direct/indirect transitions

Forces in eV/Ang:
  0 Li    0.00007    0.00007   -0.03227
  1 Li    0.00000    0.00000    0.06762
  2 Li    0.00035    0.00035    0.00595
  3 Li    0.00000    0.00000    0.01515
  4 Li   -0.00216   -0.00216   -0.01234
  5 Li    0.00000    0.00000   -0.04884
  6 Li   -0.03303   -0.03303   -0.05537
  7 Li    0.00000    0.00000   -0.61591
  8 Li    0.00006   -0.00007   -0.03227
  9 Li    0.00000    0.00135    0.05842
 10 Li    0.00035   -0.00034    0.00595
 11 Li   -0.00000   -0.00131    0.00594
 12 Li   -0.00215    0.00216   -0.01234
 13 Li   -0.00000   -0.00690   -0.00241
 14 Li   -0.03303    0.03303   -0.05537
 15 Li   -0.00000   -0.08697    0.09193
 16 Li    0.00338   -0.00000   -0.02857
 17 Li    0.00000   -0.00135    0.05842
 18 Li    0.00349   -0.00000    0.02063
 19 Li   -0.00000    0.00131    0.00594
 20 Li    0.00502    0.00000    0.00025
 21 Li   -0.00000    0.00690   -0.00241
 22 Li    0.00759   -0.00000   -0.05148
 23 Li   -0.00000    0.08697    0.09193
 24 Li   -0.00007    0.00006   -0.03227
 25 Li    0.00135    0.00000    0.05842
 26 Li   -0.00034    0.00035    0.00595
 27 Li   -0.00131   -0.00000    0.00594
 28 Li    0.00216   -0.00215   -0.01234
 29 Li   -0.00690   -0.00000   -0.00241
 30 Li    0.03303   -0.03303   -0.05537
 31 Li   -0.08697   -0.00000    0.09193
 32 Li   -0.00006   -0.00006   -0.03227
 33 Li   -0.00087   -0.00087    0.05716
 34 Li   -0.00035   -0.00035    0.00594
 35 Li    0.00108    0.00108   -0.00228
 36 Li    0.00215    0.00215   -0.01233
 37 Li    0.00140    0.00140   -0.01584
 38 Li    0.03303    0.03303   -0.05537
 39 Li   -0.00548   -0.00548    0.03900
 40 Li   -0.00338    0.00000   -0.02858
 41 Li   -0.00087    0.00087    0.05716
 42 Li   -0.00350   -0.00000    0.02063
 43 Li    0.00108   -0.00108   -0.00227
 44 Li   -0.00502    0.00000    0.00025
 45 Li    0.00140   -0.00140   -0.01585
 46 Li   -0.00760   -0.00000   -0.05148
 47 Li   -0.00548    0.00547    0.03901
 48 Li   -0.00000    0.00338   -0.02857
 49 Li   -0.00135    0.00000    0.05842
 50 Li   -0.00000    0.00349    0.02063
 51 Li    0.00131   -0.00000    0.00594
 52 Li    0.00000    0.00502    0.00025
 53 Li    0.00690   -0.00000   -0.00241
 54 Li   -0.00000    0.00759   -0.05148
 55 Li    0.08697   -0.00000    0.09193
 56 Li    0.00000   -0.00338   -0.02858
 57 Li    0.00087   -0.00087    0.05716
 58 Li   -0.00000   -0.00350    0.02063
 59 Li   -0.00108    0.00108   -0.00227
 60 Li    0.00000   -0.00502    0.00025
 61 Li   -0.00140    0.00140   -0.01585
 62 Li   -0.00000   -0.00760   -0.05148
 63 Li    0.00547   -0.00548    0.03901
 64 Li   -0.00000   -0.00000   -0.03158
 65 Li    0.00087    0.00087    0.05716
 66 Li    0.00000    0.00000    0.01711
 67 Li   -0.00108   -0.00108   -0.00227
 68 Li    0.00000    0.00000   -0.00353
 69 Li   -0.00140   -0.00140   -0.01585
 70 Li    0.00000    0.00000   -0.03730
 71 Li    0.00547    0.00547    0.03901
 72 Li   -0.00000   -0.00000    0.32196

System changes: positions 

Initializing position-dependent things.

Density initialized from wave functions
       .-------------------------.  
      /|                         |  
     / |                         |  
    /  |                         |  
   /   |                         |  
  /    |                         |  
 *     |                         |  
 |     |                         |  
 |     |                         |  
 |     |                         |  
 |     |                         |  
 |     |                         |  
 |     |                         |  
 |     |  Li       Li       Li   |  
 |     |                         |  
 |    LiLi       Li       Li     |  
 |     |                         |  
 |   Li|      LLi     LiLi       |  
 |    Li  Li       Li       Li   |  
 | Li  |    Li  Li  Li           Li 
 |     |Li       Li       Li     |  
 Li  Li|  Li  Li  Li  Li         |  
 |    Li  Li   Li  Li   Li  Li   |  
 |     |    Li      Li       Li  |  
 |     |Li       Li       Li     |  
 |   Li|      Li  Li  Li         |  
 |    Li  Li   Li  Li   Li  Li   |  
 | Li  |    Li      Li           |  
 |     |Li       Li       Li     |  
 Li    |  Li      Li             |  
 |   LLi      LLi     LiLi       |  
 |     |                         |  
 | Li  |    Li      Li           |  
 |     |                         |  
 Li    |  Li      Li             |  
 |     |                         |  
 |     |                         |  
 |     |                         |  
 |     |                         |  
 |     |                         |  
 |     .-------------------------.  
 |    /                         /   
 |   /                         /    
 |  /                         /     
 | /                         /      
 |/                         /       
 *-------------------------*        

Atomic positions and initial magnetic moments

Positions:
   0 Li     0.000000    0.000000   10.000000    ( 0.0000,  0.0000,  0.0000)
   1 Li     1.745000    1.745000   11.745000    ( 0.0000,  0.0000,  0.0000)
   2 Li     0.000000    0.000000   13.490000    ( 0.0000,  0.0000,  0.0000)
   3 Li     1.745000    1.745000   15.235000    ( 0.0000,  0.0000,  0.0000)
   4 Li    -0.000165   -0.000165   16.978599    ( 0.0000,  0.0000,  0.0000)
   5 Li     1.745000    1.745000   18.715801    ( 0.0000,  0.0000,  0.0000)
   6 Li     0.000012    0.000012   20.467252    ( 0.0000,  0.0000,  0.0000)
   7 Li     1.745000    1.745000   21.887519    ( 0.0000,  0.0000,  0.0000)
   8 Li     0.000000    3.490000   10.000000    ( 0.0000,  0.0000,  0.0000)
   9 Li     1.745000    5.235000   11.745000    ( 0.0000,  0.0000,  0.0000)
  10 Li     0.000000    3.490000   13.490000    ( 0.0000,  0.0000,  0.0000)
  11 Li     1.745000    5.235000   15.235000    ( 0.0000,  0.0000,  0.0000)
  12 Li    -0.000165    3.490165   16.978599    ( 0.0000,  0.0000,  0.0000)
  13 Li     1.745000    5.235087   18.723897    ( 0.0000,  0.0000,  0.0000)
  14 Li     0.000011    3.489988   20.467252    ( 0.0000,  0.0000,  0.0000)
  15 Li     1.745000    5.213983   22.236900    ( 0.0000,  0.0000,  0.0000)
  16 Li     0.000000    6.980000   10.000000    ( 0.0000,  0.0000,  0.0000)
  17 Li     1.745000    8.725000   11.745000    ( 0.0000,  0.0000,  0.0000)
  18 Li     0.000000    6.980000   13.490000    ( 0.0000,  0.0000,  0.0000)
  19 Li     1.745000    8.725000   15.235000    ( 0.0000,  0.0000,  0.0000)
  20 Li     0.000763    6.980000   16.979501    ( 0.0000,  0.0000,  0.0000)
  21 Li     1.745000    8.724912   18.723896    ( 0.0000,  0.0000,  0.0000)
  22 Li     0.000761    6.980000   20.455247    ( 0.0000,  0.0000,  0.0000)
  23 Li     1.745000    8.746017   22.236901    ( 0.0000,  0.0000,  0.0000)
  24 Li     3.490000    0.000000   10.000000    ( 0.0000,  0.0000,  0.0000)
  25 Li     5.235000    1.745000   11.745000    ( 0.0000,  0.0000,  0.0000)
  26 Li     3.490000    0.000000   13.490000    ( 0.0000,  0.0000,  0.0000)
  27 Li     5.235000    1.745000   15.235000    ( 0.0000,  0.0000,  0.0000)
  28 Li     3.490165   -0.000165   16.978599    ( 0.0000,  0.0000,  0.0000)
  29 Li     5.235087    1.745000   18.723897    ( 0.0000,  0.0000,  0.0000)
  30 Li     3.489988    0.000011   20.467252    ( 0.0000,  0.0000,  0.0000)
  31 Li     5.213983    1.745000   22.236900    ( 0.0000,  0.0000,  0.0000)
  32 Li     3.490000    3.490000   10.000000    ( 0.0000,  0.0000,  0.0000)
  33 Li     5.235000    5.235000   11.745000    ( 0.0000,  0.0000,  0.0000)
  34 Li     3.490000    3.490000   13.490000    ( 0.0000,  0.0000,  0.0000)
  35 Li     5.235000    5.235000   15.235000    ( 0.0000,  0.0000,  0.0000)
  36 Li     3.490165    3.490165   16.978599    ( 0.0000,  0.0000,  0.0000)
  37 Li     5.234943    5.234943   18.722580    ( 0.0000,  0.0000,  0.0000)
  38 Li     3.489989    3.489989   20.467252    ( 0.0000,  0.0000,  0.0000)
  39 Li     5.232883    5.232883   22.224459    ( 0.0000,  0.0000,  0.0000)
  40 Li     3.490000    6.980000   10.000000    ( 0.0000,  0.0000,  0.0000)
  41 Li     5.235000    8.725000   11.745000    ( 0.0000,  0.0000,  0.0000)
  42 Li     3.490000    6.980000   13.490000    ( 0.0000,  0.0000,  0.0000)
  43 Li     5.235000    8.725000   15.235000    ( 0.0000,  0.0000,  0.0000)
  44 Li     3.489237    6.980000   16.979502    ( 0.0000,  0.0000,  0.0000)
  45 Li     5.234944    8.725057   18.722579    ( 0.0000,  0.0000,  0.0000)
  46 Li     3.489239    6.980000   20.455247    ( 0.0000,  0.0000,  0.0000)
  47 Li     5.232883    8.727117   22.224459    ( 0.0000,  0.0000,  0.0000)
  48 Li     6.980000    0.000000   10.000000    ( 0.0000,  0.0000,  0.0000)
  49 Li     8.725000    1.745000   11.745000    ( 0.0000,  0.0000,  0.0000)
  50 Li     6.980000    0.000000   13.490000    ( 0.0000,  0.0000,  0.0000)
  51 Li     8.725000    1.745000   15.235000    ( 0.0000,  0.0000,  0.0000)
  52 Li     6.980000    0.000763   16.979501    ( 0.0000,  0.0000,  0.0000)
  53 Li     8.724912    1.745000   18.723896    ( 0.0000,  0.0000,  0.0000)
  54 Li     6.980000    0.000761   20.455247    ( 0.0000,  0.0000,  0.0000)
  55 Li     8.746017    1.745000   22.236901    ( 0.0000,  0.0000,  0.0000)
  56 Li     6.980000    3.490000   10.000000    ( 0.0000,  0.0000,  0.0000)
  57 Li     8.725000    5.235000   11.745000    ( 0.0000,  0.0000,  0.0000)
  58 Li     6.980000    3.490000   13.490000    ( 0.0000,  0.0000,  0.0000)
  59 Li     8.725000    5.235000   15.235000    ( 0.0000,  0.0000,  0.0000)
  60 Li     6.980000    3.489237   16.979502    ( 0.0000,  0.0000,  0.0000)
  61 Li     8.725057    5.234944   18.722579    ( 0.0000,  0.0000,  0.0000)
  62 Li     6.980000    3.489239   20.455247    ( 0.0000,  0.0000,  0.0000)
  63 Li     8.727117    5.232883   22.224459    ( 0.0000,  0.0000,  0.0000)
  64 Li     6.980000    6.980000   10.000000    ( 0.0000,  0.0000,  0.0000)
  65 Li     8.725000    8.725000   11.745000    ( 0.0000,  0.0000,  0.0000)
  66 Li     6.980000    6.980000   13.490000    ( 0.0000,  0.0000,  0.0000)
  67 Li     8.725000    8.725000   15.235000    ( 0.0000,  0.0000,  0.0000)
  68 Li     6.980000    6.980000   16.979087    ( 0.0000,  0.0000,  0.0000)
  69 Li     8.725056    8.725056   18.722578    ( 0.0000,  0.0000,  0.0000)
  70 Li     6.980000    6.980000   20.461160    ( 0.0000,  0.0000,  0.0000)
  71 Li     8.727117    8.727117   22.224459    ( 0.0000,  0.0000,  0.0000)
  72 Li     1.745000    1.745000   24.446571    ( 0.0000,  0.0000,  0.0000)

Unit cell:
           periodic     x           y           z      points  spacing
  1. axis:    yes   10.470000    0.000000    0.000000    35     0.2991
  2. axis:    yes    0.000000   10.470000    0.000000    35     0.2991
  3. axis:    no     0.000000    0.000000   32.215000   108     0.2983

  Lengths:  10.470000  10.470000  32.215000
  Angles:   90.000000  90.000000  90.000000

Effective grid spacing dv^(1/3) = 0.2989

     iter     time        total  log10-change:
                         energy   eigst   dens
iter:   1 23:18:27  -131.638692   -1.90
iter:   2 23:18:31  -132.192783   -1.58  -1.17
iter:   3 23:18:34  -131.167231   -2.52  -0.98
iter:   4 23:18:38  -131.156657   -3.18  -1.84
iter:   5 23:18:41  -131.146645c  -3.37  -2.07
iter:   6 23:18:44  -131.148712c  -3.88  -2.32
iter:   7 23:18:48  -131.147294c  -4.65  -2.32
iter:   8 23:18:51  -131.146395c  -4.92  -2.61
iter:   9 23:18:55  -131.146267c  -5.15  -2.80
iter:  10 23:18:59  -131.146578c  -5.27  -2.92
iter:  11 23:19:03  -131.146432c  -5.50c -3.03
iter:  12 23:19:07  -131.146523c  -5.70c -3.16
iter:  13 23:19:11  -131.146514c  -5.98c -3.22
iter:  14 23:19:15  -131.146457c  -5.87c -3.27
iter:  15 23:19:19  -131.146384c  -6.19c -3.47
iter:  16 23:19:23  -131.146382c  -6.33c -3.60
iter:  17 23:19:26  -131.146377c  -6.34c -3.62
iter:  18 23:19:30  -131.146375c  -6.62c -3.88
iter:  19 23:19:34  -131.146389c  -6.75c -3.97
iter:  20 23:19:37  -131.146412c  -6.75c -4.02c

Converged after 20 iterations.

Dipole moment: (-0.695872, -0.695872, 0.391479) |e|*Ang

Energy contributions relative to reference atoms: (reference = -14803.510878)

Kinetic:       +101.910583
Potential:      -91.713689
External:        +0.000000
XC:            -140.238268
Entropy (-ST):   -1.237059
Local:           -0.486508
SIC:             +0.000000
--------------------------
Free energy:   -131.764942
Extrapolated:  -131.146412

Showing all kpts
 Kpt  Band  Eigenvalues  Occupancy
  0    34     -1.55303    1.54775
  0    35     -1.54905    1.53366
  0    36     -1.39424    0.82305
  0    37     -1.35105    0.62455

  1    34     -1.55303    1.54775
  1    35     -1.54905    1.53366
  1    36     -1.39424    0.82305
  1    37     -1.35105    0.62455


Fermi level: -1.43000

Gap: 0.155 eV
Transition (v -> c):
  (s=0, k=1, n=35, [0.25, 0.25, 0.00]) -> (s=0, k=1, n=36, [0.25, 0.25, 0.00])
No difference between direct/indirect transitions

Forces in eV/Ang:
  0 Li   -0.00010   -0.00010   -0.03253
  1 Li    0.00000    0.00000    0.06729
  2 Li    0.00017    0.00017    0.00554
  3 Li    0.00000    0.00000    0.01591
  4 Li   -0.00272   -0.00272   -0.01427
  5 Li    0.00000    0.00000   -0.06021
  6 Li   -0.05346   -0.05346   -0.07418
  7 Li    0.00000    0.00000   -0.21487
  8 Li   -0.00010    0.00010   -0.03253
  9 Li    0.00000    0.00156    0.05795
 10 Li    0.00018   -0.00017    0.00554
 11 Li   -0.00000   -0.00146    0.00654
 12 Li   -0.00272    0.00272   -0.01427
 13 Li   -0.00000   -0.01087   -0.00128
 14 Li   -0.05346    0.05346   -0.07418
 15 Li   -0.00000   -0.07840    0.08057
 16 Li    0.00337    0.00000   -0.02862
 17 Li    0.00000   -0.00156    0.05795
 18 Li    0.00328   -0.00000    0.02078
 19 Li   -0.00000    0.00146    0.00654
 20 Li    0.00559   -0.00000    0.00168
 21 Li   -0.00000    0.01086   -0.00128
 22 Li    0.00938   -0.00000   -0.03809
 23 Li   -0.00000    0.07840    0.08057
 24 Li    0.00010   -0.00010   -0.03253
 25 Li    0.00156    0.00000    0.05795
 26 Li   -0.00017    0.00018    0.00554
 27 Li   -0.00146   -0.00000    0.00654
 28 Li    0.00272   -0.00272   -0.01427
 29 Li   -0.01087   -0.00000   -0.00128
 30 Li    0.05346   -0.05346   -0.07418
 31 Li   -0.07840   -0.00000    0.08057
 32 Li    0.00010    0.00010   -0.03253
 33 Li   -0.00072   -0.00072    0.05699
 34 Li   -0.00018   -0.00018    0.00553
 35 Li    0.00113    0.00113   -0.00223
 36 Li    0.00272    0.00272   -0.01427
 37 Li    0.00236    0.00236   -0.01768
 38 Li    0.05346    0.05346   -0.07418
 39 Li   -0.00286   -0.00286    0.03347
 40 Li   -0.00337    0.00000   -0.02862
 41 Li   -0.00072    0.00072    0.05699
 42 Li   -0.00329   -0.00000    0.02079
 43 Li    0.00113   -0.00113   -0.00223
 44 Li   -0.00559   -0.00000    0.00168
 45 Li    0.00237   -0.00236   -0.01768
 46 Li   -0.00938   -0.00000   -0.03809
 47 Li   -0.00286    0.00286    0.03348
 48 Li    0.00000    0.00337   -0.02862
 49 Li   -0.00156    0.00000    0.05795
 50 Li   -0.00000    0.00328    0.02078
 51 Li    0.00146   -0.00000    0.00654
 52 Li   -0.00000    0.00559    0.00168
 53 Li    0.01086   -0.00000   -0.00128
 54 Li   -0.00000    0.00938   -0.03809
 55 Li    0.07840   -0.00000    0.08057
 56 Li    0.00000   -0.00337   -0.02862
 57 Li    0.00072   -0.00072    0.05699
 58 Li   -0.00000   -0.00329    0.02079
 59 Li   -0.00113    0.00113   -0.00223
 60 Li   -0.00000   -0.00559    0.00168
 61 Li   -0.00236    0.00237   -0.01768
 62 Li   -0.00000   -0.00938   -0.03809
 63 Li    0.00286   -0.00286    0.03348
 64 Li   -0.00000   -0.00000   -0.03176
 65 Li    0.00072    0.00072    0.05699
 66 Li    0.00001    0.00001    0.01686
 67 Li   -0.00113   -0.00113   -0.00223
 68 Li    0.00000    0.00000   -0.00358
 69 Li   -0.00237   -0.00237   -0.01768
 70 Li    0.00000    0.00000   -0.03186
 71 Li    0.00286    0.00286    0.03348
 72 Li    0.00000    0.00000    0.02501

System changes: positions 

Initializing position-dependent things.

Density initialized from wave functions
       .-------------------------.  
      /|                         |  
     / |                         |  
    /  |                         |  
   /   |                         |  
  /    |                         |  
 *     |                         |  
 |     |                         |  
 |     |                         |  
 |     |                         |  
 |     |                         |  
 |     |                         |  
 |     |                         |  
 |     |  Li       Li       Li   |  
 |     |                         |  
 |    LiLi      LLi       Li     Li 
 |     |                         |  
 |   Li|      LLi     LiLi       |  
 |    Li  Li       Li       Li   |  
 |     |    Li  Li  Li       Li  Li 
 |     |Li       Li       Li     |  
 |   Li|      Li  Li  Li         |  
 |    Li  Li   Li  Li   Li  Li   |  
 |     |    Li      Li       Li  |  
 |     |Li       Li       Li     |  
 |   Li|      Li  Li  Li         |  
 |    Li  Li   Li  Li   Li  Li   |  
 | Li  |    Li      Li           |  
 |     |Li       Li       Li     |  
 Li    |  Li      Li             |  
 |   LLi      LLi     LiLi       |  
 |     |                         |  
 | Li  |    Li      Li           |  
 |     |                         |  
 Li    |  Li      Li             |  
 |     |                         |  
 |     |                         |  
 |     |                         |  
 |     |                         |  
 |     |                         |  
 |     .-------------------------.  
 |    /                         /   
 |   /                         /    
 |  /                         /     
 | /                         /      
 |/                         /       
 *-------------------------*        

Atomic positions and initial magnetic moments

Positions:
   0 Li     0.000000    0.000000   10.000000    ( 0.0000,  0.0000,  0.0000)
   1 Li     1.745000    1.745000   11.745000    ( 0.0000,  0.0000,  0.0000)
   2 Li     0.000000    0.000000   13.490000    ( 0.0000,  0.0000,  0.0000)
   3 Li     1.745000    1.745000   15.235000    ( 0.0000,  0.0000,  0.0000)
   4 Li    -0.000249   -0.000249   16.978089    ( 0.0000,  0.0000,  0.0000)
   5 Li     1.745000    1.745000   18.713206    ( 0.0000,  0.0000,  0.0000)
   6 Li    -0.001162   -0.001162   20.465233    ( 0.0000,  0.0000,  0.0000)
   7 Li     1.745000    1.745000   21.837501    ( 0.0000,  0.0000,  0.0000)
   8 Li     0.000000    3.490000   10.000000    ( 0.0000,  0.0000,  0.0000)
   9 Li     1.745000    5.235000   11.745000    ( 0.0000,  0.0000,  0.0000)
  10 Li     0.000000    3.490000   13.490000    ( 0.0000,  0.0000,  0.0000)
  11 Li     1.745000    5.235000   15.235000    ( 0.0000,  0.0000,  0.0000)
  12 Li    -0.000249    3.490248   16.978089    ( 0.0000,  0.0000,  0.0000)
  13 Li     1.745000    5.234860   18.723715    ( 0.0000,  0.0000,  0.0000)
  14 Li    -0.001162    3.491162   20.465234    ( 0.0000,  0.0000,  0.0000)
  15 Li     1.745000    5.209341   22.241716    ( 0.0000,  0.0000,  0.0000)
  16 Li     0.000000    6.980000   10.000000    ( 0.0000,  0.0000,  0.0000)
  17 Li     1.745000    8.725000   11.745000    ( 0.0000,  0.0000,  0.0000)
  18 Li     0.000000    6.980000   13.490000    ( 0.0000,  0.0000,  0.0000)
  19 Li     1.745000    8.725000   15.235000    ( 0.0000,  0.0000,  0.0000)
  20 Li     0.000992    6.980000   16.979469    ( 0.0000,  0.0000,  0.0000)
  21 Li     1.745000    8.725139   18.723715    ( 0.0000,  0.0000,  0.0000)
  22 Li     0.001074    6.980000   20.452360    ( 0.0000,  0.0000,  0.0000)
  23 Li     1.745000    8.750659   22.241717    ( 0.0000,  0.0000,  0.0000)
  24 Li     3.490000    0.000000   10.000000    ( 0.0000,  0.0000,  0.0000)
  25 Li     5.235000    1.745000   11.745000    ( 0.0000,  0.0000,  0.0000)
  26 Li     3.490000    0.000000   13.490000    ( 0.0000,  0.0000,  0.0000)
  27 Li     5.235000    1.745000   15.235000    ( 0.0000,  0.0000,  0.0000)
  28 Li     3.490248   -0.000249   16.978089    ( 0.0000,  0.0000,  0.0000)
  29 Li     5.234860    1.745000   18.723715    ( 0.0000,  0.0000,  0.0000)
  30 Li     3.491162   -0.001162   20.465234    ( 0.0000,  0.0000,  0.0000)
  31 Li     5.209341    1.745000   22.241716    ( 0.0000,  0.0000,  0.0000)
  32 Li     3.490000    3.490000   10.000000    ( 0.0000,  0.0000,  0.0000)
  33 Li     5.235000    5.235000   11.745000    ( 0.0000,  0.0000,  0.0000)
  34 Li     3.490000    3.490000   13.490000    ( 0.0000,  0.0000,  0.0000)
  35 Li     5.235000    5.235000   15.235000    ( 0.0000,  0.0000,  0.0000)
  36 Li     3.490248    3.490248   16.978089    ( 0.0000,  0.0000,  0.0000)
  37 Li     5.234988    5.234988   18.721854    ( 0.0000,  0.0000,  0.0000)
  38 Li     3.491162    3.491162   20.465234    ( 0.0000,  0.0000,  0.0000)
  39 Li     5.232526    5.232526   22.226509    ( 0.0000,  0.0000,  0.0000)
  40 Li     3.490000    6.980000   10.000000    ( 0.0000,  0.0000,  0.0000)
  41 Li     5.235000    8.725000   11.745000    ( 0.0000,  0.0000,  0.0000)
  42 Li     3.490000    6.980000   13.490000    ( 0.0000,  0.0000,  0.0000)
  43 Li     5.235000    8.725000   15.235000    ( 0.0000,  0.0000,  0.0000)
  44 Li     3.489008    6.980000   16.979469    ( 0.0000,  0.0000,  0.0000)
  45 Li     5.234988    8.725012   18.721853    ( 0.0000,  0.0000,  0.0000)
  46 Li     3.488927    6.980000   20.452360    ( 0.0000,  0.0000,  0.0000)
  47 Li     5.232526    8.727474   22.226510    ( 0.0000,  0.0000,  0.0000)
  48 Li     6.980000    0.000000   10.000000    ( 0.0000,  0.0000,  0.0000)
  49 Li     8.725000    1.745000   11.745000    ( 0.0000,  0.0000,  0.0000)
  50 Li     6.980000    0.000000   13.490000    ( 0.0000,  0.0000,  0.0000)
  51 Li     8.725000    1.745000   15.235000    ( 0.0000,  0.0000,  0.0000)
  52 Li     6.980000    0.000992   16.979469    ( 0.0000,  0.0000,  0.0000)
  53 Li     8.725139    1.745000   18.723715    ( 0.0000,  0.0000,  0.0000)
  54 Li     6.980000    0.001074   20.452360    ( 0.0000,  0.0000,  0.0000)
  55 Li     8.750659    1.745000   22.241717    ( 0.0000,  0.0000,  0.0000)
  56 Li     6.980000    3.490000   10.000000    ( 0.0000,  0.0000,  0.0000)
  57 Li     8.725000    5.235000   11.745000    ( 0.0000,  0.0000,  0.0000)
  58 Li     6.980000    3.490000   13.490000    ( 0.0000,  0.0000,  0.0000)
  59 Li     8.725000    5.235000   15.235000    ( 0.0000,  0.0000,  0.0000)
  60 Li     6.980000    3.489008   16.979469    ( 0.0000,  0.0000,  0.0000)
  61 Li     8.725012    5.234988   18.721853    ( 0.0000,  0.0000,  0.0000)
  62 Li     6.980000    3.488927   20.452360    ( 0.0000,  0.0000,  0.0000)
  63 Li     8.727474    5.232526   22.226510    ( 0.0000,  0.0000,  0.0000)
  64 Li     6.980000    6.980000   10.000000    ( 0.0000,  0.0000,  0.0000)
  65 Li     8.725000    8.725000   11.745000    ( 0.0000,  0.0000,  0.0000)
  66 Li     6.980000    6.980000   13.490000    ( 0.0000,  0.0000,  0.0000)
  67 Li     8.725000    8.725000   15.235000    ( 0.0000,  0.0000,  0.0000)
  68 Li     6.980000    6.980000   16.978880    ( 0.0000,  0.0000,  0.0000)
  69 Li     8.725012    8.725012   18.721852    ( 0.0000,  0.0000,  0.0000)
  70 Li     6.980000    6.980000   20.459230    ( 0.0000,  0.0000,  0.0000)
  71 Li     8.727474    8.727474   22.226510    ( 0.0000,  0.0000,  0.0000)
  72 Li     1.744999    1.744999   24.479093    ( 0.0000,  0.0000,  0.0000)

Unit cell:
           periodic     x           y           z      points  spacing
  1. axis:    yes   10.470000    0.000000    0.000000    35     0.2991
  2. axis:    yes    0.000000   10.470000    0.000000    35     0.2991
  3. axis:    no     0.000000    0.000000   32.215000   108     0.2983

  Lengths:  10.470000  10.470000  32.215000
  Angles:   90.000000  90.000000  90.000000

Effective grid spacing dv^(1/3) = 0.2989

     iter     time        total  log10-change:
                         energy   eigst   dens
iter:   1 23:19:46  -131.332905   -2.37
iter:   2 23:19:50  -131.591328   -1.98  -1.39
iter:   3 23:19:54  -131.162370   -2.92  -1.16
iter:   4 23:19:57  -131.159706   -3.60  -2.12
iter:   5 23:20:01  -131.156381c  -3.94  -2.37
iter:   6 23:20:05  -131.157300c  -4.35  -2.60
iter:   7 23:20:09  -131.157003c  -5.05  -2.61
iter:   8 23:20:13  -131.156635c  -5.35c -2.96
iter:   9 23:20:17  -131.156631c  -5.64c -3.08
iter:  10 23:20:21  -131.156779c  -5.71c -3.20
iter:  11 23:20:25  -131.156693c  -5.86c -3.33
iter:  12 23:20:29  -131.156753c  -6.17c -3.42
iter:  13 23:20:33  -131.156750c  -6.36c -3.52
iter:  14 23:20:37  -131.156674c  -6.31c -3.57
iter:  15 23:20:41  -131.156650c  -6.67c -3.82
iter:  16 23:20:45  -131.156666c  -6.67c -3.90
iter:  17 23:20:49  -131.156679c  -6.78c -3.95
iter:  18 23:20:52  -131.156684c  -7.03c -4.06c

Converged after 18 iterations.

Dipole moment: (-0.666453, -0.666453, 0.406234) |e|*Ang

Energy contributions relative to reference atoms: (reference = -14803.510878)

Kinetic:       +101.751349
Potential:      -91.615903
External:        +0.000000
XC:            -140.186947
Entropy (-ST):   -1.237608
Local:           -0.486380
SIC:             +0.000000
--------------------------
Free energy:   -131.775488
Extrapolated:  -131.156684

Showing all kpts
 Kpt  Band  Eigenvalues  Occupancy
  0    34     -1.55023    1.54686
  0    35     -1.54632    1.53300
  0    36     -1.39186    0.82387
  0    37     -1.35011    0.63147

  1    34     -1.55023    1.54686
  1    35     -1.54632    1.53300
  1    36     -1.39186    0.82387
  1    37     -1.35011    0.63148


Fermi level: -1.42745

Gap: 0.154 eV
Transition (v -> c):
  (s=0, k=1, n=35, [0.25, 0.25, 0.00]) -> (s=0, k=1, n=36, [0.25, 0.25, 0.00])
No difference between direct/indirect transitions

Forces in eV/Ang:
  0 Li   -0.00006   -0.00006   -0.03275
  1 Li    0.00000    0.00000    0.06674
  2 Li    0.00000    0.00000    0.00539
  3 Li    0.00000    0.00000    0.01636
  4 Li   -0.00289   -0.00289   -0.01501
  5 Li    0.00000    0.00000   -0.06775
  6 Li   -0.06301   -0.06301   -0.08158
  7 Li    0.00000    0.00000   -0.05029
  8 Li   -0.00006    0.00006   -0.03275
  9 Li    0.00000    0.00168    0.05762
 10 Li    0.00001   -0.00000    0.00539
 11 Li   -0.00000   -0.00153    0.00665
 12 Li   -0.00289    0.00289   -0.01501
 13 Li   -0.00000   -0.01314   -0.00127
 14 Li   -0.06301    0.06301   -0.08159
 15 Li   -0.00000   -0.07449    0.07363
 16 Li    0.00359   -0.00000   -0.02878
 17 Li    0.00000   -0.00168    0.05762
 18 Li    0.00321   -0.00000    0.02107
 19 Li   -0.00000    0.00153    0.00665
 20 Li    0.00579   -0.00000    0.00191
 21 Li   -0.00000    0.01313   -0.00127
 22 Li    0.01030   -0.00000   -0.03013
 23 Li   -0.00000    0.07449    0.07363
 24 Li    0.00006   -0.00006   -0.03275
 25 Li    0.00168    0.00000    0.05762
 26 Li   -0.00000    0.00001    0.00539
 27 Li   -0.00153   -0.00000    0.00665
 28 Li    0.00289   -0.00289   -0.01501
 29 Li   -0.01314   -0.00000   -0.00127
 30 Li    0.06301   -0.06301   -0.08159
 31 Li   -0.07449   -0.00000    0.07363
 32 Li    0.00007    0.00007   -0.03275
 33 Li   -0.00078   -0.00078    0.05695
 34 Li   -0.00001   -0.00001    0.00539
 35 Li    0.00129    0.00129   -0.00230
 36 Li    0.00289    0.00289   -0.01501
 37 Li    0.00308    0.00308   -0.01899
 38 Li    0.06301    0.06301   -0.08159
 39 Li   -0.00133   -0.00133    0.03023
 40 Li   -0.00358    0.00000   -0.02879
 41 Li   -0.00078    0.00078    0.05695
 42 Li   -0.00322   -0.00000    0.02107
 43 Li    0.00129   -0.00129   -0.00230
 44 Li   -0.00579   -0.00000    0.00191
 45 Li    0.00309   -0.00308   -0.01899
 46 Li   -0.01030   -0.00000   -0.03013
 47 Li   -0.00134    0.00134    0.03023
 48 Li   -0.00000    0.00359   -0.02878
 49 Li   -0.00168    0.00000    0.05762
 50 Li   -0.00000    0.00321    0.02107
 51 Li    0.00153   -0.00000    0.00665
 52 Li   -0.00000    0.00579    0.00191
 53 Li    0.01313   -0.00000   -0.00127
 54 Li   -0.00000    0.01030   -0.03013
 55 Li    0.07449   -0.00000    0.07363
 56 Li    0.00000   -0.00358   -0.02879
 57 Li    0.00078   -0.00078    0.05695
 58 Li   -0.00000   -0.00322    0.02107
 59 Li   -0.00129    0.00129   -0.00230
 60 Li   -0.00000   -0.00579    0.00191
 61 Li   -0.00308    0.00309   -0.01899
 62 Li   -0.00000   -0.01030   -0.03013
 63 Li    0.00134   -0.00134    0.03023
 64 Li   -0.00000   -0.00000   -0.03208
 65 Li    0.00078    0.00078    0.05695
 66 Li    0.00001    0.00001    0.01726
 67 Li   -0.00129   -0.00129   -0.00230
 68 Li    0.00000    0.00000   -0.00456
 69 Li   -0.00309   -0.00309   -0.01899
 70 Li    0.00000    0.00000   -0.02780
 71 Li    0.00134    0.00134    0.03023
 72 Li    0.00000    0.00000   -0.08981

System changes: positions 

Initializing position-dependent things.

Density initialized from wave functions
       .-------------------------.  
      /|                         |  
     / |                         |  
    /  |                         |  
   /   |                         |  
  /    |                         |  
 *     |                         |  
 |     |                         |  
 |     |                         |  
 |     |                         |  
 |     |                         |  
 |     |                         |  
 |     |                         |  
 |     |  Li       Li       Li   |  
 |     |                         |  
 |    LiLi      LLi       Li     Li 
 |     |                         |  
 |   Li|      LLi     LiLi       |  
 |    Li  Li       Li       Li   |  
 |     |    Li  Li  Li       Li  Li 
 |     |Li       Li       Li     |  
 |   Li|      Li  Li  Li         |  
 |    Li  Li   Li  Li   Li  Li   |  
 |     |    Li      Li       Li  |  
 |     |Li       Li       Li     |  
 |   Li|      Li  Li  Li         |  
 |    Li  Li   Li  Li   Li  Li   |  
 | Li  |    Li      Li           |  
 |     |Li       Li       Li     |  
 Li    |  Li      Li             |  
 |   LLi      LLi     LiLi       |  
 |     |                         |  
 | Li  |    Li      Li           |  
 |     |                         |  
 Li    |  Li      Li             |  
 |     |                         |  
 |     |                         |  
 |     |                         |  
 |     |                         |  
 |     |                         |  
 |     .-------------------------.  
 |    /                         /   
 |   /                         /    
 |  /                         /     
 | /                         /      
 |/                         /       
 *-------------------------*        

Atomic positions and initial magnetic moments

Positions:
   0 Li     0.000000    0.000000   10.000000    ( 0.0000,  0.0000,  0.0000)
   1 Li     1.745000    1.745000   11.745000    ( 0.0000,  0.0000,  0.0000)
   2 Li     0.000000    0.000000   13.490000    ( 0.0000,  0.0000,  0.0000)
   3 Li     1.745000    1.745000   15.235000    ( 0.0000,  0.0000,  0.0000)
   4 Li    -0.000328   -0.000328   16.977644    ( 0.0000,  0.0000,  0.0000)
   5 Li     1.745000    1.745000   18.711069    ( 0.0000,  0.0000,  0.0000)
   6 Li    -0.002665   -0.002665   20.463106    ( 0.0000,  0.0000,  0.0000)
   7 Li     1.745000    1.745000   21.817358    ( 0.0000,  0.0000,  0.0000)
   8 Li     0.000000    3.490000   10.000000    ( 0.0000,  0.0000,  0.0000)
   9 Li     1.745000    5.235000   11.745000    ( 0.0000,  0.0000,  0.0000)
  10 Li     0.000000    3.490000   13.490000    ( 0.0000,  0.0000,  0.0000)
  11 Li     1.745000    5.235000   15.235000    ( 0.0000,  0.0000,  0.0000)
  12 Li    -0.000328    3.490328   16.977644    ( 0.0000,  0.0000,  0.0000)
  13 Li     1.745000    5.234553   18.723623    ( 0.0000,  0.0000,  0.0000)
  14 Li    -0.002666    3.492665   20.463106    ( 0.0000,  0.0000,  0.0000)
  15 Li     1.745000    5.206322   22.244780    ( 0.0000,  0.0000,  0.0000)
  16 Li     0.000000    6.980000   10.000000    ( 0.0000,  0.0000,  0.0000)
  17 Li     1.745000    8.725000   11.745000    ( 0.0000,  0.0000,  0.0000)
  18 Li     0.000000    6.980000   13.490000    ( 0.0000,  0.0000,  0.0000)
  19 Li     1.745000    8.725000   15.235000    ( 0.0000,  0.0000,  0.0000)
  20 Li     0.001176    6.980000   16.979487    ( 0.0000,  0.0000,  0.0000)
  21 Li     1.745000    8.725447   18.723622    ( 0.0000,  0.0000,  0.0000)
  22 Li     0.001365    6.980000   20.450759    ( 0.0000,  0.0000,  0.0000)
  23 Li     1.745000    8.753679   22.244781    ( 0.0000,  0.0000,  0.0000)
  24 Li     3.490000    0.000000   10.000000    ( 0.0000,  0.0000,  0.0000)
  25 Li     5.235000    1.745000   11.745000    ( 0.0000,  0.0000,  0.0000)
  26 Li     3.490000    0.000000   13.490000    ( 0.0000,  0.0000,  0.0000)
  27 Li     5.235000    1.745000   15.235000    ( 0.0000,  0.0000,  0.0000)
  28 Li     3.490328   -0.000328   16.977644    ( 0.0000,  0.0000,  0.0000)
  29 Li     5.234553    1.745000   18.723623    ( 0.0000,  0.0000,  0.0000)
  30 Li     3.492665   -0.002666   20.463106    ( 0.0000,  0.0000,  0.0000)
  31 Li     5.206322    1.745000   22.244780    ( 0.0000,  0.0000,  0.0000)
  32 Li     3.490000    3.490000   10.000000    ( 0.0000,  0.0000,  0.0000)
  33 Li     5.235000    5.235000   11.745000    ( 0.0000,  0.0000,  0.0000)
  34 Li     3.490000    3.490000   13.490000    ( 0.0000,  0.0000,  0.0000)
  35 Li     5.235000    5.235000   15.235000    ( 0.0000,  0.0000,  0.0000)
  36 Li     3.490328    3.490328   16.977645    ( 0.0000,  0.0000,  0.0000)
  37 Li     5.235057    5.235057   18.721258    ( 0.0000,  0.0000,  0.0000)
  38 Li     3.492666    3.492666   20.463106    ( 0.0000,  0.0000,  0.0000)
  39 Li     5.232368    5.232368   22.227795    ( 0.0000,  0.0000,  0.0000)
  40 Li     3.490000    6.980000   10.000000    ( 0.0000,  0.0000,  0.0000)
  41 Li     5.235000    8.725000   11.745000    ( 0.0000,  0.0000,  0.0000)
  42 Li     3.490000    6.980000   13.490000    ( 0.0000,  0.0000,  0.0000)
  43 Li     5.235000    8.725000   15.235000    ( 0.0000,  0.0000,  0.0000)
  44 Li     3.488824    6.980000   16.979487    ( 0.0000,  0.0000,  0.0000)
  45 Li     5.235058    8.724943   18.721257    ( 0.0000,  0.0000,  0.0000)
  46 Li     3.488635    6.980000   20.450759    ( 0.0000,  0.0000,  0.0000)
  47 Li     5.232368    8.727632   22.227796    ( 0.0000,  0.0000,  0.0000)
  48 Li     6.980000    0.000000   10.000000    ( 0.0000,  0.0000,  0.0000)
  49 Li     8.725000    1.745000   11.745000    ( 0.0000,  0.0000,  0.0000)
  50 Li     6.980000    0.000000   13.490000    ( 0.0000,  0.0000,  0.0000)
  51 Li     8.725000    1.745000   15.235000    ( 0.0000,  0.0000,  0.0000)
  52 Li     6.980000    0.001176   16.979487    ( 0.0000,  0.0000,  0.0000)
  53 Li     8.725447    1.745000   18.723622    ( 0.0000,  0.0000,  0.0000)
  54 Li     6.980000    0.001365   20.450759    ( 0.0000,  0.0000,  0.0000)
  55 Li     8.753679    1.745000   22.244781    ( 0.0000,  0.0000,  0.0000)
  56 Li     6.980000    3.490000   10.000000    ( 0.0000,  0.0000,  0.0000)
  57 Li     8.725000    5.235000   11.745000    ( 0.0000,  0.0000,  0.0000)
  58 Li     6.980000    3.490000   13.490000    ( 0.0000,  0.0000,  0.0000)
  59 Li     8.725000    5.235000   15.235000    ( 0.0000,  0.0000,  0.0000)
  60 Li     6.980000    3.488824   16.979487    ( 0.0000,  0.0000,  0.0000)
  61 Li     8.724943    5.235058   18.721257    ( 0.0000,  0.0000,  0.0000)
  62 Li     6.980000    3.488635   20.450759    ( 0.0000,  0.0000,  0.0000)
  63 Li     8.727632    5.232368   22.227796    ( 0.0000,  0.0000,  0.0000)
  64 Li     6.980000    6.980000   10.000000    ( 0.0000,  0.0000,  0.0000)
  65 Li     8.725000    8.725000   11.745000    ( 0.0000,  0.0000,  0.0000)
  66 Li     6.980000    6.980000   13.490000    ( 0.0000,  0.0000,  0.0000)
  67 Li     8.725000    8.725000   15.235000    ( 0.0000,  0.0000,  0.0000)
  68 Li     6.980000    6.980000   16.978722    ( 0.0000,  0.0000,  0.0000)
  69 Li     8.724943    8.724943   18.721256    ( 0.0000,  0.0000,  0.0000)
  70 Li     6.980000    6.980000   20.458034    ( 0.0000,  0.0000,  0.0000)
  71 Li     8.727632    8.727632   22.227796    ( 0.0000,  0.0000,  0.0000)
  72 Li     1.745000    1.745000   24.490218    ( 0.0000,  0.0000,  0.0000)

Unit cell:
           periodic     x           y           z      points  spacing
  1. axis:    yes   10.470000    0.000000    0.000000    35     0.2991
  2. axis:    yes    0.000000   10.470000    0.000000    35     0.2991
  3. axis:    no     0.000000    0.000000   32.215000   108     0.2983

  Lengths:  10.470000  10.470000  32.215000
  Angles:   90.000000  90.000000  90.000000

Effective grid spacing dv^(1/3) = 0.2989

     iter     time        total  log10-change:
                         energy   eigst   dens
iter:   1 23:21:01  -131.201851   -2.98
iter:   2 23:21:04  -131.276513   -2.56  -1.68
iter:   3 23:21:08  -131.160839   -3.47  -1.44
iter:   4 23:21:12  -131.160404   -4.25  -2.55
iter:   5 23:21:15  -131.159520c  -4.73  -2.78
iter:   6 23:21:19  -131.159790c  -5.09  -2.93
iter:   7 23:21:23  -131.159850c  -5.51c -3.07
iter:   8 23:21:27  -131.159714c  -5.96c -3.30
iter:   9 23:21:30  -131.159671c  -6.25c -3.45
iter:  10 23:21:34  -131.159756c  -6.36c -3.54
iter:  11 23:21:37  -131.159730c  -6.64c -3.65
iter:  12 23:21:41  -131.159699c  -6.65c -3.73
iter:  13 23:21:45  -131.159717c  -7.08c -3.89
iter:  14 23:21:48  -131.159722c  -6.87c -3.96
iter:  15 23:21:52  -131.159678c  -7.08c -4.01c

Converged after 15 iterations.

Dipole moment: (-0.624284, -0.624284, 0.410554) |e|*Ang

Energy contributions relative to reference atoms: (reference = -14803.510878)

Kinetic:       +101.676378
Potential:      -91.567844
External:        +0.000000
XC:            -140.162918
Entropy (-ST):   -1.237820
Local:           -0.486385
SIC:             +0.000000
--------------------------
Free energy:   -131.778588
Extrapolated:  -131.159678

Showing all kpts
 Kpt  Band  Eigenvalues  Occupancy
  0    34     -1.54923    1.54655
  0    35     -1.54529    1.53261
  0    36     -1.39094    0.82388
  0    37     -1.34979    0.63404

  1    34     -1.54923    1.54655
  1    35     -1.54529    1.53261
  1    36     -1.39094    0.82388
  1    37     -1.34979    0.63404


Fermi level: -1.42654

Gap: 0.154 eV
Transition (v -> c):
  (s=0, k=1, n=35, [0.25, 0.25, 0.00]) -> (s=0, k=1, n=36, [0.25, 0.25, 0.00])
No difference between direct/indirect transitions

Forces in eV/Ang:
  0 Li   -0.00002   -0.00002   -0.03275
  1 Li    0.00000    0.00000    0.06666
  2 Li   -0.00000   -0.00000    0.00558
  3 Li    0.00000    0.00000    0.01605
  4 Li   -0.00315   -0.00315   -0.01534
  5 Li    0.00000    0.00000   -0.06951
  6 Li   -0.06545   -0.06545   -0.08300
  7 Li    0.00000    0.00000    0.00622
  8 Li   -0.00003    0.00003   -0.03275
  9 Li    0.00000    0.00168    0.05767
 10 Li    0.00000    0.00000    0.00558
 11 Li   -0.00000   -0.00154    0.00660
 12 Li   -0.00315    0.00315   -0.01533
 13 Li   -0.00000   -0.01385   -0.00190
 14 Li   -0.06545    0.06545   -0.08300
 15 Li   -0.00000   -0.07248    0.06984
 16 Li    0.00368   -0.00000   -0.02876
 17 Li    0.00000   -0.00168    0.05767
 18 Li    0.00315   -0.00000    0.02133
 19 Li   -0.00000    0.00154    0.00660
 20 Li    0.00586   -0.00000    0.00204
 21 Li   -0.00000    0.01384   -0.00190
 22 Li    0.01074   -0.00000   -0.02568
 23 Li   -0.00000    0.07248    0.06984
 24 Li    0.00003   -0.00003   -0.03275
 25 Li    0.00168    0.00000    0.05767
 26 Li    0.00000    0.00000    0.00558
 27 Li   -0.00154   -0.00000    0.00660
 28 Li    0.00315   -0.00315   -0.01533
 29 Li   -0.01385   -0.00000   -0.00190
 30 Li    0.06545   -0.06545   -0.08300
 31 Li   -0.07248   -0.00000    0.06984
 32 Li    0.00003    0.00003   -0.03275
 33 Li   -0.00080   -0.00080    0.05716
 34 Li   -0.00000   -0.00000    0.00558
 35 Li    0.00135    0.00135   -0.00226
 36 Li    0.00315    0.00315   -0.01533
 37 Li    0.00391    0.00391   -0.02005
 38 Li    0.06545    0.06545   -0.08300
 39 Li   -0.00051   -0.00051    0.02867
[...]
  7 Li   -0.00000   -0.00000   -0.03332
  8 Li   -0.00073    0.00075   -0.03390
  9 Li   -0.00001    0.00138    0.06018
 10 Li    0.00156   -0.00152    0.00633
 11 Li   -0.00001   -0.00920   -0.03292
 12 Li   -0.00377    0.00377    0.01092
 13 Li   -0.00001    0.00627    0.00969
 14 Li   -0.00199    0.00196   -0.01903
 15 Li    0.00000    0.00249   -0.02139
 16 Li    0.00428   -0.00001   -0.02937
 17 Li   -0.00001   -0.00138    0.06016
 18 Li   -0.00012   -0.00000    0.03058
 19 Li   -0.00001    0.00920   -0.03292
 20 Li   -0.01483    0.00000    0.00988
 21 Li   -0.00001   -0.00627    0.00970
 22 Li   -0.00270    0.00000   -0.00890
 23 Li    0.00000   -0.00249   -0.02137
 24 Li    0.00075   -0.00073   -0.03390
 25 Li    0.00138   -0.00001    0.06018
 26 Li   -0.00152    0.00156    0.00633
 27 Li   -0.00920   -0.00001   -0.03292
 28 Li    0.00377   -0.00377    0.01092
 29 Li    0.00627   -0.00001    0.00969
 30 Li    0.00196   -0.00199   -0.01903
 31 Li    0.00249    0.00000   -0.02139
 32 Li    0.00075    0.00075   -0.03391
 33 Li   -0.00196   -0.00196    0.05839
 34 Li   -0.00155   -0.00155    0.00634
 35 Li   -0.00489   -0.00489   -0.04892
 36 Li    0.00377    0.00377    0.01093
 37 Li    0.00482    0.00482    0.00609
 38 Li    0.00197    0.00197   -0.01904
 39 Li   -0.00705   -0.00705   -0.00624
 40 Li   -0.00427   -0.00001   -0.02939
 41 Li   -0.00194    0.00197    0.05840
 42 Li    0.00011   -0.00001    0.03058
 43 Li   -0.00489    0.00491   -0.04892
 44 Li    0.01483    0.00000    0.00989
 45 Li    0.00482   -0.00481    0.00610
 46 Li    0.00271    0.00000   -0.00892
 47 Li   -0.00705    0.00702   -0.00624
 48 Li   -0.00001    0.00428   -0.02937
 49 Li   -0.00138   -0.00001    0.06016
 50 Li   -0.00000   -0.00012    0.03058
 51 Li    0.00920   -0.00001   -0.03292
 52 Li    0.00000   -0.01483    0.00988
 53 Li   -0.00627   -0.00001    0.00970
 54 Li    0.00000   -0.00270   -0.00890
 55 Li   -0.00249    0.00000   -0.02137
 56 Li   -0.00001   -0.00427   -0.02939
 57 Li    0.00197   -0.00194    0.05840
 58 Li   -0.00001    0.00011    0.03058
 59 Li    0.00491   -0.00489   -0.04892
 60 Li    0.00000    0.01483    0.00989
 61 Li   -0.00481    0.00482    0.00610
 62 Li    0.00000    0.00271   -0.00892
 63 Li    0.00702   -0.00705   -0.00624
 64 Li   -0.00003   -0.00003   -0.02997
 65 Li    0.00196    0.00196    0.05840
 66 Li    0.00002    0.00002    0.00173
 67 Li    0.00490    0.00490   -0.04892
 68 Li    0.00001    0.00001    0.05689
 69 Li   -0.00481   -0.00481    0.00610
 70 Li    0.00000    0.00000    0.01297
 71 Li    0.00703    0.00703   -0.00624
 72 Li   -0.00001   -0.00001   -0.01064

System changes: positions 

Initializing position-dependent things.

Density initialized from wave functions
       .-------------------------.  
      /|                         |  
     / |                         |  
    /  |                         |  
   /   |                         |  
  /    |                         |  
 *     |                         |  
 |     |                         |  
 |     |                         |  
 |     |                         |  
 |     |                         |  
 |     |                         |  
 |     |                         |  
 |     |   Li      Li       Li   |  
 |     |                         |  
 |    LiLi      LLi       Li     Li 
 |     |                         |  
 |   Li|     LLi      Li Li      |  
 |    Li  Li       Li      Li    |  
 |     |    Li  Li  Li       Li  Li 
 |     |Li       Li       Li     |  
 |   Li|      Li  Li  Li         |  
 |    Li  Li   Li  Li   Li  Li   |  
 |     |    Li      Li       Li  |  
 |     |Li       Li       Li     |  
 |   Li|      Li  Li  Li         |  
 |    Li  Li   Li  Li   Li  Li   |  
 | Li  |    Li      Li           |  
 |     |Li       Li       Li     |  
 Li    |  Li      Li             |  
 |   LLi      LLi     LiLi       |  
 |     |                         |  
 | Li  |    Li      Li           |  
 |     |                         |  
 Li    |  Li      Li             |  
 |     |                         |  
 |     |                         |  
 |     |                         |  
 |     |                         |  
 |     |                         |  
 |     .-------------------------.  
 |    /                         /   
 |   /                         /    
 |  /                         /     
 | /                         /      
 |/                         /       
 *-------------------------*        

Atomic positions and initial magnetic moments

Positions:
   0 Li     0.000000    0.000000   10.000000    ( 0.0000,  0.0000,  0.0000)
   1 Li     1.745000    1.745000   11.745000    ( 0.0000,  0.0000,  0.0000)
   2 Li     0.000000    0.000000   13.490000    ( 0.0000,  0.0000,  0.0000)
   3 Li     1.745000    1.745000   15.235000    ( 0.0000,  0.0000,  0.0000)
   4 Li    -0.027474   -0.027474   16.914363    ( 0.0000,  0.0000,  0.0000)
   5 Li     1.744998    1.744998   18.521758    ( 0.0000,  0.0000,  0.0000)
   6 Li    -0.125293   -0.125293   20.322972    ( 0.0000,  0.0000,  0.0000)
   7 Li     1.745009    1.745009   21.396961    ( 0.0000,  0.0000,  0.0000)
   8 Li     0.000000    3.490000   10.000000    ( 0.0000,  0.0000,  0.0000)
   9 Li     1.745000    5.235000   11.745000    ( 0.0000,  0.0000,  0.0000)
  10 Li     0.000000    3.490000   13.490000    ( 0.0000,  0.0000,  0.0000)
  11 Li     1.745000    5.235000   15.235000    ( 0.0000,  0.0000,  0.0000)
  12 Li    -0.027468    3.517462   16.914361    ( 0.0000,  0.0000,  0.0000)
  13 Li     1.744994    5.206698   18.642926    ( 0.0000,  0.0000,  0.0000)
  14 Li    -0.125295    3.615282   20.322964    ( 0.0000,  0.0000,  0.0000)
  15 Li     1.744991    4.842415   22.334383    ( 0.0000,  0.0000,  0.0000)
  16 Li     0.000000    6.980000   10.000000    ( 0.0000,  0.0000,  0.0000)
  17 Li     1.745000    8.725000   11.745000    ( 0.0000,  0.0000,  0.0000)
  18 Li     0.000000    6.980000   13.490000    ( 0.0000,  0.0000,  0.0000)
  19 Li     1.745000    8.725000   15.235000    ( 0.0000,  0.0000,  0.0000)
  20 Li     0.025936    6.980004   16.946447    ( 0.0000,  0.0000,  0.0000)
  21 Li     1.744993    8.753284   18.642935    ( 0.0000,  0.0000,  0.0000)
  22 Li     0.070614    6.980002   20.485685    ( 0.0000,  0.0000,  0.0000)
  23 Li     1.744990    9.117601   22.334388    ( 0.0000,  0.0000,  0.0000)
  24 Li     3.490000    0.000000   10.000000    ( 0.0000,  0.0000,  0.0000)
  25 Li     5.235000    1.745000   11.745000    ( 0.0000,  0.0000,  0.0000)
  26 Li     3.490000    0.000000   13.490000    ( 0.0000,  0.0000,  0.0000)
  27 Li     5.235000    1.745000   15.235000    ( 0.0000,  0.0000,  0.0000)
  28 Li     3.517462   -0.027468   16.914361    ( 0.0000,  0.0000,  0.0000)
  29 Li     5.206698    1.744994   18.642926    ( 0.0000,  0.0000,  0.0000)
  30 Li     3.615282   -0.125295   20.322964    ( 0.0000,  0.0000,  0.0000)
  31 Li     4.842415    1.744991   22.334383    ( 0.0000,  0.0000,  0.0000)
  32 Li     3.490000    3.490000   10.000000    ( 0.0000,  0.0000,  0.0000)
  33 Li     5.235000    5.235000   11.745000    ( 0.0000,  0.0000,  0.0000)
  34 Li     3.490000    3.490000   13.490000    ( 0.0000,  0.0000,  0.0000)
  35 Li     5.235000    5.235000   15.235000    ( 0.0000,  0.0000,  0.0000)
  36 Li     3.517458    3.517458   16.914364    ( 0.0000,  0.0000,  0.0000)
  37 Li     5.307269    5.307269   18.619679    ( 0.0000,  0.0000,  0.0000)
  38 Li     3.615285    3.615285   20.322959    ( 0.0000,  0.0000,  0.0000)
  39 Li     5.245324    5.245324   22.286398    ( 0.0000,  0.0000,  0.0000)
  40 Li     3.490000    6.980000   10.000000    ( 0.0000,  0.0000,  0.0000)
  41 Li     5.235000    8.725000   11.745000    ( 0.0000,  0.0000,  0.0000)
  42 Li     3.490000    6.980000   13.490000    ( 0.0000,  0.0000,  0.0000)
  43 Li     5.235000    8.725000   15.235000    ( 0.0000,  0.0000,  0.0000)
  44 Li     3.464070    6.980004   16.946464    ( 0.0000,  0.0000,  0.0000)
  45 Li     5.307286    8.652745   18.619676    ( 0.0000,  0.0000,  0.0000)
  46 Li     3.419382    6.980001   20.485685    ( 0.0000,  0.0000,  0.0000)
  47 Li     5.245323    8.714653   22.286400    ( 0.0000,  0.0000,  0.0000)
  48 Li     6.980000    0.000000   10.000000    ( 0.0000,  0.0000,  0.0000)
  49 Li     8.725000    1.745000   11.745000    ( 0.0000,  0.0000,  0.0000)
  50 Li     6.980000    0.000000   13.490000    ( 0.0000,  0.0000,  0.0000)
  51 Li     8.725000    1.745000   15.235000    ( 0.0000,  0.0000,  0.0000)
  52 Li     6.980004    0.025936   16.946447    ( 0.0000,  0.0000,  0.0000)
  53 Li     8.753284    1.744993   18.642935    ( 0.0000,  0.0000,  0.0000)
  54 Li     6.980002    0.070614   20.485685    ( 0.0000,  0.0000,  0.0000)
  55 Li     9.117601    1.744990   22.334388    ( 0.0000,  0.0000,  0.0000)
  56 Li     6.980000    3.490000   10.000000    ( 0.0000,  0.0000,  0.0000)
  57 Li     8.725000    5.235000   11.745000    ( 0.0000,  0.0000,  0.0000)
  58 Li     6.980000    3.490000   13.490000    ( 0.0000,  0.0000,  0.0000)
  59 Li     8.725000    5.235000   15.235000    ( 0.0000,  0.0000,  0.0000)
  60 Li     6.980004    3.464070   16.946464    ( 0.0000,  0.0000,  0.0000)
  61 Li     8.652745    5.307286   18.619676    ( 0.0000,  0.0000,  0.0000)
  62 Li     6.980001    3.419382   20.485685    ( 0.0000,  0.0000,  0.0000)
  63 Li     8.714653    5.245323   22.286400    ( 0.0000,  0.0000,  0.0000)
  64 Li     6.980000    6.980000   10.000000    ( 0.0000,  0.0000,  0.0000)
  65 Li     8.725000    8.725000   11.745000    ( 0.0000,  0.0000,  0.0000)
  66 Li     6.980000    6.980000   13.490000    ( 0.0000,  0.0000,  0.0000)
  67 Li     8.725000    8.725000   15.235000    ( 0.0000,  0.0000,  0.0000)
  68 Li     6.980006    6.980006   16.811156    ( 0.0000,  0.0000,  0.0000)
  69 Li     8.652727    8.652727   18.619672    ( 0.0000,  0.0000,  0.0000)
  70 Li     6.980001    6.980001   20.483290    ( 0.0000,  0.0000,  0.0000)
  71 Li     8.714659    8.714659   22.286404    ( 0.0000,  0.0000,  0.0000)
  72 Li     1.745001    1.745001   23.980812    ( 0.0000,  0.0000,  0.0000)

Unit cell:
           periodic     x           y           z      points  spacing
  1. axis:    yes   10.470000    0.000000    0.000000    35     0.2991
  2. axis:    yes    0.000000   10.470000    0.000000    35     0.2991
  3. axis:    no     0.000000    0.000000   32.215000   108     0.2983

  Lengths:  10.470000  10.470000  32.215000
  Angles:   90.000000  90.000000  90.000000

Effective grid spacing dv^(1/3) = 0.2989

     iter     time        total  log10-change:
                         energy   eigst   dens
iter:   1 23:49:01  -131.420239   -2.99
iter:   2 23:49:05  -131.559948   -2.24  -1.56
iter:   3 23:49:09  -131.351937   -3.26  -1.32
iter:   4 23:49:14  -131.354001   -3.47  -2.38
iter:   5 23:49:18  -131.352202c  -4.29  -2.33
iter:   6 23:49:22  -131.351982c  -5.15  -2.79
iter:   7 23:49:26  -131.351845c  -5.46c -3.03
iter:   8 23:49:31  -131.351692c  -5.78c -3.26
iter:   9 23:49:35  -131.351762c  -5.92c -3.50
iter:  10 23:49:39  -131.351876c  -6.32c -3.48
iter:  11 23:49:43  -131.351850c  -6.67c -3.61
iter:  12 23:49:47  -131.351788c  -6.55c -3.82
iter:  13 23:49:52  -131.351855c  -6.95c -3.81
iter:  14 23:49:56  -131.351854c  -7.31c -4.04c

Converged after 14 iterations.

Dipole moment: (2.868269, 2.868269, 0.277856) |e|*Ang

Energy contributions relative to reference atoms: (reference = -14803.510878)

Kinetic:       +102.304863
Potential:      -91.982832
External:        +0.000000
XC:            -140.577192
Entropy (-ST):   -1.215575
Local:           -0.488906
SIC:             +0.000000
--------------------------
Free energy:   -131.959641
Extrapolated:  -131.351854

Showing all kpts
 Kpt  Band  Eigenvalues  Occupancy
  0    34     -1.58323    1.61062
  0    35     -1.56751    1.55896
  0    36     -1.38626    0.73176
  0    37     -1.34484    0.55212

  1    34     -1.58323    1.61063
  1    35     -1.56751    1.55896
  1    36     -1.38626    0.73176
  1    37     -1.34484    0.55212


Fermi level: -1.44125

Gap: 0.181 eV
Transition (v -> c):
  (s=0, k=1, n=35, [0.25, 0.25, 0.00]) -> (s=0, k=0, n=36, [0.25, -0.25, 0.00])
Direct/indirect transitions are different
Direct gap: 0.181 eV
Transition at: (s=0, k=1, n=35, [0.25, 0.25, 0.00])

Forces in eV/Ang:
  0 Li   -0.00071   -0.00071   -0.03378
  1 Li    0.00003    0.00003    0.06263
  2 Li    0.00151    0.00151    0.00600
  3 Li   -0.00001   -0.00001   -0.00618
  4 Li   -0.00313   -0.00313    0.01013
  5 Li   -0.00001   -0.00001   -0.01805
  6 Li   -0.00448   -0.00448   -0.02261
  7 Li    0.00000    0.00000   -0.04647
  8 Li   -0.00072    0.00074   -0.03379
  9 Li   -0.00001    0.00126    0.06019
 10 Li    0.00154   -0.00149    0.00602
 11 Li   -0.00001   -0.00814   -0.03096
 12 Li   -0.00313    0.00311    0.01013
 13 Li   -0.00001    0.00636    0.01120
 14 Li   -0.00449    0.00446   -0.02262
 15 Li    0.00000    0.00278   -0.01788
 16 Li    0.00417   -0.00002   -0.02939
 17 Li   -0.00001   -0.00127    0.06016
 18 Li   -0.00009   -0.00000    0.02997
 19 Li   -0.00001    0.00815   -0.03096
 20 Li   -0.01207    0.00000    0.00605
 21 Li   -0.00001   -0.00637    0.01122
 22 Li   -0.00302   -0.00000   -0.01299
 23 Li    0.00000   -0.00277   -0.01786
 24 Li    0.00074   -0.00072   -0.03379
 25 Li    0.00126   -0.00001    0.06019
 26 Li   -0.00149    0.00154    0.00602
 27 Li   -0.00814   -0.00001   -0.03096
 28 Li    0.00311   -0.00313    0.01013
 29 Li    0.00636   -0.00001    0.01120
 30 Li    0.00446   -0.00449   -0.02262
 31 Li    0.00278    0.00000   -0.01788
 32 Li    0.00074    0.00074   -0.03380
 33 Li   -0.00187   -0.00187    0.05861
 34 Li   -0.00152   -0.00152    0.00603
 35 Li   -0.00294   -0.00294   -0.04728
 36 Li    0.00312    0.00312    0.01014
 37 Li    0.00074    0.00074    0.01353
 38 Li    0.00447    0.00447   -0.02262
 39 Li   -0.00728   -0.00728   -0.00442
 40 Li   -0.00416   -0.00002   -0.02940
 41 Li   -0.00184    0.00187    0.05862
 42 Li    0.00008   -0.00000    0.02995
 43 Li   -0.00294    0.00296   -0.04728
 44 Li    0.01207    0.00001    0.00607
 45 Li    0.00075   -0.00072    0.01353
 46 Li    0.00303   -0.00000   -0.01300
 47 Li   -0.00728    0.00725   -0.00442
 48 Li   -0.00002    0.00417   -0.02939
 49 Li   -0.00127   -0.00001    0.06016
 50 Li   -0.00000   -0.00009    0.02997
 51 Li    0.00815   -0.00001   -0.03096
 52 Li    0.00000   -0.01207    0.00605
 53 Li   -0.00637   -0.00001    0.01122
 54 Li   -0.00000   -0.00302   -0.01299
 55 Li   -0.00277    0.00000   -0.01786
 56 Li   -0.00002   -0.00416   -0.02940
 57 Li    0.00187   -0.00184    0.05862
 58 Li   -0.00000    0.00008    0.02995
 59 Li    0.00296   -0.00294   -0.04728
 60 Li    0.00001    0.01207    0.00607
 61 Li   -0.00072    0.00075    0.01353
 62 Li   -0.00000    0.00303   -0.01300
 63 Li    0.00725   -0.00728   -0.00442
 64 Li   -0.00002   -0.00002   -0.03013
 65 Li    0.00185    0.00185    0.05863
 66 Li    0.00001    0.00001    0.00278
 67 Li    0.00296    0.00296   -0.04728
 68 Li    0.00001    0.00001    0.03905
 69 Li   -0.00073   -0.00073    0.01353
 70 Li    0.00000    0.00000    0.00798
 71 Li    0.00726    0.00726   -0.00442
 72 Li   -0.00000   -0.00000    0.00056

Timing:                                      incl.     excl.
-------------------------------------------------------------------
Density initialized from wave functions:    19.609    19.546   0.5% |
 Symmetrize density:                         0.063     0.063   0.0% |
Forces:                                     91.758    91.758   2.5% ||
Hamiltonian:                                37.514     0.073   0.0% |
 Atomic:                                    20.409     0.079   0.0% |
  XC Correction:                            20.330    20.330   0.5% |
 Calculate atomic Hamiltonians:             11.876    11.876   0.3% |
 Communicate:                                0.000     0.000   0.0% |
 Initialize Hamiltonian:                     0.002     0.002   0.0% |
 Poisson:                                    0.106     0.106   0.0% |
 XC 3D grid:                                 5.047     5.047   0.1% |
LCAO initialization:                        13.397     0.021   0.0% |
 LCAO eigensolver:                           0.717     0.002   0.0% |
  Calculate projections:                     0.005     0.005   0.0% |
  DenseAtomicCorrection:                     0.055     0.055   0.0% |
  Distribute overlap matrix:                 0.001     0.001   0.0% |
  Orbital Layouts:                           0.098     0.098   0.0% |
  Potential matrix:                          0.549     0.549   0.0% |
  Sum over cells:                            0.008     0.008   0.0% |
 LCAO to grid:                              11.614    11.614   0.3% |
 Set positions (LCAO WFS):                   1.044     0.292   0.0% |
  Basic WFS set positions:                   0.003     0.003   0.0% |
  Basis functions set positions:             0.000     0.000   0.0% |
  P tci:                                     0.502     0.502   0.0% |
  ST tci:                                    0.202     0.202   0.0% |
  mktci:                                     0.045     0.045   0.0% |
PWDescriptor:                                0.010     0.010   0.0% |
Redistribute:                                0.073     0.073   0.0% |
SCF-cycle:                                2027.451     0.352   0.0% |
 Davidson:                                1115.189   227.863   6.1% |-|
  Apply H:                                 189.148   187.016   5.0% |-|
   HMM T:                                    2.131     2.131   0.1% |
  Subspace diag:                           218.167     0.217   0.0% |
   calc_h_matrix:                          200.912    13.031   0.4% |
    Apply H:                               187.881   185.417   5.0% |-|
     HMM T:                                  2.464     2.464   0.1% |
   diagonalize:                              0.839     0.839   0.0% |
   rotate_psi:                              16.198    16.198   0.4% |
  calc. matrices:                          441.495    63.593   1.7% ||
   Apply H:                                377.902   373.621  10.1% |---|
    HMM T:                                   4.281     4.281   0.1% |
  diagonalize:                               6.138     6.138   0.2% |
  rotate_psi:                               32.379    32.379   0.9% |
 Density:                                  280.761     0.007   0.0% |
  Atomic density matrices:                   1.544     1.544   0.0% |
  Mix:                                     184.895   184.895   5.0% |-|
  Multipole moments:                         0.319     0.319   0.0% |
  Pseudo density:                           93.997    92.981   2.5% ||
   Symmetrize density:                       1.016     1.016   0.0% |
 Hamiltonian:                              626.841     1.026   0.0% |
  Atomic:                                  341.300     1.281   0.0% |
   XC Correction:                          340.019   340.019   9.2% |---|
  Calculate atomic Hamiltonians:           202.960   202.960   5.5% |-|
  Communicate:                               0.003     0.003   0.0% |
  Poisson:                                   0.743     0.743   0.0% |
  XC 3D grid:                               80.808    80.808   2.2% ||
 Orthonormalize:                             4.307     0.009   0.0% |
  calc_s_matrix:                             0.399     0.399   0.0% |
  inverse-cholesky:                          0.023     0.023   0.0% |
  projections:                               3.261     3.261   0.1% |
  rotate_psi_s:                              0.615     0.615   0.0% |
Set symmetry:                                0.001     0.001   0.0% |
Other:                                    1520.738  1520.738  41.0% |---------------|
-------------------------------------------------------------------
Total:                                              3710.550 100.0%

Memory usage: 4.13 GiB
Date: Tue Nov 25 00:14:31 2025
