
  ___ ___ ___ _ _ _  
 |   |   |_  | | | | 
 | | | | | . | | | | 
 |__ |  _|___|_____|  25.7.0
 |___|_|             

User:   tew@Mathuss-MacBook-Air-357.local
Date:   Tue Nov 25 02:13:32 2025
Arch:   arm64
Pid:    76608
CWD:    /Users/tew/Documents/Project/GitHub/chem-com
Python: 3.13.5
gpaw:   /Users/tew/Documents/Project/GitHub/chem-com/.venv/lib/python3.13/site-packages/gpaw
_gpaw:  /Users/tew/Documents/Project/GitHub/chem-com/.venv/lib/python3.13/site-packages/
        _gpaw.cpython-313-darwin.so
ase:    /Users/tew/Documents/Project/GitHub/chem-com/.venv/lib/python3.13/site-packages/ase (version 3.26.0)
numpy:  /Users/tew/Documents/Project/GitHub/chem-com/.venv/lib/python3.13/site-packages/numpy (version 2.3.5)
scipy:  /Users/tew/Documents/Project/GitHub/chem-com/.venv/lib/python3.13/site-packages/scipy (version 1.16.3)
libxc:  2.x.y
units:  Angstrom and eV
cores: 1
OpenMP: False
OMP_NUM_THREADS: 1

Input parameters:
  convergence: {density: 0.0001,
                eigenstates: 5e-06}
  kpts: [2 2 1]
  mode: {ecut: 200.0,
         name: pw}
  xc: PBE

System changes: positions, numbers, cell, pbc, initial_charges, initial_magmoms 

Initialize ...

species:
  Li:
    name: Lithium
    id: 830b4218f175192f93f959cfc0aad614
    Z: 3.0
    valence: 1
    core: 2
    charge: 0.0
    file: /Users/tew/Documents/Project/GitHub/chem-com/.venv/lib/python3.13/site-packages/gpaw_data/setups/Li.PBE.gz
    compensation charges: {type: gauss,
                           rc: 0.33,
                           lmax: 2}
    cutoffs: {filter: 1.91,
              core: 2.55}
    projectors:
      #              energy  rcut
      - 2s(1.00)    -2.874   1.058
      - 2p(0.00)    -1.090   1.058
      -  s          24.337   1.058
  
    # Using partial waves for Li as LCAO basis

Reference energy: -14803.510878  # eV

Spin-paired calculation

Convergence criteria:
 Maximum [total energy] change in last 3 cyles: 0.0005 eV / valence electron
 Maximum integral of absolute [dens]ity change: 0.0001 electrons / valence electron
 Maximum integral of absolute [eigenst]ate change: 5e-06 eV^2 / valence electron
 Maximum number of scf [iter]ations: 333
 (Square brackets indicate name in SCF output, whereas a 'c' in
 the SCF output indicates the quantity has converged.)

Symmetries present (total): 2

  ( 1  0  0)  ( 1  0  0)
  ( 0  1  0)  ( 0 -1  0)
  ( 0  0  1)  ( 0  0  1)

4 k-points: 2 x 2 x 1 Monkhorst-Pack grid
1 k-point in the irreducible part of the Brillouin zone
       k-points in crystal coordinates                weights
   0:     0.25000000    0.25000000    0.00000000          4/4

Wave functions: Plane wave expansion
  Cutoff energy: 200.000 eV
  Number of coefficients (min, max): 27323, 27323
  Pulay-stress correction: 0.000000 eV/Ang^3 (de/decut=0.000000)
  Using Numpy's FFT
  ScaLapack parameters: grid=1x1, blocksize=None
  Wavefunction extrapolation:
    Improved wavefunction reuse through dual PAW basis 

Occupation numbers: Fermi-Dirac:
  width: 0.1000  # eV
 

Eigensolver
   Davidson(niter=2) 

Densities:
  Coarse grid: 49*35*90 grid
  Fine grid: 98*70*180 grid
  Total Charge: 0.000000 

Density mixing:
  Method: separate
  Backend: pulay
  Linear mixing parameter: 0.05
  old densities: 5
  Damping of long wavelength oscillations: 50 

Hamiltonian:
  XC and Coulomb potentials evaluated on a 98*70*180 grid
  Using the PBE Exchange-Correlation functional
  External potential:
    NoExternalPotential
 

XC parameters: PBE with 2 nearest neighbor stencil

Memory estimate:
  Process memory now: 4231.58 MiB
  Calculator: 142.34 MiB
    Density: 71.24 MiB
      Arrays: 30.62 MiB
      Localized functions: 28.85 MiB
      Mixer: 11.78 MiB
    Hamiltonian: 20.61 MiB
      Arrays: 20.02 MiB
      XC: 0.00 MiB
      Poisson: 0.00 MiB
      vbar: 0.59 MiB
    Wavefunctions: 50.49 MiB
      Arrays psit_nG: 20.01 MiB
      Eigensolver: 22.45 MiB
      Projections: 0.27 MiB
      Projectors: 1.46 MiB
      PW-descriptor: 6.30 MiB

Total number of cores used: 1

Number of atoms: 73
Number of atomic orbitals: 292
Number of bands in calculation: 48
Number of valence electrons: 73
Bands to converge: occupied

... initialized

Initializing position-dependent things.

Density initialized from atomic densities
Creating initial wave functions:
  48 bands from LCAO basis set

       .-----------------------------------.  
      /|                                   |  
     / |                                   |  
    /  |                                   |  
   /   |                                   |  
  /    |                                   |  
 *     |                                   |  
 |     |                                   |  
 |     |                                   |  
 |     |                                   |  
 |     |                                   |  
 |     |                                   |  
 |     |                                   |  
 |    Li          Li          Li           |  
 |     |   Li          Li          Li      |  
 |  Li |        Li          Li             |  
 |     LiLi Li       Li Li       Li Li     |  
 |Li Li|      Li Li       Li Li            |  
 |     Li Li       Li Li       Li Li       |  
 | Li  |       Li          Li              |  
 |    LiLi        LiLi        LiLi         |  
 Li    |   LiLi        LiLi        Li      |  
 |  Li |        Li          Li             |  
 |     | Li Li       Li Li       Li Li     |  
 |Li Li|      Li Li       Li Li            |  
 |     Li Li       Li Li       Li Li       |  
 | Li  |       Li          Li              |  
 |     |Li          Li          Li         |  
 Li    |     Li          Li                |  
 |     |                                   |  
 |     |                                   |  
 |     |                                   |  
 |     |                                   |  
 |     |                                   |  
 |     .-----------------------------------.  
 |    /                                   /   
 |   /                                   /    
 |  /                                   /     
 | /                                   /      
 |/                                   /       
 *-----------------------------------*        

Atomic positions and initial magnetic moments

Positions:
   0 Li     0.000000    0.000000   10.000000    ( 0.0000,  0.0000,  0.0000)
   1 Li     2.467803    1.745000   10.000000    ( 0.0000,  0.0000,  0.0000)
   2 Li     2.467803    0.000000   12.467803    ( 0.0000,  0.0000,  0.0000)
   3 Li     0.000000    1.745000   12.467803    ( 0.0000,  0.0000,  0.0000)
   4 Li     0.000000    0.000000   14.935605    ( 0.0000,  0.0000,  0.0000)
   5 Li     2.467803    1.745000   14.935605    ( 0.0000,  0.0000,  0.0000)
   6 Li     2.467803    0.000000   17.403408    ( 0.0000,  0.0000,  0.0000)
   7 Li     0.000000    1.745000   17.403408    ( 0.0000,  0.0000,  0.0000)
   8 Li     0.000000    3.490000   10.000000    ( 0.0000,  0.0000,  0.0000)
   9 Li     2.467803    5.235000   10.000000    ( 0.0000,  0.0000,  0.0000)
  10 Li     2.467803    3.490000   12.467803    ( 0.0000,  0.0000,  0.0000)
  11 Li     0.000000    5.235000   12.467803    ( 0.0000,  0.0000,  0.0000)
  12 Li     0.000000    3.490000   14.935605    ( 0.0000,  0.0000,  0.0000)
  13 Li     2.467803    5.235000   14.935605    ( 0.0000,  0.0000,  0.0000)
  14 Li     2.467803    3.490000   17.403408    ( 0.0000,  0.0000,  0.0000)
  15 Li     0.000000    5.235000   17.403408    ( 0.0000,  0.0000,  0.0000)
  16 Li     0.000000    6.980000   10.000000    ( 0.0000,  0.0000,  0.0000)
  17 Li     2.467803    8.725000   10.000000    ( 0.0000,  0.0000,  0.0000)
  18 Li     2.467803    6.980000   12.467803    ( 0.0000,  0.0000,  0.0000)
  19 Li     0.000000    8.725000   12.467803    ( 0.0000,  0.0000,  0.0000)
  20 Li     0.000000    6.980000   14.935605    ( 0.0000,  0.0000,  0.0000)
  21 Li     2.467803    8.725000   14.935605    ( 0.0000,  0.0000,  0.0000)
  22 Li     2.467803    6.980000   17.403408    ( 0.0000,  0.0000,  0.0000)
  23 Li     0.000000    8.725000   17.403408    ( 0.0000,  0.0000,  0.0000)
  24 Li     4.935605    0.000000   10.000000    ( 0.0000,  0.0000,  0.0000)
  25 Li     7.403408    1.745000   10.000000    ( 0.0000,  0.0000,  0.0000)
  26 Li     7.403408    0.000000   12.467803    ( 0.0000,  0.0000,  0.0000)
  27 Li     4.935605    1.745000   12.467803    ( 0.0000,  0.0000,  0.0000)
  28 Li     4.935605    0.000000   14.935605    ( 0.0000,  0.0000,  0.0000)
  29 Li     7.403408    1.745000   14.935605    ( 0.0000,  0.0000,  0.0000)
  30 Li     7.403408    0.000000   17.403408    ( 0.0000,  0.0000,  0.0000)
  31 Li     4.935605    1.745000   17.403408    ( 0.0000,  0.0000,  0.0000)
  32 Li     4.935605    3.490000   10.000000    ( 0.0000,  0.0000,  0.0000)
  33 Li     7.403408    5.235000   10.000000    ( 0.0000,  0.0000,  0.0000)
  34 Li     7.403408    3.490000   12.467803    ( 0.0000,  0.0000,  0.0000)
  35 Li     4.935605    5.235000   12.467803    ( 0.0000,  0.0000,  0.0000)
  36 Li     4.935605    3.490000   14.935605    ( 0.0000,  0.0000,  0.0000)
  37 Li     7.403408    5.235000   14.935605    ( 0.0000,  0.0000,  0.0000)
  38 Li     7.403408    3.490000   17.403408    ( 0.0000,  0.0000,  0.0000)
  39 Li     4.935605    5.235000   17.403408    ( 0.0000,  0.0000,  0.0000)
  40 Li     4.935605    6.980000   10.000000    ( 0.0000,  0.0000,  0.0000)
  41 Li     7.403408    8.725000   10.000000    ( 0.0000,  0.0000,  0.0000)
  42 Li     7.403408    6.980000   12.467803    ( 0.0000,  0.0000,  0.0000)
  43 Li     4.935605    8.725000   12.467803    ( 0.0000,  0.0000,  0.0000)
  44 Li     4.935605    6.980000   14.935605    ( 0.0000,  0.0000,  0.0000)
  45 Li     7.403408    8.725000   14.935605    ( 0.0000,  0.0000,  0.0000)
  46 Li     7.403408    6.980000   17.403408    ( 0.0000,  0.0000,  0.0000)
  47 Li     4.935605    8.725000   17.403408    ( 0.0000,  0.0000,  0.0000)
  48 Li     9.871211    0.000000   10.000000    ( 0.0000,  0.0000,  0.0000)
  49 Li    12.339013    1.745000   10.000000    ( 0.0000,  0.0000,  0.0000)
  50 Li    12.339013    0.000000   12.467803    ( 0.0000,  0.0000,  0.0000)
  51 Li     9.871211    1.745000   12.467803    ( 0.0000,  0.0000,  0.0000)
  52 Li     9.871211    0.000000   14.935605    ( 0.0000,  0.0000,  0.0000)
  53 Li    12.339013    1.745000   14.935605    ( 0.0000,  0.0000,  0.0000)
  54 Li    12.339013    0.000000   17.403408    ( 0.0000,  0.0000,  0.0000)
  55 Li     9.871211    1.745000   17.403408    ( 0.0000,  0.0000,  0.0000)
  56 Li     9.871211    3.490000   10.000000    ( 0.0000,  0.0000,  0.0000)
  57 Li    12.339013    5.235000   10.000000    ( 0.0000,  0.0000,  0.0000)
  58 Li    12.339013    3.490000   12.467803    ( 0.0000,  0.0000,  0.0000)
  59 Li     9.871211    5.235000   12.467803    ( 0.0000,  0.0000,  0.0000)
  60 Li     9.871211    3.490000   14.935605    ( 0.0000,  0.0000,  0.0000)
  61 Li    12.339013    5.235000   14.935605    ( 0.0000,  0.0000,  0.0000)
  62 Li    12.339013    3.490000   17.403408    ( 0.0000,  0.0000,  0.0000)
  63 Li     9.871211    5.235000   17.403408    ( 0.0000,  0.0000,  0.0000)
  64 Li     9.871211    6.980000   10.000000    ( 0.0000,  0.0000,  0.0000)
  65 Li    12.339013    8.725000   10.000000    ( 0.0000,  0.0000,  0.0000)
  66 Li    12.339013    6.980000   12.467803    ( 0.0000,  0.0000,  0.0000)
  67 Li     9.871211    8.725000   12.467803    ( 0.0000,  0.0000,  0.0000)
  68 Li     9.871211    6.980000   14.935605    ( 0.0000,  0.0000,  0.0000)
  69 Li    12.339013    8.725000   14.935605    ( 0.0000,  0.0000,  0.0000)
  70 Li    12.339013    6.980000   17.403408    ( 0.0000,  0.0000,  0.0000)
  71 Li     9.871211    8.725000   17.403408    ( 0.0000,  0.0000,  0.0000)
  72 Li     2.467803    0.000000   19.403408    ( 0.0000,  0.0000,  0.0000)

Unit cell:
           periodic     x           y           z      points  spacing
  1. axis:    yes   14.806816    0.000000    0.000000    49     0.3022
  2. axis:    yes    0.000000   10.470000    0.000000    35     0.2991
  3. axis:    no     0.000000    0.000000   27.403408    90     0.3045

  Lengths:  14.806816  10.470000  27.403408
  Angles:   90.000000  90.000000  90.000000

Effective grid spacing dv^(1/3) = 0.3019

     iter     time        total  log10-change:
                         energy   eigst   dens
iter:   1 02:13:41  -134.471223
iter:   2 02:13:43  -130.357833   -0.89  -0.57
iter:   3 02:13:45  -128.945977   -1.06  -0.73
iter:   4 02:13:47  -129.228331   -1.54  -0.89
iter:   5 02:13:49  -128.917641   -1.87  -0.90
iter:   6 02:13:52  -127.979888   -1.50  -0.94
iter:   7 02:13:54  -128.025740   -2.13  -1.30
iter:   8 02:13:56  -127.904313   -2.24  -1.27
iter:   9 02:13:58  -127.902201   -2.84  -1.51
iter:  10 02:14:01  -127.875153c  -2.91  -1.64
iter:  11 02:14:03  -127.873464c  -3.30  -1.97
iter:  12 02:14:06  -127.873571c  -3.39  -2.08
iter:  13 02:14:08  -127.872926c  -3.72  -2.23
iter:  14 02:14:10  -127.872318c  -3.87  -2.32
iter:  15 02:14:13  -127.872195c  -4.11  -2.38
iter:  16 02:14:15  -127.872496c  -4.22  -2.52
iter:  17 02:14:18  -127.872094c  -4.35  -2.77
iter:  18 02:14:20  -127.872092c  -4.61  -2.91
iter:  19 02:14:23  -127.872035c  -4.67  -3.01
iter:  20 02:14:25  -127.871856c  -4.82  -3.16
iter:  21 02:14:28  -127.871860c  -4.99  -3.27
iter:  22 02:14:31  -127.871837c  -5.20  -3.35
iter:  23 02:14:34  -127.871719c  -5.08  -3.39
iter:  24 02:14:37  -127.871695c  -5.23  -3.55
iter:  25 02:14:41  -127.871643c  -5.29  -3.64
iter:  26 02:14:47  -127.871560c  -5.17  -3.67
iter:  27 02:14:58  -127.871468c  -5.15  -3.75
iter:  28 02:15:10  -127.871399c  -5.11  -3.86
iter:  29 02:15:23  -127.871297c  -5.23  -3.86
iter:  30 02:15:34  -127.871185c  -5.15  -3.97
iter:  31 02:15:43  -127.871083c  -5.07  -3.98
iter:  32 02:15:51  -127.870909c  -4.81  -3.96
iter:  33 02:16:00  -127.870737c  -4.80  -3.80
iter:  34 02:16:06  -127.870579c  -4.93  -3.89
iter:  35 02:16:11  -127.870435c  -4.98  -3.87
iter:  36 02:16:16  -127.870191c  -4.69  -3.82
iter:  37 02:16:23  -127.869974c  -4.78  -3.75
iter:  38 02:16:27  -127.869761c  -4.72  -3.67
iter:  39 02:16:33  -127.869591c  -4.87  -3.54
iter:  40 02:16:37  -127.869445c  -5.04  -3.62
iter:  41 02:16:43  -127.869157c  -4.57  -3.60
iter:  42 02:16:47  -127.868955c  -4.79  -3.55
iter:  43 02:16:52  -127.868783c  -4.91  -3.47
iter:  44 02:16:56  -127.868644c  -4.99  -3.52
iter:  45 02:17:01  -127.868522c  -5.11  -3.46
iter:  46 02:17:06  -127.868349c  -4.73  -3.48
iter:  47 02:17:10  -127.868185c  -4.93  -3.46
iter:  48 02:17:15  -127.868077c  -5.09  -3.48
iter:  49 02:17:19  -127.867966c  -5.12  -3.39
iter:  50 02:17:24  -127.867845c  -5.08  -3.51
iter:  51 02:17:28  -127.867773c  -4.88  -3.41
iter:  52 02:17:33  -127.867705c  -5.36c -3.57
iter:  53 02:17:38  -127.867646c  -4.98  -3.55
iter:  54 02:17:42  -127.867523c  -5.00  -3.64
iter:  55 02:17:47  -127.867493c  -5.23  -3.68
iter:  56 02:17:51  -127.867448c  -5.48c -3.77
iter:  57 02:17:56  -127.867363c  -5.26  -3.71
iter:  58 02:18:00  -127.867333c  -5.72c -3.83
iter:  59 02:18:05  -127.867246c  -5.33c -3.80
iter:  60 02:18:16  -127.867224c  -5.72c -3.75
iter:  61 02:18:21  -127.867201c  -5.37c -3.78
iter:  62 02:18:27  -127.867182c  -5.92c -3.87
iter:  63 02:18:33  -127.867187c  -5.43c -3.85
iter:  64 02:18:39  -127.867153c  -5.69c -3.95
iter:  65 02:18:45  -127.867131c  -5.92c -4.05c

Converged after 65 iterations.

Dipole moment: (-0.127616, 0.000000, 0.224494) |e|*Ang

Energy contributions relative to reference atoms: (reference = -14803.510878)

Kinetic:       +108.995271
Potential:      -96.100400
External:        +0.000000
XC:            -139.584004
Entropy (-ST):   -1.415276
Local:           -0.470361
SIC:             +0.000000
--------------------------
Free energy:   -128.574769
Extrapolated:  -127.867131

 Band  Eigenvalues  Occupancy
    0     -5.10088    2.00000
    1     -4.84114    2.00000
    2     -4.58105    2.00000
    3     -4.52949    2.00000
    4     -4.32468    2.00000
    5     -4.32103    2.00000
    6     -4.26735    2.00000
    7     -4.01162    2.00000
    8     -3.80851    2.00000
    9     -3.75994    2.00000
   10     -3.74135    2.00000
   11     -3.54858    2.00000
   12     -3.53268    2.00000
   13     -3.49598    2.00000
   14     -3.28720    2.00000
   15     -3.25148    2.00000
   16     -3.22206    2.00000
   17     -3.03475    1.99999
   18     -2.98898    1.99998
   19     -2.96772    1.99997
   20     -2.95500    1.99997
   21     -2.79493    1.99985
   22     -2.75636    1.99978
   23     -2.72345    1.99970
   24     -2.68128    1.99954
   25     -2.55126    1.99832
   26     -2.48471    1.99673
   27     -2.33275    1.98515
   28     -2.28360    1.97584
   29     -2.20286    1.94664
   30     -2.05604    1.78731
   31     -2.02007    1.70866
   32     -1.99700    1.64643
   33     -1.95457    1.50574
   34     -1.94603    1.47329
   35     -1.92542    1.38952
   36     -1.86679    1.11756
   37     -1.78325    0.70904
   38     -1.74562    0.54754
   39     -1.71280    0.42709
   40     -1.68921    0.35317
   41     -1.56223    0.11364
   42     -1.53782    0.09013
   43     -1.50980    0.06886
   44     -1.48889    0.05624
   45     -1.47577    0.04949
   46     -1.43802    0.03420
   47     -1.38670    0.02061

Fermi level: -1.84317

Gap: 0.084 eV
Transition (v -> c):
  (s=0, k=0, n=36, [0.25, 0.25, 0.00]) -> (s=0, k=0, n=37, [0.25, 0.25, 0.00])
No difference between direct/indirect transitions

Forces in eV/Ang:
  0 Li    0.00258    0.00000    0.09443
  1 Li   -0.00000   -0.00268    0.09617
  2 Li   -0.00000    0.00000   -0.02498
  3 Li   -0.00373   -0.00072   -0.04357
  4 Li   -0.00500    0.00000    0.00054
  5 Li    0.00000    0.00307   -0.01100
  6 Li    0.00000    0.00000   -1.98463
  7 Li    0.12567   -0.08644    0.02368
  8 Li   -0.00083   -0.00221    0.08983
  9 Li    0.00000    0.00000    0.09056
 10 Li   -0.00000    0.00066   -0.04615
 11 Li    0.00179    0.00000   -0.04352
 12 Li   -0.00456   -0.00042    0.03079
 13 Li   -0.00000    0.00000    0.04695
 14 Li   -0.00000   -0.13253    0.00142
 15 Li   -0.00390    0.00000   -0.09352
 16 Li   -0.00083    0.00221    0.08983
 17 Li   -0.00000    0.00268    0.09617
 18 Li   -0.00000   -0.00066   -0.04615
 19 Li   -0.00373    0.00072   -0.04357
 20 Li   -0.00456    0.00042    0.03079
 21 Li    0.00000   -0.00307   -0.01100
 22 Li   -0.00000    0.13253    0.00142
 23 Li    0.12567    0.08644    0.02368
 24 Li   -0.00257    0.00000    0.09442
 25 Li    0.00393   -0.00012    0.08834
 26 Li   -0.00129    0.00000   -0.04238
 27 Li    0.00373   -0.00071   -0.04358
 28 Li    0.00500    0.00000    0.00054
 29 Li   -0.00469    0.00209    0.04010
 30 Li   -0.01875    0.00000   -0.07143
 31 Li   -0.12567   -0.08645    0.02367
 32 Li    0.00084   -0.00221    0.08983
 33 Li    0.00483    0.00000    0.08908
 34 Li    0.00226    0.00040   -0.03995
 35 Li   -0.00178    0.00000   -0.04352
 36 Li    0.00455   -0.00042    0.03079
 37 Li   -0.00475    0.00000    0.04378
 38 Li    0.00671   -0.00037   -0.09455
 39 Li    0.00390    0.00000   -0.09351
 40 Li    0.00084    0.00221    0.08983
 41 Li    0.00393    0.00012    0.08834
 42 Li    0.00226   -0.00040   -0.03995
 43 Li    0.00373    0.00071   -0.04358
 44 Li    0.00455    0.00042    0.03079
 45 Li   -0.00469   -0.00209    0.04010
 46 Li    0.00671    0.00037   -0.09455
 47 Li   -0.12567    0.08645    0.02367
 48 Li   -0.00001    0.00000    0.08828
 49 Li   -0.00393   -0.00012    0.08834
 50 Li    0.00129    0.00000   -0.04239
 51 Li   -0.00000    0.00174   -0.03849
 52 Li   -0.00000    0.00000    0.04172
 53 Li    0.00469    0.00210    0.04010
 54 Li    0.01875    0.00000   -0.07143
 55 Li    0.00000   -0.00116   -0.09102
 56 Li   -0.00001   -0.00030    0.09100
 57 Li   -0.00483    0.00000    0.08908
 58 Li   -0.00226    0.00039   -0.03993
 59 Li   -0.00001    0.00000   -0.03286
 60 Li    0.00000    0.00227    0.03459
 61 Li    0.00475    0.00000    0.04380
 62 Li   -0.00671   -0.00037   -0.09455
 63 Li    0.00000    0.00000   -0.08822
 64 Li   -0.00001    0.00030    0.09100
 65 Li   -0.00393    0.00012    0.08834
 66 Li   -0.00226   -0.00039   -0.03993
 67 Li   -0.00000   -0.00174   -0.03849
 68 Li    0.00000   -0.00227    0.03459
 69 Li    0.00469   -0.00210    0.04010
 70 Li   -0.00671    0.00037   -0.09455
 71 Li    0.00000    0.00116   -0.09102
 72 Li    0.00001    0.00000    1.45741

System changes: positions 

Initializing position-dependent things.

Density initialized from wave functions
       .-----------------------------------.  
      /|                                   |  
     / |                                   |  
    /  |                                   |  
   /   |                                   |  
  /    |                                   |  
 *     |                                   |  
 |     |                                   |  
 |     |                                   |  
 |     |                                   |  
 |     |                                   |  
 |     |                                   |  
 |     |                                   |  
 |    Li          Li          Li           |  
 |     |   Li          Li          Li      |  
 |     |        Li          Li          Li |  
 |     LiLi Li       Li Li       Li Li     |  
 |Li   |      Li Li       Li Li          Li|  
 |     Li Li       Li Li       Li Li       |  
 |     |       Li          Li          Li  |  
 |    LiLi        LiLi        LiLi         |  
 |     |   LiLi        LiLi        LiLi    |  
 |  Li |        Li          Li             |  
 |     | Li Li       Li Li       Li Li     |  
 |Li Li|      Li Li       Li Li            |  
 |     Li Li       Li Li       Li Li       |  
 | Li  |       Li          Li              |  
 |     |Li          Li          Li         |  
 Li    |     Li          Li                |  
 |     |                                   |  
 |     |                                   |  
 |     |                                   |  
 |     |                                   |  
 |     |                                   |  
 |     .-----------------------------------.  
 |    /                                   /   
 |   /                                   /    
 |  /                                   /     
 | /                                   /      
 |/                                   /       
 *-----------------------------------*        

Atomic positions and initial magnetic moments

Positions:
   0 Li     0.000000    0.000000   10.000000    ( 0.0000,  0.0000,  0.0000)
   1 Li     2.467803    1.745000   10.000000    ( 0.0000,  0.0000,  0.0000)
   2 Li     2.467803    0.000000   12.467803    ( 0.0000,  0.0000,  0.0000)
   3 Li     0.000000    1.745000   12.467803    ( 0.0000,  0.0000,  0.0000)
   4 Li    -0.000071    0.000000   14.935613    ( 0.0000,  0.0000,  0.0000)
   5 Li     2.467803    1.745044   14.935448    ( 0.0000,  0.0000,  0.0000)
   6 Li     2.467803    0.000000   17.375056    ( 0.0000,  0.0000,  0.0000)
   7 Li     0.001795    1.743765   17.403746    ( 0.0000,  0.0000,  0.0000)
   8 Li     0.000000    3.490000   10.000000    ( 0.0000,  0.0000,  0.0000)
   9 Li     2.467803    5.235000   10.000000    ( 0.0000,  0.0000,  0.0000)
  10 Li     2.467803    3.490000   12.467803    ( 0.0000,  0.0000,  0.0000)
  11 Li     0.000000    5.235000   12.467803    ( 0.0000,  0.0000,  0.0000)
  12 Li    -0.000065    3.489994   14.936045    ( 0.0000,  0.0000,  0.0000)
  13 Li     2.467803    5.235000   14.936276    ( 0.0000,  0.0000,  0.0000)
  14 Li     2.467803    3.488107   17.403428    ( 0.0000,  0.0000,  0.0000)
  15 Li    -0.000056    5.235000   17.402072    ( 0.0000,  0.0000,  0.0000)
  16 Li     0.000000    6.980000   10.000000    ( 0.0000,  0.0000,  0.0000)
  17 Li     2.467803    8.725000   10.000000    ( 0.0000,  0.0000,  0.0000)
  18 Li     2.467803    6.980000   12.467803    ( 0.0000,  0.0000,  0.0000)
  19 Li     0.000000    8.725000   12.467803    ( 0.0000,  0.0000,  0.0000)
  20 Li    -0.000065    6.980006   14.936045    ( 0.0000,  0.0000,  0.0000)
  21 Li     2.467803    8.724956   14.935448    ( 0.0000,  0.0000,  0.0000)
  22 Li     2.467803    6.981893   17.403428    ( 0.0000,  0.0000,  0.0000)
  23 Li     0.001795    8.726235   17.403746    ( 0.0000,  0.0000,  0.0000)
  24 Li     4.935605    0.000000   10.000000    ( 0.0000,  0.0000,  0.0000)
  25 Li     7.403408    1.745000   10.000000    ( 0.0000,  0.0000,  0.0000)
  26 Li     7.403408    0.000000   12.467803    ( 0.0000,  0.0000,  0.0000)
  27 Li     4.935605    1.745000   12.467803    ( 0.0000,  0.0000,  0.0000)
  28 Li     4.935677    0.000000   14.935613    ( 0.0000,  0.0000,  0.0000)
  29 Li     7.403341    1.745030   14.936178    ( 0.0000,  0.0000,  0.0000)
  30 Li     7.403140    0.000000   17.402388    ( 0.0000,  0.0000,  0.0000)
  31 Li     4.933810    1.743765   17.403746    ( 0.0000,  0.0000,  0.0000)
  32 Li     4.935605    3.490000   10.000000    ( 0.0000,  0.0000,  0.0000)
  33 Li     7.403408    5.235000   10.000000    ( 0.0000,  0.0000,  0.0000)
  34 Li     7.403408    3.490000   12.467803    ( 0.0000,  0.0000,  0.0000)
  35 Li     4.935605    5.235000   12.467803    ( 0.0000,  0.0000,  0.0000)
  36 Li     4.935670    3.489994   14.936045    ( 0.0000,  0.0000,  0.0000)
  37 Li     7.403340    5.235000   14.936231    ( 0.0000,  0.0000,  0.0000)
  38 Li     7.403504    3.489995   17.402057    ( 0.0000,  0.0000,  0.0000)
  39 Li     4.935661    5.235000   17.402072    ( 0.0000,  0.0000,  0.0000)
  40 Li     4.935605    6.980000   10.000000    ( 0.0000,  0.0000,  0.0000)
  41 Li     7.403408    8.725000   10.000000    ( 0.0000,  0.0000,  0.0000)
  42 Li     7.403408    6.980000   12.467803    ( 0.0000,  0.0000,  0.0000)
  43 Li     4.935605    8.725000   12.467803    ( 0.0000,  0.0000,  0.0000)
  44 Li     4.935670    6.980006   14.936045    ( 0.0000,  0.0000,  0.0000)
  45 Li     7.403341    8.724970   14.936178    ( 0.0000,  0.0000,  0.0000)
  46 Li     7.403504    6.980005   17.402057    ( 0.0000,  0.0000,  0.0000)
  47 Li     4.933810    8.726235   17.403746    ( 0.0000,  0.0000,  0.0000)
  48 Li     9.871211    0.000000   10.000000    ( 0.0000,  0.0000,  0.0000)
  49 Li    12.339013    1.745000   10.000000    ( 0.0000,  0.0000,  0.0000)
  50 Li    12.339013    0.000000   12.467803    ( 0.0000,  0.0000,  0.0000)
  51 Li     9.871211    1.745000   12.467803    ( 0.0000,  0.0000,  0.0000)
  52 Li     9.871211    0.000000   14.936201    ( 0.0000,  0.0000,  0.0000)
  53 Li    12.339080    1.745030   14.936178    ( 0.0000,  0.0000,  0.0000)
  54 Li    12.339281    0.000000   17.402388    ( 0.0000,  0.0000,  0.0000)
  55 Li     9.871211    1.744983   17.402108    ( 0.0000,  0.0000,  0.0000)
  56 Li     9.871211    3.490000   10.000000    ( 0.0000,  0.0000,  0.0000)
  57 Li    12.339013    5.235000   10.000000    ( 0.0000,  0.0000,  0.0000)
  58 Li    12.339013    3.490000   12.467803    ( 0.0000,  0.0000,  0.0000)
  59 Li     9.871211    5.235000   12.467803    ( 0.0000,  0.0000,  0.0000)
  60 Li     9.871211    3.490032   14.936099    ( 0.0000,  0.0000,  0.0000)
  61 Li    12.339081    5.235000   14.936231    ( 0.0000,  0.0000,  0.0000)
  62 Li    12.338917    3.489995   17.402057    ( 0.0000,  0.0000,  0.0000)
  63 Li     9.871211    5.235000   17.402148    ( 0.0000,  0.0000,  0.0000)
  64 Li     9.871211    6.980000   10.000000    ( 0.0000,  0.0000,  0.0000)
  65 Li    12.339013    8.725000   10.000000    ( 0.0000,  0.0000,  0.0000)
  66 Li    12.339013    6.980000   12.467803    ( 0.0000,  0.0000,  0.0000)
  67 Li     9.871211    8.725000   12.467803    ( 0.0000,  0.0000,  0.0000)
  68 Li     9.871211    6.979968   14.936099    ( 0.0000,  0.0000,  0.0000)
  69 Li    12.339080    8.724970   14.936178    ( 0.0000,  0.0000,  0.0000)
  70 Li    12.338917    6.980005   17.402057    ( 0.0000,  0.0000,  0.0000)
  71 Li     9.871211    8.725017   17.402108    ( 0.0000,  0.0000,  0.0000)
  72 Li     2.467803    0.000000   19.424228    ( 0.0000,  0.0000,  0.0000)

Unit cell:
           periodic     x           y           z      points  spacing
  1. axis:    yes   14.806816    0.000000    0.000000    49     0.3022
  2. axis:    yes    0.000000   10.470000    0.000000    35     0.2991
  3. axis:    no     0.000000    0.000000   27.403408    90     0.3045

  Lengths:  14.806816  10.470000  27.403408
  Angles:   90.000000  90.000000  90.000000

Effective grid spacing dv^(1/3) = 0.3019

     iter     time        total  log10-change:
                         energy   eigst   dens
iter:   1 02:18:57  -127.957557   -3.61
iter:   2 02:19:02  -127.953529   -4.49  -2.18
iter:   3 02:19:06  -127.953020c  -4.51  -2.33
iter:   4 02:19:11  -127.953182c  -4.80  -2.63
iter:   5 02:19:15  -127.952626c  -5.37c -2.76
iter:   6 02:19:20  -127.952665c  -5.43c -3.08
iter:   7 02:19:24  -127.952644c  -6.01c -3.27
iter:   8 02:19:28  -127.952485c  -5.90c -3.34
iter:   9 02:19:33  -127.952522c  -6.28c -3.51
iter:  10 02:19:37  -127.952531c  -6.20c -3.60
iter:  11 02:19:41  -127.952513c  -6.46c -3.67
iter:  12 02:19:45  -127.952513c  -6.36c -3.73
iter:  13 02:19:48  -127.952534c  -6.29c -3.86
iter:  14 02:19:52  -127.952528c  -6.63c -4.03c

Converged after 14 iterations.

Dipole moment: (-0.222983, 0.000000, 0.240780) |e|*Ang

Energy contributions relative to reference atoms: (reference = -14803.510878)

Kinetic:       +108.897586
Potential:      -96.107982
External:        +0.000000
XC:            -139.565367
Entropy (-ST):   -1.415142
Local:           -0.469194
SIC:             +0.000000
--------------------------
Free energy:   -128.660099
Extrapolated:  -127.952528

 Band  Eigenvalues  Occupancy
    0     -5.09854    2.00000
    1     -4.83881    2.00000
    2     -4.57873    2.00000
    3     -4.52745    2.00000
    4     -4.32249    2.00000
    5     -4.31861    2.00000
    6     -4.26526    2.00000
    7     -4.00957    2.00000
    8     -3.80623    2.00000
    9     -3.75795    2.00000
   10     -3.73915    2.00000
   11     -3.54631    2.00000
   12     -3.53030    2.00000
   13     -3.49381    2.00000
   14     -3.28484    2.00000
   15     -3.24936    2.00000
   16     -3.21962    2.00000
   17     -3.03239    1.99999
   18     -2.98689    1.99998
   19     -2.96530    1.99997
   20     -2.95264    1.99997
   21     -2.79253    1.99985
   22     -2.75410    1.99978
   23     -2.72117    1.99970
   24     -2.67818    1.99954
   25     -2.54889    1.99833
   26     -2.48238    1.99675
   27     -2.33097    1.98529
   28     -2.28319    1.97639
   29     -2.19955    1.94634
   30     -2.05332    1.78731
   31     -2.01765    1.70939
   32     -1.99507    1.64871
   33     -1.95143    1.50415
   34     -1.94340    1.47361
   35     -1.92277    1.38979
   36     -1.86376    1.11598
   37     -1.77960    0.70479
   38     -1.74303    0.54805
   39     -1.71018    0.42739
   40     -1.68747    0.35604
   41     -1.55740    0.11139
   42     -1.53549    0.09046
   43     -1.50750    0.06914
   44     -1.48614    0.05622
   45     -1.47440    0.05015
   46     -1.43573    0.03434
   47     -1.38695    0.02123

Fermi level: -1.84046

Gap: 0.084 eV
Transition (v -> c):
  (s=0, k=0, n=36, [0.25, 0.25, 0.00]) -> (s=0, k=0, n=37, [0.25, 0.25, 0.00])
No difference between direct/indirect transitions

Forces in eV/Ang:
  0 Li    0.00258    0.00000    0.09400
  1 Li   -0.00000   -0.00213    0.09628
  2 Li   -0.00000    0.00000   -0.02377
  3 Li   -0.00401   -0.00016   -0.04427
  4 Li   -0.00539    0.00000   -0.00166
  5 Li   -0.00000    0.00903   -0.02098
  6 Li    0.00000    0.00000   -1.77910
  7 Li    0.12194   -0.08468    0.02269
  8 Li   -0.00066   -0.00221    0.08958
  9 Li   -0.00000    0.00000    0.08952
 10 Li   -0.00000    0.00105   -0.04670
 11 Li    0.00169    0.00000   -0.04234
 12 Li   -0.00373   -0.00177    0.03110
 13 Li   -0.00000    0.00000    0.04684
 14 Li   -0.00000   -0.12689   -0.00028
 15 Li   -0.00289    0.00000   -0.09248
 16 Li   -0.00066    0.00221    0.08958
 17 Li   -0.00000    0.00213    0.09628
 18 Li   -0.00000   -0.00105   -0.04670
 19 Li   -0.00401    0.00016   -0.04427
 20 Li   -0.00373    0.00177    0.03110
 21 Li   -0.00000   -0.00903   -0.02098
 22 Li   -0.00000    0.12689   -0.00028
 23 Li    0.12194    0.08468    0.02269
 24 Li   -0.00258    0.00000    0.09400
 25 Li    0.00408   -0.00006    0.08759
 26 Li   -0.00125    0.00000   -0.04170
 27 Li    0.00401   -0.00016   -0.04427
 28 Li    0.00539    0.00000   -0.00166
 29 Li   -0.00456    0.00180    0.03879
 30 Li   -0.01809    0.00000   -0.07095
 31 Li   -0.12195   -0.08468    0.02269
 32 Li    0.00066   -0.00221    0.08958
 33 Li    0.00499    0.00000    0.08934
 34 Li    0.00212    0.00048   -0.03921
 35 Li   -0.00168    0.00000   -0.04234
 36 Li    0.00372   -0.00177    0.03110
 37 Li   -0.00427    0.00000    0.04226
 38 Li    0.00553   -0.00090   -0.09328
 39 Li    0.00289    0.00000   -0.09248
 40 Li    0.00066    0.00221    0.08958
 41 Li    0.00408    0.00006    0.08759
 42 Li    0.00212   -0.00048   -0.03921
 43 Li    0.00401    0.00016   -0.04427
 44 Li    0.00372    0.00177    0.03110
 45 Li   -0.00456   -0.00180    0.03879
 46 Li    0.00553    0.00090   -0.09328
 47 Li   -0.12195    0.08468    0.02269
 48 Li   -0.00000    0.00000    0.08809
 49 Li   -0.00408   -0.00006    0.08759
 50 Li    0.00125    0.00000   -0.04170
 51 Li   -0.00000    0.00176   -0.03818
 52 Li   -0.00000    0.00000    0.04051
 53 Li    0.00456    0.00180    0.03879
 54 Li    0.01809    0.00000   -0.07095
 55 Li    0.00000   -0.00091   -0.08979
 56 Li   -0.00000   -0.00015    0.09099
 57 Li   -0.00499    0.00000    0.08934
 58 Li   -0.00211    0.00048   -0.03921
 59 Li   -0.00000    0.00000   -0.03296
 60 Li    0.00000    0.00218    0.03336
 61 Li    0.00427    0.00000    0.04227
 62 Li   -0.00552   -0.00090   -0.09328
 63 Li    0.00000    0.00000   -0.08742
 64 Li   -0.00000    0.00015    0.09099
 65 Li   -0.00408    0.00006    0.08759
 66 Li   -0.00211   -0.00048   -0.03921
 67 Li   -0.00000   -0.00176   -0.03818
 68 Li    0.00000   -0.00218    0.03336
 69 Li    0.00456   -0.00180    0.03879
 70 Li   -0.00552    0.00090   -0.09328
 71 Li    0.00000    0.00091   -0.08979
 72 Li    0.00001    0.00000    1.28051

System changes: positions 

Initializing position-dependent things.

Density initialized from wave functions
       .-----------------------------------.  
      /|                                   |  
     / |                                   |  
    /  |                                   |  
   /   |                                   |  
  /    |                                   |  
 *     |                                   |  
 |     |                                   |  
 |     |                                   |  
 |     |                                   |  
 |     |                                   |  
 |     |                                   |  
 |     |                                   |  
 |    Li          Li          Li           |  
 |     |   Li          Li          Li      |  
 |     |        Li          Li          Li |  
 |     LiLi Li       Li Li       Li Li     |  
 |Li   |      Li Li       Li Li          Li|  
 |     |  Li       Li Li       Li Li       |  
 |     Li      Li          Li          Li  |  
 |    LiLi        LiLi        LiLi         |  
 |     |   LiLi        LiLi        LiLi    |  
 |  Li |        Li          Li             |  
 |     | Li Li       Li Li       Li Li     |  
 |Li Li|      Li Li       Li Li            |  
 |     Li Li       Li Li       Li Li       |  
 | Li  |       Li          Li              |  
 |     |Li          Li          Li         |  
 Li    |     Li          Li                |  
 |     |                                   |  
 |     |                                   |  
 |     |                                   |  
 |     |                                   |  
 |     |                                   |  
 |     .-----------------------------------.  
 |    /                                   /   
 |   /                                   /    
 |  /                                   /     
 | /                                   /      
 |/                                   /       
 *-----------------------------------*        

Atomic positions and initial magnetic moments

Positions:
   0 Li     0.000000    0.000000   10.000000    ( 0.0000,  0.0000,  0.0000)
   1 Li     2.467803    1.745000   10.000000    ( 0.0000,  0.0000,  0.0000)
   2 Li     2.467803    0.000000   12.467803    ( 0.0000,  0.0000,  0.0000)
   3 Li     0.000000    1.745000   12.467803    ( 0.0000,  0.0000,  0.0000)
   4 Li    -0.000677    0.000000   14.935428    ( 0.0000,  0.0000,  0.0000)
   5 Li     2.467803    1.746056   14.933095    ( 0.0000,  0.0000,  0.0000)
   6 Li     2.467803    0.000000   17.175056    ( 0.0000,  0.0000,  0.0000)
   7 Li     0.015499    1.734249   17.406297    ( 0.0000,  0.0000,  0.0000)
   8 Li     0.000000    3.490000   10.000000    ( 0.0000,  0.0000,  0.0000)
   9 Li     2.467803    5.235000   10.000000    ( 0.0000,  0.0000,  0.0000)
  10 Li     2.467803    3.490000   12.467803    ( 0.0000,  0.0000,  0.0000)
  11 Li     0.000000    5.235000   12.467803    ( 0.0000,  0.0000,  0.0000)
  12 Li    -0.000484    3.489795   14.939540    ( 0.0000,  0.0000,  0.0000)
  13 Li     2.467802    5.235000   14.941539    ( 0.0000,  0.0000,  0.0000)
  14 Li     2.467802    3.473846   17.403398    ( 0.0000,  0.0000,  0.0000)
  15 Li    -0.000381    5.235000   17.391680    ( 0.0000,  0.0000,  0.0000)
  16 Li     0.000000    6.980000   10.000000    ( 0.0000,  0.0000,  0.0000)
  17 Li     2.467803    8.725000   10.000000    ( 0.0000,  0.0000,  0.0000)
  18 Li     2.467803    6.980000   12.467803    ( 0.0000,  0.0000,  0.0000)
  19 Li     0.000000    8.725000   12.467803    ( 0.0000,  0.0000,  0.0000)
  20 Li    -0.000484    6.980205   14.939540    ( 0.0000,  0.0000,  0.0000)
  21 Li     2.467803    8.723944   14.933095    ( 0.0000,  0.0000,  0.0000)
  22 Li     2.467802    6.996154   17.403398    ( 0.0000,  0.0000,  0.0000)
  23 Li     0.015499    8.735751   17.406297    ( 0.0000,  0.0000,  0.0000)
  24 Li     4.935605    0.000000   10.000000    ( 0.0000,  0.0000,  0.0000)
  25 Li     7.403408    1.745000   10.000000    ( 0.0000,  0.0000,  0.0000)
  26 Li     7.403408    0.000000   12.467803    ( 0.0000,  0.0000,  0.0000)
  27 Li     4.935605    1.745000   12.467803    ( 0.0000,  0.0000,  0.0000)
  28 Li     4.936282   -0.000000   14.935428    ( 0.0000,  0.0000,  0.0000)
  29 Li     7.402828    1.745232   14.940537    ( 0.0000,  0.0000,  0.0000)
  30 Li     7.401107   -0.000000   17.394415    ( 0.0000,  0.0000,  0.0000)
  31 Li     4.920106    1.734249   17.406297    ( 0.0000,  0.0000,  0.0000)
  32 Li     4.935605    3.490000   10.000000    ( 0.0000,  0.0000,  0.0000)
  33 Li     7.403408    5.235000   10.000000    ( 0.0000,  0.0000,  0.0000)
  34 Li     7.403408    3.490000   12.467803    ( 0.0000,  0.0000,  0.0000)
  35 Li     4.935605    5.235000   12.467803    ( 0.0000,  0.0000,  0.0000)
  36 Li     4.936089    3.489796   14.939540    ( 0.0000,  0.0000,  0.0000)
  37 Li     7.402860    5.235000   14.940980    ( 0.0000,  0.0000,  0.0000)
  38 Li     7.404126    3.489894   17.391575    ( 0.0000,  0.0000,  0.0000)
  39 Li     4.935986    5.235000   17.391680    ( 0.0000,  0.0000,  0.0000)
  40 Li     4.935605    6.980000   10.000000    ( 0.0000,  0.0000,  0.0000)
  41 Li     7.403408    8.725000   10.000000    ( 0.0000,  0.0000,  0.0000)
  42 Li     7.403408    6.980000   12.467803    ( 0.0000,  0.0000,  0.0000)
  43 Li     4.935605    8.725000   12.467803    ( 0.0000,  0.0000,  0.0000)
  44 Li     4.936089    6.980204   14.939540    ( 0.0000,  0.0000,  0.0000)
  45 Li     7.402828    8.724768   14.940537    ( 0.0000,  0.0000,  0.0000)
  46 Li     7.404126    6.980106   17.391575    ( 0.0000,  0.0000,  0.0000)
  47 Li     4.920106    8.735751   17.406297    ( 0.0000,  0.0000,  0.0000)
  48 Li     9.871211    0.000000   10.000000    ( 0.0000,  0.0000,  0.0000)
  49 Li    12.339013    1.745000   10.000000    ( 0.0000,  0.0000,  0.0000)
  50 Li    12.339013    0.000000   12.467803    ( 0.0000,  0.0000,  0.0000)
  51 Li     9.871211    1.745000   12.467803    ( 0.0000,  0.0000,  0.0000)
  52 Li     9.871211   -0.000000   14.940754    ( 0.0000,  0.0000,  0.0000)
  53 Li    12.339593    1.745232   14.940537    ( 0.0000,  0.0000,  0.0000)
  54 Li    12.341314    0.000000   17.394415    ( 0.0000,  0.0000,  0.0000)
  55 Li     9.871211    1.744881   17.392018    ( 0.0000,  0.0000,  0.0000)
  56 Li     9.871211    3.490000   10.000000    ( 0.0000,  0.0000,  0.0000)
  57 Li    12.339013    5.235000   10.000000    ( 0.0000,  0.0000,  0.0000)
  58 Li    12.339013    3.490000   12.467803    ( 0.0000,  0.0000,  0.0000)
  59 Li     9.871211    5.235000   12.467803    ( 0.0000,  0.0000,  0.0000)
  60 Li     9.871211    3.490278   14.939848    ( 0.0000,  0.0000,  0.0000)
  61 Li    12.339562    5.235000   14.940981    ( 0.0000,  0.0000,  0.0000)
  62 Li    12.338296    3.489894   17.391575    ( 0.0000,  0.0000,  0.0000)
  63 Li     9.871211    5.235000   17.392325    ( 0.0000,  0.0000,  0.0000)
  64 Li     9.871211    6.980000   10.000000    ( 0.0000,  0.0000,  0.0000)
  65 Li    12.339013    8.725000   10.000000    ( 0.0000,  0.0000,  0.0000)
  66 Li    12.339013    6.980000   12.467803    ( 0.0000,  0.0000,  0.0000)
  67 Li     9.871211    8.725000   12.467803    ( 0.0000,  0.0000,  0.0000)
  68 Li     9.871211    6.979722   14.939848    ( 0.0000,  0.0000,  0.0000)
  69 Li    12.339593    8.724768   14.940537    ( 0.0000,  0.0000,  0.0000)
  70 Li    12.338296    6.980106   17.391575    ( 0.0000,  0.0000,  0.0000)
  71 Li     9.871211    8.725119   17.392018    ( 0.0000,  0.0000,  0.0000)
  72 Li     2.467803   -0.000000   19.568191    ( 0.0000,  0.0000,  0.0000)

Unit cell:
           periodic     x           y           z      points  spacing
  1. axis:    yes   14.806816    0.000000    0.000000    49     0.3022
  2. axis:    yes    0.000000   10.470000    0.000000    35     0.2991
  3. axis:    no     0.000000    0.000000   27.403408    90     0.3045

  Lengths:  14.806816  10.470000  27.403408
  Angles:   90.000000  90.000000  90.000000

Effective grid spacing dv^(1/3) = 0.3019

     iter     time        total  log10-change:
                         energy   eigst   dens
iter:   1 02:20:04  -128.804206   -1.81
iter:   2 02:20:08  -128.464278   -2.57  -1.26
iter:   3 02:20:13  -128.361693   -2.91  -1.41
iter:   4 02:20:17  -128.337340   -2.89  -1.75
iter:   5 02:20:23  -128.323309   -3.57  -1.89
iter:   6 02:20:28  -128.321969c  -3.74  -2.22
iter:   7 02:20:32  -128.322121c  -4.37  -2.39
iter:   8 02:20:36  -128.320729c  -4.85  -2.51
iter:   9 02:20:41  -128.320347c  -5.13  -2.69
iter:  10 02:20:44  -128.320680c  -5.28  -2.79
iter:  11 02:20:48  -128.320634c  -5.78c -2.87
iter:  12 02:20:51  -128.320547c  -5.62c -2.93
iter:  13 02:20:55  -128.320672c  -5.95c -3.02
iter:  14 02:20:59  -128.320750c  -6.09c -3.12
iter:  15 02:21:02  -128.320655c  -6.29c -3.23
iter:  16 02:21:06  -128.320605c  -6.32c -3.36
iter:  17 02:21:10  -128.320687c  -6.38c -3.53
iter:  18 02:21:14  -128.320650c  -6.71c -3.67
iter:  19 02:21:17  -128.320632c  -6.75c -3.76
iter:  20 02:21:22  -128.320656c  -6.90c -3.82
iter:  21 02:21:25  -128.320649c  -6.88c -3.96
iter:  22 02:21:29  -128.320627c  -6.89c -4.08c

Converged after 22 iterations.

Dipole moment: (-0.917035, 0.000000, 0.338858) |e|*Ang

Energy contributions relative to reference atoms: (reference = -14803.510878)

Kinetic:       +108.194832
Potential:      -95.893958
External:        +0.000000
XC:            -139.445828
Entropy (-ST):   -1.411928
Local:           -0.469709
SIC:             +0.000000
--------------------------
Free energy:   -129.026591
Extrapolated:  -128.320627

 Band  Eigenvalues  Occupancy
    0     -5.08210    2.00000
    1     -4.82248    2.00000
    2     -4.56259    2.00000
    3     -4.51258    2.00000
    4     -4.30719    2.00000
    5     -4.30168    2.00000
    6     -4.25010    2.00000
    7     -3.99471    2.00000
    8     -3.79031    2.00000
    9     -3.74296    2.00000
   10     -3.72381    2.00000
   11     -3.53039    2.00000
   12     -3.51358    2.00000
   13     -3.47706    2.00000
   14     -3.26843    2.00000
   15     -3.23349    2.00000
   16     -3.20201    2.00000
   17     -3.01613    1.99999
   18     -2.97050    1.99998
   19     -2.94886    1.99997
   20     -2.93664    1.99997
   21     -2.77608    1.99986
   22     -2.73767    1.99979
   23     -2.70459    1.99971
   24     -2.65667    1.99953
   25     -2.53292    1.99837
   26     -2.46644    1.99683
   27     -2.31751    1.98603
   28     -2.27672    1.97906
   29     -2.17725    1.94438
   30     -2.03539    1.78863
   31     -2.00156    1.71564
   32     -1.97974    1.65814
   33     -1.93222    1.50195
   34     -1.92602    1.47843
   35     -1.90333    1.38632
   36     -1.84269    1.10390
   37     -1.75641    0.68409
   38     -1.72546    0.55228
   39     -1.69118    0.42615
   40     -1.67464    0.37329
   41     -1.52885    0.10140
   42     -1.51945    0.09272
   43     -1.48972    0.06970
   44     -1.46606    0.05543
   45     -1.45865    0.05157
   46     -1.41993    0.03531
   47     -1.37000    0.02158

Fermi level: -1.82183

Gap: 0.086 eV
Transition (v -> c):
  (s=0, k=0, n=36, [0.25, 0.25, 0.00]) -> (s=0, k=0, n=37, [0.25, 0.25, 0.00])
No difference between direct/indirect transitions

Forces in eV/Ang:
  0 Li    0.00244    0.00000    0.09392
  1 Li   -0.00000   -0.00188    0.09747
  2 Li   -0.00000    0.00000   -0.01581
  3 Li   -0.00573    0.00243   -0.04759
  4 Li   -0.00873    0.00000   -0.01631
  5 Li   -0.00000    0.05721   -0.09767
  6 Li   -0.00000    0.00000   -0.62769
  7 Li    0.09800   -0.07409    0.01474
  8 Li   -0.00029   -0.00300    0.09126
  9 Li   -0.00000    0.00000    0.08849
 10 Li   -0.00000    0.00509   -0.04991
 11 Li    0.00099    0.00000   -0.03579
 12 Li    0.00071   -0.01166    0.03116
 13 Li   -0.00000    0.00000    0.04496
 14 Li   -0.00000   -0.09152   -0.01138
 15 Li    0.00351    0.00000   -0.08208
 16 Li   -0.00029    0.00300    0.09126
 17 Li   -0.00000    0.00188    0.09747
 18 Li   -0.00000   -0.00509   -0.04991
 19 Li   -0.00573   -0.00243   -0.04759
 20 Li    0.00071    0.01166    0.03116
 21 Li   -0.00000   -0.05721   -0.09767
 22 Li   -0.00000    0.09152   -0.01138
 23 Li    0.09800    0.07409    0.01474
 24 Li   -0.00244    0.00000    0.09392
 25 Li    0.00419   -0.00007    0.08628
 26 Li   -0.00075    0.00000   -0.03871
 27 Li    0.00573    0.00243   -0.04759
 28 Li    0.00873    0.00000   -0.01631
 29 Li   -0.00394   -0.00005    0.02884
 30 Li   -0.01370    0.00000   -0.06688
 31 Li   -0.09800   -0.07409    0.01474
 32 Li    0.00029   -0.00300    0.09126
 33 Li    0.00678    0.00000    0.09098
 34 Li    0.00081    0.00070   -0.03469
 35 Li   -0.00099    0.00000   -0.03579
 36 Li   -0.00071   -0.01166    0.03116
 37 Li   -0.00203    0.00000    0.02857
 38 Li   -0.00393   -0.00552   -0.08261
 39 Li   -0.00351    0.00000   -0.08208
 40 Li    0.00029    0.00300    0.09126
 41 Li    0.00419    0.00007    0.08628
 42 Li    0.00081   -0.00070   -0.03469
 43 Li    0.00573   -0.00243   -0.04759
 44 Li   -0.00071    0.01166    0.03116
 45 Li   -0.00394    0.00005    0.02884
 46 Li   -0.00393    0.00552   -0.08261
 47 Li   -0.09800    0.07409    0.01474
 48 Li   -0.00000    0.00000    0.08938
 49 Li   -0.00419   -0.00007    0.08628
 50 Li    0.00075    0.00000   -0.03871
 51 Li   -0.00000    0.00161   -0.03618
 52 Li    0.00000    0.00000    0.02975
 53 Li    0.00394   -0.00005    0.02884
 54 Li    0.01370    0.00000   -0.06688
 55 Li    0.00000   -0.00197   -0.08163
 56 Li   -0.00000    0.00097    0.09042
 57 Li   -0.00678    0.00000    0.09097
 58 Li   -0.00081    0.00070   -0.03468
 59 Li   -0.00000    0.00000   -0.03214
 60 Li    0.00000    0.00167    0.02447
 61 Li    0.00203    0.00000    0.02857
 62 Li    0.00393   -0.00552   -0.08261
 63 Li    0.00000    0.00000   -0.08051
 64 Li   -0.00000   -0.00097    0.09042
 65 Li   -0.00419    0.00007    0.08628
 66 Li   -0.00081   -0.00070   -0.03468
 67 Li   -0.00000   -0.00161   -0.03618
 68 Li    0.00000   -0.00167    0.02447
 69 Li    0.00394    0.00005    0.02884
 70 Li    0.00393    0.00552   -0.08261
 71 Li    0.00000    0.00197   -0.08163
 72 Li    0.00000    0.00000    0.33224

System changes: positions 

Initializing position-dependent things.

Density initialized from wave functions
       .-----------------------------------.  
      /|                                   |  
     / |                                   |  
    /  |                                   |  
   /   |                                   |  
  /    |                                   |  
 *     |                                   |  
 |     |                                   |  
 |     |                                   |  
 |     |                                   |  
 |     |                                   |  
 |     |                                   |  
 |     |                                   |  
 |    Li          Li          Li           |  
 |     |   Li          Li          Li      |  
 |     |        Li          Li          Li |  
 |     LiLi Li       Li Li       Li Li     |  
 |Li   |      Li Li       Li Li          Li|  
 |     |  Li       Li Li       Li Li       |  
 |     Li      Li          Li          Li  |  
 |    LiLi        LiLi        LiLi         |  
 |     |   LiLi        LiLi        LiLi    |  
 |  Li |        Li          Li             |  
 |     | Li Li       Li Li       Li Li     |  
 |Li Li|      Li Li       Li Li            |  
 |     Li Li       Li Li       Li Li       |  
 | Li  |       Li          Li              |  
 |     |Li          Li          Li         |  
 Li    |     Li          Li                |  
 |     |                                   |  
 |     |                                   |  
 |     |                                   |  
 |     |                                   |  
 |     |                                   |  
 |     .-----------------------------------.  
 |    /                                   /   
 |   /                                   /    
 |  /                                   /     
 | /                                   /      
 |/                                   /       
 *-----------------------------------*        

Atomic positions and initial magnetic moments

Positions:
   0 Li     0.000000    0.000000   10.000000    ( 0.0000,  0.0000,  0.0000)
   1 Li     2.467803    1.745000   10.000000    ( 0.0000,  0.0000,  0.0000)
   2 Li     2.467803    0.000000   12.467803    ( 0.0000,  0.0000,  0.0000)
   3 Li     0.000000    1.745000   12.467803    ( 0.0000,  0.0000,  0.0000)
   4 Li    -0.001150    0.000000   14.934987    ( 0.0000,  0.0000,  0.0000)
   5 Li     2.467802    1.747771   14.929875    ( 0.0000,  0.0000,  0.0000)
   6 Li     2.467803    0.000000   17.068215    ( 0.0000,  0.0000,  0.0000)
   7 Li     0.024015    1.728205   17.407805    ( 0.0000,  0.0000,  0.0000)
   8 Li     0.000000    3.490000   10.000000    ( 0.0000,  0.0000,  0.0000)
   9 Li     2.467803    5.235000   10.000000    ( 0.0000,  0.0000,  0.0000)
  10 Li     2.467803    3.490000   12.467803    ( 0.0000,  0.0000,  0.0000)
  11 Li     0.000000    5.235000   12.467803    ( 0.0000,  0.0000,  0.0000)
  12 Li    -0.000664    3.489449   14.941845    ( 0.0000,  0.0000,  0.0000)
  13 Li     2.467802    5.235000   14.944969    ( 0.0000,  0.0000,  0.0000)
  14 Li     2.467802    3.465213   17.403136    ( 0.0000,  0.0000,  0.0000)
  15 Li    -0.000457    5.235000   17.385055    ( 0.0000,  0.0000,  0.0000)
  16 Li     0.000000    6.980000   10.000000    ( 0.0000,  0.0000,  0.0000)
  17 Li     2.467803    8.725000   10.000000    ( 0.0000,  0.0000,  0.0000)
  18 Li     2.467803    6.980000   12.467803    ( 0.0000,  0.0000,  0.0000)
  19 Li     0.000000    8.725000   12.467803    ( 0.0000,  0.0000,  0.0000)
  20 Li    -0.000664    6.980551   14.941845    ( 0.0000,  0.0000,  0.0000)
  21 Li     2.467802    8.722229   14.929875    ( 0.0000,  0.0000,  0.0000)
  22 Li     2.467802    7.004787   17.403136    ( 0.0000,  0.0000,  0.0000)
  23 Li     0.024015    8.741795   17.407805    ( 0.0000,  0.0000,  0.0000)
  24 Li     4.935605    0.000000   10.000000    ( 0.0000,  0.0000,  0.0000)
  25 Li     7.403408    1.745000   10.000000    ( 0.0000,  0.0000,  0.0000)
  26 Li     7.403408    0.000000   12.467803    ( 0.0000,  0.0000,  0.0000)
  27 Li     4.935605    1.745000   12.467803    ( 0.0000,  0.0000,  0.0000)
  28 Li     4.936754   -0.000000   14.934987    ( 0.0000,  0.0000,  0.0000)
  29 Li     7.402504    1.745325   14.943195    ( 0.0000,  0.0000,  0.0000)
  30 Li     7.399862   -0.000000   17.389247    ( 0.0000,  0.0000,  0.0000)
  31 Li     4.911590    1.728205   17.407805    ( 0.0000,  0.0000,  0.0000)
  32 Li     4.935605    3.490000   10.000000    ( 0.0000,  0.0000,  0.0000)
  33 Li     7.403408    5.235000   10.000000    ( 0.0000,  0.0000,  0.0000)
  34 Li     7.403408    3.490000   12.467803    ( 0.0000,  0.0000,  0.0000)
  35 Li     4.935605    5.235000   12.467803    ( 0.0000,  0.0000,  0.0000)
  36 Li     4.936269    3.489450   14.941846    ( 0.0000,  0.0000,  0.0000)
  37 Li     7.402592    5.235000   14.943814    ( 0.0000,  0.0000,  0.0000)
  38 Li     7.404330    3.489727   17.384896    ( 0.0000,  0.0000,  0.0000)
  39 Li     4.936061    5.235000   17.385055    ( 0.0000,  0.0000,  0.0000)
  40 Li     4.935605    6.980000   10.000000    ( 0.0000,  0.0000,  0.0000)
  41 Li     7.403408    8.725000   10.000000    ( 0.0000,  0.0000,  0.0000)
  42 Li     7.403408    6.980000   12.467803    ( 0.0000,  0.0000,  0.0000)
  43 Li     4.935605    8.725000   12.467803    ( 0.0000,  0.0000,  0.0000)
  44 Li     4.936269    6.980550   14.941846    ( 0.0000,  0.0000,  0.0000)
  45 Li     7.402504    8.724675   14.943195    ( 0.0000,  0.0000,  0.0000)
  46 Li     7.404330    6.980273   17.384896    ( 0.0000,  0.0000,  0.0000)
  47 Li     4.911590    8.741795   17.407805    ( 0.0000,  0.0000,  0.0000)
  48 Li     9.871211    0.000000   10.000000    ( 0.0000,  0.0000,  0.0000)
  49 Li    12.339013    1.745000   10.000000    ( 0.0000,  0.0000,  0.0000)
  50 Li    12.339013    0.000000   12.467803    ( 0.0000,  0.0000,  0.0000)
  51 Li     9.871211    1.745000   12.467803    ( 0.0000,  0.0000,  0.0000)
  52 Li     9.871211   -0.000000   14.943522    ( 0.0000,  0.0000,  0.0000)
  53 Li    12.339918    1.745325   14.943195    ( 0.0000,  0.0000,  0.0000)
  54 Li    12.342559    0.000000   17.389247    ( 0.0000,  0.0000,  0.0000)
  55 Li     9.871211    1.744791   17.385543    ( 0.0000,  0.0000,  0.0000)
  56 Li     9.871211    3.490000   10.000000    ( 0.0000,  0.0000,  0.0000)
  57 Li    12.339013    5.235000   10.000000    ( 0.0000,  0.0000,  0.0000)
  58 Li    12.339013    3.490000   12.467803    ( 0.0000,  0.0000,  0.0000)
  59 Li     9.871211    5.235000   12.467803    ( 0.0000,  0.0000,  0.0000)
  60 Li     9.871211    3.490428   14.942127    ( 0.0000,  0.0000,  0.0000)
  61 Li    12.339830    5.235000   14.943815    ( 0.0000,  0.0000,  0.0000)
  62 Li    12.338092    3.489726   17.384895    ( 0.0000,  0.0000,  0.0000)
  63 Li     9.871211    5.235000   17.385998    ( 0.0000,  0.0000,  0.0000)
  64 Li     9.871211    6.980000   10.000000    ( 0.0000,  0.0000,  0.0000)
  65 Li    12.339013    8.725000   10.000000    ( 0.0000,  0.0000,  0.0000)
  66 Li    12.339013    6.980000   12.467803    ( 0.0000,  0.0000,  0.0000)
  67 Li     9.871211    8.725000   12.467803    ( 0.0000,  0.0000,  0.0000)
  68 Li     9.871211    6.979572   14.942127    ( 0.0000,  0.0000,  0.0000)
  69 Li    12.339918    8.724675   14.943195    ( 0.0000,  0.0000,  0.0000)
  70 Li    12.338092    6.980274   17.384895    ( 0.0000,  0.0000,  0.0000)
  71 Li     9.871211    8.725209   17.385543    ( 0.0000,  0.0000,  0.0000)
  72 Li     2.467804   -0.000000   19.642503    ( 0.0000,  0.0000,  0.0000)

Unit cell:
           periodic     x           y           z      points  spacing
  1. axis:    yes   14.806816    0.000000    0.000000    49     0.3022
  2. axis:    yes    0.000000   10.470000    0.000000    35     0.2991
  3. axis:    no     0.000000    0.000000   27.403408    90     0.3045

  Lengths:  14.806816  10.470000  27.403408
  Angles:   90.000000  90.000000  90.000000

Effective grid spacing dv^(1/3) = 0.3019

     iter     time        total  log10-change:
                         energy   eigst   dens
iter:   1 02:21:39  -128.547650   -2.29
iter:   2 02:21:42  -128.434449   -3.03  -1.49
iter:   3 02:21:47  -128.402230   -3.40  -1.64
iter:   4 02:21:52  -128.396129   -3.37  -1.99
iter:   5 02:21:55  -128.390667c  -4.12  -2.14
iter:   6 02:21:59  -128.390564c  -4.27  -2.49
iter:   7 02:22:03  -128.390901c  -4.81  -2.65
iter:   8 02:22:07  -128.390202c  -5.35c -2.77
iter:   9 02:22:11  -128.389939c  -5.58c -2.95
iter:  10 02:22:15  -128.390160c  -5.79c -3.05
iter:  11 02:22:18  -128.390146c  -6.26c -3.14
iter:  12 02:22:23  -128.389956c  -5.84c -3.21
iter:  13 02:22:27  -128.390119c  -6.31c -3.22
iter:  14 02:22:30  -128.390188c  -6.53c -3.42
iter:  15 02:22:33  -128.390083c  -6.59c -3.51
iter:  16 02:22:36  -128.390120c  -6.89c -3.64
iter:  17 02:22:39  -128.390201c  -6.63c -3.85
iter:  18 02:22:43  -128.390146c  -7.09c -3.79
iter:  19 02:22:46  -128.390122c  -7.20c -4.03c

Converged after 19 iterations.

Dipole moment: (-1.321324, 0.000000, 0.382519) |e|*Ang

Energy contributions relative to reference atoms: (reference = -14803.510878)

Kinetic:       +107.983721
Potential:      -95.788753
External:        +0.000000
XC:            -139.409916
Entropy (-ST):   -1.410652
Local:           -0.469849
SIC:             +0.000000
--------------------------
Free energy:   -129.095448
Extrapolated:  -128.390122

 Band  Eigenvalues  Occupancy
    0     -5.07534    2.00000
    1     -4.81579    2.00000
    2     -4.55603    2.00000
    3     -4.50609    2.00000
    4     -4.30105    2.00000
    5     -4.29472    2.00000
    6     -4.24353    2.00000
    7     -3.98830    2.00000
    8     -3.78389    2.00000
    9     -3.73622    2.00000
   10     -3.71752    2.00000
   11     -3.52396    2.00000
   12     -3.50672    2.00000
   13     -3.46887    2.00000
   14     -3.26182    2.00000
   15     -3.22637    2.00000
   16     -3.19386    2.00000
   17     -3.00966    1.99999
   18     -2.96263    1.99998
   19     -2.94201    1.99997
   20     -2.93004    1.99997
   21     -2.76958    1.99986
   22     -2.73049    1.99979
   23     -2.69686    1.99971
   24     -2.64686    1.99952
   25     -2.52683    1.99840
   26     -2.45997    1.99688
   27     -2.31087    1.98620
   28     -2.27320    1.97995
   29     -2.16727    1.94325
   30     -2.02843    1.79042
   31     -1.99558    1.72031
   32     -1.97202    1.65870
   33     -1.92508    1.50484
   34     -1.91941    1.48344
   35     -1.89415    1.38091
   36     -1.83298    1.09500
   37     -1.74671    0.67607
   38     -1.71855    0.55627
   39     -1.68207    0.42214
   40     -1.66933    0.38127
   41     -1.51894    0.09949
   42     -1.51226    0.09336
   43     -1.48180    0.06970
   44     -1.45754    0.05510
   45     -1.45157    0.05199
   46     -1.41374    0.03591
   47     -1.36222    0.02161

Fermi level: -1.81392

Gap: 0.086 eV
Transition (v -> c):
  (s=0, k=0, n=36, [0.25, 0.25, 0.00]) -> (s=0, k=0, n=37, [0.25, 0.25, 0.00])
No difference between direct/indirect transitions

Forces in eV/Ang:
  0 Li    0.00227    0.00000    0.09402
  1 Li   -0.00000   -0.00180    0.09841
  2 Li   -0.00000    0.00000   -0.01068
  3 Li   -0.00644    0.00383   -0.04890
  4 Li   -0.01286    0.00000   -0.02537
  5 Li   -0.00000    0.09251   -0.14383
  6 Li   -0.00000    0.00000   -0.19193
  7 Li    0.08655   -0.06973    0.01165
  8 Li   -0.00022   -0.00326    0.09190
  9 Li   -0.00000    0.00000    0.08732
 10 Li   -0.00000    0.00784   -0.05192
 11 Li    0.00089    0.00000   -0.03181
 12 Li    0.00265   -0.01658    0.02996
 13 Li   -0.00000    0.00000    0.04294
 14 Li   -0.00000   -0.07397   -0.01635
 15 Li    0.00731    0.00000   -0.07502
 16 Li   -0.00022    0.00326    0.09190
 17 Li   -0.00000    0.00180    0.09841
 18 Li   -0.00000   -0.00784   -0.05192
 19 Li   -0.00644   -0.00383   -0.04890
 20 Li    0.00265    0.01658    0.02996
 21 Li   -0.00000   -0.09251   -0.14383
 22 Li   -0.00000    0.07397   -0.01635
 23 Li    0.08655    0.06973    0.01165
 24 Li   -0.00227    0.00000    0.09402
 25 Li    0.00427   -0.00006    0.08550
 26 Li   -0.00058    0.00000   -0.03701
 27 Li    0.00644    0.00383   -0.04890
 28 Li    0.01287    0.00000   -0.02537
 29 Li   -0.00337   -0.00091    0.02227
 30 Li   -0.01192    0.00000   -0.06310
 31 Li   -0.08655   -0.06973    0.01165
 32 Li    0.00022   -0.00326    0.09190
 33 Li    0.00752    0.00000    0.09135
 34 Li    0.00021    0.00075   -0.03216
 35 Li   -0.00089    0.00000   -0.03181
 36 Li   -0.00265   -0.01658    0.02996
 37 Li   -0.00117    0.00000    0.02021
 38 Li   -0.00925   -0.00820   -0.07564
 39 Li   -0.00731    0.00000   -0.07502
 40 Li    0.00022    0.00326    0.09190
 41 Li    0.00427    0.00006    0.08550
 42 Li    0.00021   -0.00075   -0.03216
 43 Li    0.00644   -0.00383   -0.04890
 44 Li   -0.00265    0.01658    0.02996
 45 Li   -0.00337    0.00091    0.02227
 46 Li   -0.00925    0.00820   -0.07564
 47 Li   -0.08655    0.06973    0.01165
 48 Li   -0.00000    0.00000    0.08954
 49 Li   -0.00427   -0.00006    0.08550
 50 Li    0.00058    0.00000   -0.03700
 51 Li   -0.00000    0.00182   -0.03492
 52 Li    0.00000    0.00000    0.02284
 53 Li    0.00337   -0.00091    0.02227
 54 Li    0.01192    0.00000   -0.06310
 55 Li   -0.00000   -0.00228   -0.07593
 56 Li   -0.00000    0.00148    0.09015
 57 Li   -0.00751    0.00000    0.09135
 58 Li   -0.00021    0.00075   -0.03216
 59 Li   -0.00000    0.00000   -0.03161
 60 Li    0.00000    0.00163    0.01860
 61 Li    0.00117    0.00000    0.02021
 62 Li    0.00925   -0.00820   -0.07564
 63 Li    0.00000    0.00000   -0.07575
 64 Li   -0.00000   -0.00148    0.09015
 65 Li   -0.00427    0.00006    0.08550
 66 Li   -0.00021   -0.00075   -0.03216
 67 Li   -0.00000   -0.00182   -0.03492
 68 Li    0.00000   -0.00163    0.01860
 69 Li    0.00337    0.00091    0.02227
 70 Li    0.00925    0.00820   -0.07564
 71 Li   -0.00000    0.00228   -0.07593
 72 Li    0.00000    0.00000    0.01492

System changes: positions 

Initializing position-dependent things.

Density initialized from wave functions
       .-----------------------------------.  
      /|                                   |  
     / |                                   |  
    /  |                                   |  
   /   |                                   |  
  /    |                                   |  
 *     |                                   |  
 |     |                                   |  
 |     |                                   |  
 |     |                                   |  
 |     |                                   |  
 |     |                                   |  
 |     |                                   |  
 |    Li          Li          Li           |  
 |     |   Li          Li          Li      |  
 |     |        Li          Li          Li |  
 |     LiLi Li       Li Li       Li Li     |  
 |Li   |      Li Li       Li Li          Li|  
 |     |  Li       Li Li       Li Li       |  
 |     Li      Li          Li          Li  |  
 |    LiLi        LiLi        LiLi         |  
 |     |   LiLi        LiLi        LiLi    |  
 |  Li |        Li          Li             |  
 |     | Li Li       Li Li       Li Li     |  
 |Li Li|      Li Li       Li Li            |  
 |     Li Li       Li Li       Li Li       |  
 | Li  |       Li          Li              |  
 |     |Li          Li          Li         |  
 Li    |     Li          Li                |  
 |     |                                   |  
 |     |                                   |  
 |     |                                   |  
 |     |                                   |  
 |     |                                   |  
 |     .-----------------------------------.  
 |    /                                   /   
 |   /                                   /    
 |  /                                   /     
 | /                                   /      
 |/                                   /       
 *-----------------------------------*        

Atomic positions and initial magnetic moments

Positions:
   0 Li     0.000000    0.000000   10.000000    ( 0.0000,  0.0000,  0.0000)
   1 Li     2.467803    1.745000   10.000000    ( 0.0000,  0.0000,  0.0000)
   2 Li     2.467803    0.000000   12.467803    ( 0.0000,  0.0000,  0.0000)
   3 Li     0.000000    1.745000   12.467803    ( 0.0000,  0.0000,  0.0000)
   4 Li    -0.001601    0.000000   14.934337    ( 0.0000,  0.0000,  0.0000)
   5 Li     2.467802    1.750212   14.925862    ( 0.0000,  0.0000,  0.0000)
   6 Li     2.467803    0.000000   17.014561    ( 0.0000,  0.0000,  0.0000)
   7 Li     0.029475    1.724184   17.408713    ( 0.0000,  0.0000,  0.0000)
   8 Li     0.000000    3.490000   10.000000    ( 0.0000,  0.0000,  0.0000)
   9 Li     2.467803    5.235000   10.000000    ( 0.0000,  0.0000,  0.0000)
  10 Li     2.467803    3.490000   12.467803    ( 0.0000,  0.0000,  0.0000)
  11 Li     0.000000    5.235000   12.467803    ( 0.0000,  0.0000,  0.0000)
  12 Li    -0.000703    3.489002   14.943430    ( 0.0000,  0.0000,  0.0000)
  13 Li     2.467802    5.235000   14.947302    ( 0.0000,  0.0000,  0.0000)
  14 Li     2.467802    3.459916   17.402735    ( 0.0000,  0.0000,  0.0000)
  15 Li    -0.000363    5.235000   17.380683    ( 0.0000,  0.0000,  0.0000)
  16 Li     0.000000    6.980000   10.000000    ( 0.0000,  0.0000,  0.0000)
  17 Li     2.467803    8.725000   10.000000    ( 0.0000,  0.0000,  0.0000)
  18 Li     2.467803    6.980000   12.467803    ( 0.0000,  0.0000,  0.0000)
  19 Li     0.000000    8.725000   12.467803    ( 0.0000,  0.0000,  0.0000)
  20 Li    -0.000703    6.980998   14.943430    ( 0.0000,  0.0000,  0.0000)
  21 Li     2.467802    8.719788   14.925862    ( 0.0000,  0.0000,  0.0000)
  22 Li     2.467802    7.010084   17.402735    ( 0.0000,  0.0000,  0.0000)
  23 Li     0.029475    8.745816   17.408713    ( 0.0000,  0.0000,  0.0000)
  24 Li     4.935605    0.000000   10.000000    ( 0.0000,  0.0000,  0.0000)
  25 Li     7.403408    1.745000   10.000000    ( 0.0000,  0.0000,  0.0000)
  26 Li     7.403408    0.000000   12.467803    ( 0.0000,  0.0000,  0.0000)
  27 Li     4.935605    1.745000   12.467803    ( 0.0000,  0.0000,  0.0000)
  28 Li     4.937206   -0.000000   14.934337    ( 0.0000,  0.0000,  0.0000)
  29 Li     7.402296    1.745353   14.944810    ( 0.0000,  0.0000,  0.0000)
  30 Li     7.399075   -0.000000   17.385758    ( 0.0000,  0.0000,  0.0000)
  31 Li     4.906130    1.724184   17.408712    ( 0.0000,  0.0000,  0.0000)
  32 Li     4.935605    3.490000   10.000000    ( 0.0000,  0.0000,  0.0000)
  33 Li     7.403408    5.235000   10.000000    ( 0.0000,  0.0000,  0.0000)
  34 Li     7.403408    3.490000   12.467803    ( 0.0000,  0.0000,  0.0000)
  35 Li     4.935605    5.235000   12.467803    ( 0.0000,  0.0000,  0.0000)
  36 Li     4.936308    3.489003   14.943431    ( 0.0000,  0.0000,  0.0000)
  37 Li     7.402446    5.235000   14.945475    ( 0.0000,  0.0000,  0.0000)
  38 Li     7.404263    3.489506   17.380487    ( 0.0000,  0.0000,  0.0000)
  39 Li     4.935968    5.235000   17.380683    ( 0.0000,  0.0000,  0.0000)
  40 Li     4.935605    6.980000   10.000000    ( 0.0000,  0.0000,  0.0000)
  41 Li     7.403408    8.725000   10.000000    ( 0.0000,  0.0000,  0.0000)
  42 Li     7.403408    6.980000   12.467803    ( 0.0000,  0.0000,  0.0000)
  43 Li     4.935605    8.725000   12.467803    ( 0.0000,  0.0000,  0.0000)
  44 Li     4.936308    6.980997   14.943431    ( 0.0000,  0.0000,  0.0000)
  45 Li     7.402296    8.724647   14.944810    ( 0.0000,  0.0000,  0.0000)
  46 Li     7.404263    6.980494   17.380487    ( 0.0000,  0.0000,  0.0000)
  47 Li     4.906130    8.745816   17.408712    ( 0.0000,  0.0000,  0.0000)
  48 Li     9.871211    0.000000   10.000000    ( 0.0000,  0.0000,  0.0000)
  49 Li    12.339013    1.745000   10.000000    ( 0.0000,  0.0000,  0.0000)
  50 Li    12.339013    0.000000   12.467803    ( 0.0000,  0.0000,  0.0000)
  51 Li     9.871211    1.745000   12.467803    ( 0.0000,  0.0000,  0.0000)
  52 Li     9.871211   -0.000000   14.945199    ( 0.0000,  0.0000,  0.0000)
  53 Li    12.340126    1.745353   14.944810    ( 0.0000,  0.0000,  0.0000)
  54 Li    12.343347    0.000000   17.385758    ( 0.0000,  0.0000,  0.0000)
  55 Li     9.871211    1.744710   17.381224    ( 0.0000,  0.0000,  0.0000)
  56 Li     9.871211    3.490000   10.000000    ( 0.0000,  0.0000,  0.0000)
  57 Li    12.339013    5.235000   10.000000    ( 0.0000,  0.0000,  0.0000)
  58 Li    12.339013    3.490000   12.467803    ( 0.0000,  0.0000,  0.0000)
  59 Li     9.871211    5.235000   12.467803    ( 0.0000,  0.0000,  0.0000)
  60 Li     9.871211    3.490527   14.943503    ( 0.0000,  0.0000,  0.0000)
  61 Li    12.339976    5.235000   14.945477    ( 0.0000,  0.0000,  0.0000)
  62 Li    12.338159    3.489506   17.380486    ( 0.0000,  0.0000,  0.0000)
  63 Li     9.871211    5.235000   17.381750    ( 0.0000,  0.0000,  0.0000)
  64 Li     9.871211    6.980000   10.000000    ( 0.0000,  0.0000,  0.0000)
  65 Li    12.339013    8.725000   10.000000    ( 0.0000,  0.0000,  0.0000)
  66 Li    12.339013    6.980000   12.467803    ( 0.0000,  0.0000,  0.0000)
  67 Li     9.871211    8.725000   12.467803    ( 0.0000,  0.0000,  0.0000)
  68 Li     9.871211    6.979473   14.943503    ( 0.0000,  0.0000,  0.0000)
  69 Li    12.340126    8.724647   14.944810    ( 0.0000,  0.0000,  0.0000)
  70 Li    12.338159    6.980494   17.380486    ( 0.0000,  0.0000,  0.0000)
  71 Li     9.871211    8.725290   17.381224    ( 0.0000,  0.0000,  0.0000)
  72 Li     2.467804   -0.000000   19.678024    ( 0.0000,  0.0000,  0.0000)

Unit cell:
           periodic     x           y           z      points  spacing
  1. axis:    yes   14.806816    0.000000    0.000000    49     0.3022
  2. axis:    yes    0.000000   10.470000    0.000000    35     0.2991
  3. axis:    no     0.000000    0.000000   27.403408    90     0.3045

  Lengths:  14.806816  10.470000  27.403408
  Angles:   90.000000  90.000000  90.000000

Effective grid spacing dv^(1/3) = 0.3019

     iter     time        total  log10-change:
                         energy   eigst   dens
iter:   1 02:22:55  -128.446307   -2.81
iter:   2 02:22:58  -128.414111   -3.60  -1.76
iter:   3 02:23:01  -128.406118   -3.87  -1.91
iter:   4 02:23:04  -128.405607c  -3.94  -2.25
iter:   5 02:23:07  -128.403613c  -4.73  -2.41
iter:   6 02:23:09  -128.403667c  -4.80  -2.76
iter:   7 02:23:12  -128.403856c  -5.36c -2.94
iter:   8 02:23:15  -128.403505c  -5.85c -3.05
iter:   9 02:23:18  -128.403423c  -6.23c -3.23
iter:  10 02:23:20  -128.403534c  -6.28c -3.32
iter:  11 02:23:23  -128.403520c  -6.80c -3.42
iter:  12 02:23:26  -128.403421c  -6.34c -3.49
iter:  13 02:23:29  -128.403510c  -6.87c -3.51
iter:  14 02:23:32  -128.403548c  -7.06c -3.71
iter:  15 02:23:35  -128.403491c  -7.03c -3.81
iter:  16 02:23:38  -128.403542c  -7.15c -3.86
iter:  17 02:23:42  -128.403546c  -7.59c -4.15c

Converged after 17 iterations.

Dipole moment: (-1.569782, 0.000000, 0.402639) |e|*Ang

Energy contributions relative to reference atoms: (reference = -14803.510878)

Kinetic:       +107.955308
Potential:      -95.772638
External:        +0.000000
XC:            -139.411278
Entropy (-ST):   -1.409949
Local:           -0.469963
SIC:             +0.000000
--------------------------
Free energy:   -129.108521
Extrapolated:  -128.403546

 Band  Eigenvalues  Occupancy
    0     -5.07248    2.00000
    1     -4.81299    2.00000
    2     -4.55329    2.00000
    3     -4.50315    2.00000
    4     -4.29850    2.00000
    5     -4.29183    2.00000
    6     -4.24059    2.00000
    7     -3.98543    2.00000
    8     -3.78124    2.00000
    9     -3.73319    2.00000
   10     -3.71479    2.00000
   11     -3.52133    2.00000
   12     -3.50390    2.00000
   13     -3.46491    2.00000
   14     -3.25913    2.00000
   15     -3.22319    2.00000
   16     -3.18996    2.00000
   17     -3.00705    1.99999
   18     -2.95899    1.99998
   19     -2.93897    1.99997
   20     -2.92710    1.99997
   21     -2.76696    1.99986
   22     -2.72733    1.99979
   23     -2.69309    1.99971
   24     -2.64226    1.99951
   25     -2.52448    1.99842
   26     -2.45721    1.99690
   27     -2.30766    1.98625
   28     -2.27145    1.98031
   29     -2.16256    1.94260
   30     -2.02565    1.79182
   31     -1.99329    1.72331
   32     -1.96825    1.65802
   33     -1.92214    1.50707
   34     -1.91683    1.48708
   35     -1.88974    1.37716
   36     -1.82829    1.08930
   37     -1.74228    0.67207
   38     -1.71579    0.55940
   39     -1.67758    0.41896
   40     -1.66708    0.38524
   41     -1.51568    0.09975
   42     -1.50839    0.09306
   43     -1.47819    0.06965
   44     -1.45401    0.05510
   45     -1.44795    0.05195
   46     -1.41113    0.03624
   47     -1.35850    0.02157

Fermi level: -1.81039

Gap: 0.086 eV
Transition (v -> c):
  (s=0, k=0, n=36, [0.25, 0.25, 0.00]) -> (s=0, k=0, n=37, [0.25, 0.25, 0.00])
No difference between direct/indirect transitions

Forces in eV/Ang:
  0 Li    0.00218    0.00000    0.09392
  1 Li   -0.00000   -0.00156    0.09861
  2 Li   -0.00000    0.00000   -0.00836
  3 Li   -0.00691    0.00466   -0.04972
  4 Li   -0.01499    0.00000   -0.02993
  5 Li   -0.00000    0.11023   -0.16520
  6 Li   -0.00000    0.00000   -0.01177
  7 Li    0.07993   -0.06706    0.01017
  8 Li    0.00004   -0.00333    0.09210
  9 Li   -0.00000    0.00000    0.08661
 10 Li   -0.00000    0.01028   -0.05414
 11 Li    0.00101    0.00000   -0.02968
 12 Li    0.00331   -0.01901    0.02889
 13 Li   -0.00000    0.00000    0.04140
 14 Li   -0.00000   -0.06445   -0.01851
 15 Li    0.00986    0.00000   -0.07004
 16 Li    0.00004    0.00333    0.09210
 17 Li   -0.00000    0.00156    0.09861
 18 Li   -0.00000   -0.01028   -0.05414
 19 Li   -0.00691   -0.00466   -0.04972
 20 Li    0.00331    0.01901    0.02889
 21 Li   -0.00000   -0.11023   -0.16520
 22 Li   -0.00000    0.06445   -0.01851
 23 Li    0.07993    0.06706    0.01017
 24 Li   -0.00218    0.00000    0.09393
 25 Li    0.00420   -0.00013    0.08533
 26 Li   -0.00007    0.00000   -0.03614
 27 Li    0.00691    0.00466   -0.04972
 28 Li    0.01499    0.00000   -0.02993
 29 Li   -0.00270   -0.00144    0.01799
 30 Li   -0.01134    0.00000   -0.06041
 31 Li   -0.07993   -0.06706    0.01017
 32 Li   -0.00004   -0.00333    0.09210
 33 Li    0.00757    0.00000    0.09152
 34 Li    0.00003    0.00060   -0.03085
 35 Li   -0.00100    0.00000   -0.02968
 36 Li   -0.00331   -0.01901    0.02889
 37 Li   -0.00080    0.00000    0.01519
 38 Li   -0.01248   -0.00978   -0.07113
 39 Li   -0.00986    0.00000   -0.07004
 40 Li   -0.00004    0.00333    0.09210
 41 Li    0.00420    0.00013    0.08533
 42 Li    0.00003   -0.00060   -0.03085
 43 Li    0.00691   -0.00466   -0.04972
 44 Li   -0.00331    0.01901    0.02889
 45 Li   -0.00270    0.00144    0.01799
 46 Li   -0.01248    0.00978   -0.07113
 47 Li   -0.07993    0.06706    0.01017
 48 Li   -0.00000    0.00000    0.08975
 49 Li   -0.00420   -0.00013    0.08533
 50 Li    0.00007    0.00000   -0.03614
 51 Li   -0.00000    0.00173   -0.03400
 52 Li    0.00000    0.00000    0.01825
 53 Li    0.00270   -0.00144    0.01799
 54 Li    0.01134    0.00000   -0.06041
 55 Li   -0.00000   -0.00260   -0.07232
 56 Li   -0.00000    0.00154    0.09012
 57 Li   -0.00757    0.00000    0.09152
 58 Li   -0.00003    0.00060   -0.03084
 59 Li   -0.00000    0.00000   -0.03115
 60 Li   -0.00000    0.00137    0.01471
 61 Li    0.00080    0.00000    0.01519
 62 Li    0.01248   -0.00978   -0.07113
 63 Li    0.00000    0.00000   -0.07259
 64 Li   -0.00000   -0.00154    0.09012
 65 Li   -0.00420    0.00013    0.08533
 66 Li   -0.00003   -0.00060   -0.03084
 67 Li   -0.00000   -0.00173   -0.03400
 68 Li   -0.00000   -0.00137    0.01471
 69 Li    0.00270    0.00144    0.01799
 70 Li    0.01248    0.00978   -0.07113
 71 Li   -0.00000    0.00260   -0.07232
 72 Li   -0.00000    0.00000   -0.10644

System changes: positions 

Initializing position-dependent things.

Density initialized from wave functions
       .-----------------------------------.  
      /|                                   |  
     / |                                   |  
    /  |                                   |  
   /   |                                   |  
  /    |                                   |  
 *     |                                   |  
 |     |                                   |  
 |     |                                   |  
 |     |                                   |  
 |     |                                   |  
 |     |                                   |  
 |     |                                   |  
 |    Li          Li          Li           |  
 |     |   Li          Li          Li      |  
 |     |        Li          Li          Li |  
 |     LiLi Li       Li Li       Li Li     |  
 |Li   |      Li Li       Li Li          Li|  
 |     |  Li       Li Li       Li Li       |  
 |     Li      Li          Li          Li  |  
 |    LiLi        LiLi        LiLi         |  
 |     |   LiLi        LiLi        LiLi    |  
 |  Li |        Li          Li             |  
 |     | Li Li       Li Li       Li Li     |  
 |Li Li|      Li Li       Li Li            |  
 |     Li Li       Li Li       Li Li       |  
 | Li  |       Li          Li              |  
 |     |Li          Li          Li         |  
 Li    |     Li          Li                |  
 |     |                                   |  
 |     |                                   |  
 |     |                                   |  
 |     |                                   |  
 |     |                                   |  
 |     .-----------------------------------.  
 |    /                                   /   
 |   /                                   /    
 |  /                                   /     
 | /                                   /      
 |/                                   /       
 *-----------------------------------*        

Atomic positions and initial magnetic moments

Positions:
   0 Li     0.000000    0.000000   10.000000    ( 0.0000,  0.0000,  0.0000)
   1 Li     2.467803    1.745000   10.000000    ( 0.0000,  0.0000,  0.0000)
   2 Li     2.467803    0.000000   12.467803    ( 0.0000,  0.0000,  0.0000)
   3 Li     0.000000    1.745000   12.467803    ( 0.0000,  0.0000,  0.0000)
   4 Li    -0.002064    0.000000   14.933529    ( 0.0000,  0.0000,  0.0000)
   5 Li     2.467802    1.753213   14.921220    ( 0.0000,  0.0000,  0.0000)
   6 Li     2.467803    0.000000   16.990359    ( 0.0000,  0.0000,  0.0000)
   7 Li     0.033276    1.721242   17.409291    ( 0.0000,  0.0000,  0.0000)
   8 Li     0.000000    3.490000   10.000000    ( 0.0000,  0.0000,  0.0000)
   9 Li     2.467803    5.235000   10.000000    ( 0.0000,  0.0000,  0.0000)
  10 Li     2.467803    3.490000   12.467803    ( 0.0000,  0.0000,  0.0000)
  11 Li     0.000000    5.235000   12.467803    ( 0.0000,  0.0000,  0.0000)
  12 Li    -0.000665    3.488475   14.944630    ( 0.0000,  0.0000,  0.0000)
  13 Li     2.467802    5.235000   14.949050    ( 0.0000,  0.0000,  0.0000)
  14 Li     2.467802    3.456455   17.402238    ( 0.0000,  0.0000,  0.0000)
  15 Li    -0.000149    5.235000   17.377540    ( 0.0000,  0.0000,  0.0000)
[...]
 44 Li   -0.01773    0.00158   -0.00781
 45 Li    0.00543    0.01409   -0.00508
 46 Li    0.00578   -0.00974   -0.01878
 47 Li   -0.01206   -0.02209   -0.02745
 48 Li    0.00000    0.00000    0.08983
 49 Li   -0.00429   -0.00046    0.08526
 50 Li    0.00193    0.00000   -0.07094
 51 Li   -0.00000   -0.00243   -0.06496
 52 Li    0.00000    0.00000   -0.01548
 53 Li   -0.00543   -0.01409   -0.00507
 54 Li   -0.03282    0.00000   -0.02897
 55 Li   -0.00000    0.00118   -0.01579
 56 Li   -0.00000    0.00116    0.08863
 57 Li   -0.00710    0.00000    0.09421
 58 Li   -0.00181   -0.00458   -0.05672
 59 Li   -0.00000    0.00000   -0.06006
 60 Li    0.00000    0.00312   -0.00782
 61 Li   -0.00309    0.00000    0.01294
 62 Li   -0.00578    0.00974   -0.01878
 63 Li   -0.00000    0.00000   -0.01950
 64 Li   -0.00000   -0.00116    0.08863
 65 Li   -0.00429    0.00046    0.08526
 66 Li   -0.00181    0.00458   -0.05672
 67 Li   -0.00000    0.00243   -0.06496
 68 Li    0.00000   -0.00312   -0.00782
 69 Li   -0.00543    0.01409   -0.00507
 70 Li   -0.00578   -0.00974   -0.01878
 71 Li   -0.00000   -0.00118   -0.01579
 72 Li    0.00000    0.00000    0.06077

System changes: positions 

Initializing position-dependent things.

Density initialized from wave functions
       .-----------------------------------.  
      /|                                   |  
     / |                                   |  
    /  |                                   |  
   /   |                                   |  
  /    |                                   |  
 *     |                                   |  
 |     |                                   |  
 |     |                                   |  
 |     |                                   |  
 |     |                                   |  
 |     |                                   |  
 |     |                                   |  
 |    Li          Li                       |  
 |     |   Li                 Li           |  
 |     |               Li          Li      |  
 |  Li Li       Li          Li             |  
 |Li   | Li LiLi Li  Li Li       Li Li   Li|  
 |     |  Li              Li Li            |  
 |     Li      Li  Li Li       Li Li   Li  |  
 |    Li          Li       Li Li           |  
 |     |Li Li       Li Li       Li Li      |  
 Li Li |     Li Li       Li Li             |  
 |     | Li Li       Li Li       Li Li     |  
 |Li Li|      Li Li       Li Li            |  
 |     Li Li       Li Li       Li Li       |  
 | Li  |       Li          Li              |  
 |     |Li          Li          Li         |  
 Li    |     Li          Li                |  
 |     |                                   |  
 |     |                                   |  
 |     |                                   |  
 |     |                                   |  
 |     |                                   |  
 |     .-----------------------------------.  
 |    /                                   /   
 |   /                                   /    
 |  /                                   /     
 | /                                   /      
 |/                                   /       
 *-----------------------------------*        

Atomic positions and initial magnetic moments

Positions:
   0 Li     0.000000    0.000000   10.000000    ( 0.0000,  0.0000,  0.0000)
   1 Li     2.467803    1.745000   10.000000    ( 0.0000,  0.0000,  0.0000)
   2 Li     2.467803    0.000000   12.467803    ( 0.0000,  0.0000,  0.0000)
   3 Li     0.000000    1.745000   12.467803    ( 0.0000,  0.0000,  0.0000)
   4 Li     0.027026    0.000000   14.859733    ( 0.0000,  0.0000,  0.0000)
   5 Li     2.467802    1.835552   14.730330    ( 0.0000,  0.0000,  0.0000)
   6 Li     2.467800    0.000000   16.720248    ( 0.0000,  0.0000,  0.0000)
   7 Li     0.130515    1.592995   17.431671    ( 0.0000,  0.0000,  0.0000)
   8 Li     0.000000    3.490000   10.000000    ( 0.0000,  0.0000,  0.0000)
   9 Li     2.467803    5.235000   10.000000    ( 0.0000,  0.0000,  0.0000)
  10 Li     2.467803    3.490000   12.467803    ( 0.0000,  0.0000,  0.0000)
  11 Li     0.000000    5.235000   12.467803    ( 0.0000,  0.0000,  0.0000)
  12 Li    -0.018360    3.427806   14.968943    ( 0.0000,  0.0000,  0.0000)
  13 Li     2.467801    5.235000   14.992803    ( 0.0000,  0.0000,  0.0000)
  14 Li     2.467800    3.345913   17.324220    ( 0.0000,  0.0000,  0.0000)
  15 Li     0.071353    5.235000   17.261301    ( 0.0000,  0.0000,  0.0000)
  16 Li     0.000000    6.980000   10.000000    ( 0.0000,  0.0000,  0.0000)
  17 Li     2.467803    8.725000   10.000000    ( 0.0000,  0.0000,  0.0000)
  18 Li     2.467803    6.980000   12.467803    ( 0.0000,  0.0000,  0.0000)
  19 Li     0.000000    8.725000   12.467803    ( 0.0000,  0.0000,  0.0000)
  20 Li    -0.018360    7.042194   14.968943    ( 0.0000,  0.0000,  0.0000)
  21 Li     2.467802    8.634448   14.730330    ( 0.0000,  0.0000,  0.0000)
  22 Li     2.467800    7.124087   17.324220    ( 0.0000,  0.0000,  0.0000)
  23 Li     0.130515    8.877005   17.431671    ( 0.0000,  0.0000,  0.0000)
  24 Li     4.935605    0.000000   10.000000    ( 0.0000,  0.0000,  0.0000)
  25 Li     7.403408    1.745000   10.000000    ( 0.0000,  0.0000,  0.0000)
  26 Li     7.403408    0.000000   12.467803    ( 0.0000,  0.0000,  0.0000)
  27 Li     4.935605    1.745000   12.467803    ( 0.0000,  0.0000,  0.0000)
  28 Li     4.908581   -0.000000   14.859733    ( 0.0000,  0.0000,  0.0000)
  29 Li     7.407952    1.733155   14.894146    ( 0.0000,  0.0000,  0.0000)
  30 Li     7.343077    0.000000   17.259968    ( 0.0000,  0.0000,  0.0000)
  31 Li     4.805087    1.592996   17.431670    ( 0.0000,  0.0000,  0.0000)
  32 Li     4.935605    3.490000   10.000000    ( 0.0000,  0.0000,  0.0000)
  33 Li     7.403408    5.235000   10.000000    ( 0.0000,  0.0000,  0.0000)
  34 Li     7.403408    3.490000   12.467803    ( 0.0000,  0.0000,  0.0000)
  35 Li     4.935605    5.235000   12.467803    ( 0.0000,  0.0000,  0.0000)
  36 Li     4.953965    3.427806   14.968943    ( 0.0000,  0.0000,  0.0000)
  37 Li     7.395513    5.235000   14.900339    ( 0.0000,  0.0000,  0.0000)
  38 Li     7.324769    3.445557   17.244331    ( 0.0000,  0.0000,  0.0000)
  39 Li     4.864248    5.235000   17.261301    ( 0.0000,  0.0000,  0.0000)
  40 Li     4.935605    6.980000   10.000000    ( 0.0000,  0.0000,  0.0000)
  41 Li     7.403408    8.725000   10.000000    ( 0.0000,  0.0000,  0.0000)
  42 Li     7.403408    6.980000   12.467803    ( 0.0000,  0.0000,  0.0000)
  43 Li     4.935605    8.725000   12.467803    ( 0.0000,  0.0000,  0.0000)
  44 Li     4.953965    7.042194   14.968943    ( 0.0000,  0.0000,  0.0000)
  45 Li     7.407952    8.736845   14.894146    ( 0.0000,  0.0000,  0.0000)
  46 Li     7.324769    7.024443   17.244331    ( 0.0000,  0.0000,  0.0000)
  47 Li     4.805087    8.877004   17.431670    ( 0.0000,  0.0000,  0.0000)
  48 Li     9.871211    0.000000   10.000000    ( 0.0000,  0.0000,  0.0000)
  49 Li    12.339013    1.745000   10.000000    ( 0.0000,  0.0000,  0.0000)
  50 Li    12.339013    0.000000   12.467803    ( 0.0000,  0.0000,  0.0000)
  51 Li     9.871211    1.745000   12.467803    ( 0.0000,  0.0000,  0.0000)
  52 Li     9.871212    0.000000   14.900257    ( 0.0000,  0.0000,  0.0000)
  53 Li    12.334473    1.733154   14.894145    ( 0.0000,  0.0000,  0.0000)
  54 Li    12.399345    0.000000   17.259968    ( 0.0000,  0.0000,  0.0000)
  55 Li     9.871212    1.735882   17.228811    ( 0.0000,  0.0000,  0.0000)
  56 Li     9.871211    3.490000   10.000000    ( 0.0000,  0.0000,  0.0000)
  57 Li    12.339013    5.235000   10.000000    ( 0.0000,  0.0000,  0.0000)
  58 Li    12.339013    3.490000   12.467803    ( 0.0000,  0.0000,  0.0000)
  59 Li     9.871211    5.235000   12.467803    ( 0.0000,  0.0000,  0.0000)
  60 Li     9.871212    3.485791   14.893574    ( 0.0000,  0.0000,  0.0000)
  61 Li    12.346911    5.235000   14.900337    ( 0.0000,  0.0000,  0.0000)
  62 Li    12.417655    3.445556   17.244332    ( 0.0000,  0.0000,  0.0000)
  63 Li     9.871212    5.235000   17.231554    ( 0.0000,  0.0000,  0.0000)
  64 Li     9.871211    6.980000   10.000000    ( 0.0000,  0.0000,  0.0000)
  65 Li    12.339013    8.725000   10.000000    ( 0.0000,  0.0000,  0.0000)
  66 Li    12.339013    6.980000   12.467803    ( 0.0000,  0.0000,  0.0000)
  67 Li     9.871211    8.725000   12.467803    ( 0.0000,  0.0000,  0.0000)
  68 Li     9.871212    6.984209   14.893574    ( 0.0000,  0.0000,  0.0000)
  69 Li    12.334473    8.736846   14.894145    ( 0.0000,  0.0000,  0.0000)
  70 Li    12.417655    7.024444   17.244332    ( 0.0000,  0.0000,  0.0000)
  71 Li     9.871212    8.734118   17.228811    ( 0.0000,  0.0000,  0.0000)
  72 Li     2.467805   -0.000000   19.322725    ( 0.0000,  0.0000,  0.0000)

Unit cell:
           periodic     x           y           z      points  spacing
  1. axis:    yes   14.806816    0.000000    0.000000    49     0.3022
  2. axis:    yes    0.000000   10.470000    0.000000    35     0.2991
  3. axis:    no     0.000000    0.000000   27.403408    90     0.3045

  Lengths:  14.806816  10.470000  27.403408
  Angles:   90.000000  90.000000  90.000000

Effective grid spacing dv^(1/3) = 0.3019

     iter     time        total  log10-change:
                         energy   eigst   dens
iter:   1 02:38:03  -128.743546   -2.26
iter:   2 02:38:06  -128.620059   -3.01  -1.46
iter:   3 02:38:09  -128.592805   -3.33  -1.65
iter:   4 02:38:14  -128.591150c  -3.45  -2.03
iter:   5 02:38:18  -128.589475c  -4.43  -2.32
iter:   6 02:38:23  -128.588611c  -4.52  -2.50
iter:   7 02:38:26  -128.588982c  -5.05  -2.85
iter:   8 02:38:30  -128.588576c  -5.46c -2.99
iter:   9 02:38:36  -128.588579c  -6.06c -3.08
iter:  10 02:38:42  -128.588812c  -5.70c -3.15
iter:  11 02:38:47  -128.588656c  -6.26c -3.25
iter:  12 02:38:52  -128.588654c  -6.29c -3.41
iter:  13 02:39:00  -128.588701c  -6.50c -3.50
iter:  14 02:39:06  -128.588721c  -6.74c -3.60
iter:  15 02:39:11  -128.588655c  -6.63c -3.69
iter:  16 02:39:17  -128.588677c  -6.88c -3.79
iter:  17 02:39:21  -128.588689c  -6.73c -3.94
iter:  18 02:39:27  -128.588667c  -7.04c -4.08c

Converged after 18 iterations.

Dipole moment: (-6.745554, 0.000000, 0.352274) |e|*Ang

Energy contributions relative to reference atoms: (reference = -14803.510878)

Kinetic:       +113.868456
Potential:      -99.731373
External:        +0.000000
XC:            -141.549002
Entropy (-ST):   -1.388381
Local:           -0.482558
SIC:             +0.000000
--------------------------
Free energy:   -129.282857
Extrapolated:  -128.588667

 Band  Eigenvalues  Occupancy
    0     -5.09888    2.00000
    1     -4.84085    2.00000
    2     -4.58291    2.00000
    3     -4.51620    2.00000
    4     -4.33001    2.00000
    5     -4.32012    2.00000
    6     -4.25329    2.00000
    7     -4.00132    2.00000
    8     -3.81302    2.00000
    9     -3.75031    2.00000
   10     -3.72921    2.00000
   11     -3.55580    2.00000
   12     -3.53523    2.00000
   13     -3.47379    2.00000
   14     -3.29185    2.00000
   15     -3.23884    2.00000
   16     -3.19566    2.00000
   17     -3.04196    1.99999
   18     -2.97182    1.99998
   19     -2.95210    1.99997
   20     -2.93609    1.99997
   21     -2.80011    1.99988
   22     -2.74332    1.99980
   23     -2.69574    1.99967
   24     -2.64901    1.99948
   25     -2.56213    1.99876
   26     -2.47194    1.99694
   27     -2.32017    1.98610
   28     -2.27505    1.97826
   29     -2.16380    1.93529
   30     -2.06124    1.82941
   31     -2.03154    1.77700
   32     -1.97288    1.63183
   33     -1.95589    1.57804
   34     -1.93978    1.52190
   35     -1.89181    1.32667
   36     -1.81749    0.96750
   37     -1.76022    0.69156
   38     -1.74038    0.60470
   39     -1.68536    0.40001
   40     -1.66324    0.33388
   41     -1.56150    0.13511
   42     -1.51743    0.08910
   43     -1.47748    0.06065
   44     -1.47000    0.05639
   45     -1.44314    0.04340
   46     -1.42802    0.03743
   47     -1.37109    0.02135

Fermi level: -1.82399

Gap: 0.074 eV
Transition (v -> c):
  (s=0, k=0, n=35, [0.25, 0.25, 0.00]) -> (s=0, k=0, n=36, [0.25, 0.25, 0.00])
No difference between direct/indirect transitions

Forces in eV/Ang:
  0 Li    0.00088    0.00000    0.09403
  1 Li   -0.00000   -0.00122    0.10701
  2 Li   -0.00000    0.00000   -0.06094
  3 Li   -0.00995    0.01819   -0.08623
  4 Li   -0.04246    0.00000    0.01085
  5 Li    0.00000    0.04044   -0.01789
  6 Li    0.00000    0.00000   -0.01698
  7 Li   -0.00100    0.03170   -0.03015
  8 Li    0.00019   -0.00423    0.09286
  9 Li   -0.00000    0.00000    0.07912
 10 Li   -0.00000    0.07530   -0.14039
 11 Li    0.00919    0.00000    0.02044
 12 Li    0.01776   -0.00252   -0.01342
 13 Li   -0.00000    0.00000   -0.04785
 14 Li   -0.00000   -0.01744   -0.01740
 15 Li    0.01520    0.00000    0.01396
 16 Li    0.00019    0.00423    0.09286
 17 Li   -0.00000    0.00122    0.10701
 18 Li   -0.00000   -0.07530   -0.14039
 19 Li   -0.00995   -0.01819   -0.08623
 20 Li    0.01776    0.00252   -0.01342
 21 Li    0.00000   -0.04044   -0.01789
 22 Li   -0.00000    0.01744   -0.01740
 23 Li   -0.00100   -0.03170   -0.03015
 24 Li   -0.00088    0.00000    0.09403
 25 Li    0.00429   -0.00044    0.08513
 26 Li   -0.00171    0.00000   -0.07208
 27 Li    0.00995    0.01819   -0.08623
 28 Li    0.04245    0.00000    0.01085
 29 Li    0.00697   -0.01468   -0.01316
 30 Li    0.03232    0.00000   -0.02246
 31 Li    0.00100    0.03170   -0.03015
 32 Li   -0.00019   -0.00423    0.09286
 33 Li    0.00703    0.00000    0.09455
 34 Li    0.00190   -0.00505   -0.05687
 35 Li   -0.00919    0.00000    0.02044
 36 Li   -0.01776   -0.00252   -0.01342
 37 Li    0.00278    0.00000    0.00706
 38 Li    0.00463    0.00974   -0.00920
 39 Li   -0.01520    0.00000    0.01396
 40 Li   -0.00019    0.00423    0.09286
 41 Li    0.00429    0.00044    0.08513
 42 Li    0.00190    0.00505   -0.05687
 43 Li    0.00995   -0.01819   -0.08623
 44 Li   -0.01776    0.00252   -0.01342
 45 Li    0.00697    0.01468   -0.01316
 46 Li    0.00463   -0.00974   -0.00920
 47 Li    0.00100   -0.03170   -0.03015
 48 Li    0.00000    0.00000    0.08992
 49 Li   -0.00428   -0.00044    0.08513
 50 Li    0.00171    0.00000   -0.07208
 51 Li   -0.00000   -0.00274   -0.06612
 52 Li    0.00000    0.00000   -0.02327
 53 Li   -0.00697   -0.01467   -0.01316
 54 Li   -0.03232    0.00000   -0.02246
 55 Li   -0.00000    0.00171   -0.00741
 56 Li   -0.00000    0.00108    0.08842
 57 Li   -0.00703    0.00000    0.09455
 58 Li   -0.00190   -0.00505   -0.05687
 59 Li   -0.00000    0.00000   -0.06100
 60 Li    0.00000    0.00266   -0.01462
 61 Li   -0.00278    0.00000    0.00707
 62 Li   -0.00464    0.00974   -0.00921
 63 Li   -0.00000    0.00000   -0.01092
 64 Li   -0.00000   -0.00108    0.08842
 65 Li   -0.00428    0.00044    0.08513
 66 Li   -0.00190    0.00505   -0.05687
 67 Li   -0.00000    0.00274   -0.06612
 68 Li    0.00000   -0.00266   -0.01462
 69 Li   -0.00697    0.01467   -0.01316
 70 Li   -0.00464   -0.00974   -0.00921
 71 Li   -0.00000   -0.00171   -0.00741
 72 Li    0.00000    0.00000    0.02371

Timing:                                      incl.     excl.
-------------------------------------------------------------------
Density initialized from wave functions:    11.914    11.860   0.3% |
 Symmetrize density:                         0.054     0.054   0.0% |
Forces:                                     80.461    80.461   2.4% ||
Hamiltonian:                                32.741     0.076   0.0% |
 Atomic:                                    17.241     0.059   0.0% |
  XC Correction:                            17.182    17.182   0.5% |
 Calculate atomic Hamiltonians:             11.092    11.092   0.3% |
 Communicate:                                0.000     0.000   0.0% |
 Initialize Hamiltonian:                     0.000     0.000   0.0% |
 Poisson:                                    0.056     0.056   0.0% |
 XC 3D grid:                                 4.276     4.276   0.1% |
LCAO initialization:                         5.097     0.009   0.0% |
 LCAO eigensolver:                           0.279     0.000   0.0% |
  Calculate projections:                     0.002     0.002   0.0% |
  DenseAtomicCorrection:                     0.019     0.019   0.0% |
  Distribute overlap matrix:                 0.000     0.000   0.0% |
  Orbital Layouts:                           0.041     0.041   0.0% |
  Potential matrix:                          0.215     0.215   0.0% |
  Sum over cells:                            0.001     0.001   0.0% |
 LCAO to grid:                               4.317     4.317   0.1% |
 Set positions (LCAO WFS):                   0.492     0.144   0.0% |
  Basic WFS set positions:                   0.001     0.001   0.0% |
  Basis functions set positions:             0.000     0.000   0.0% |
  P tci:                                     0.218     0.218   0.0% |
  ST tci:                                    0.106     0.106   0.0% |
  mktci:                                     0.022     0.022   0.0% |
PWDescriptor:                                0.009     0.009   0.0% |
Redistribute:                                0.020     0.020   0.0% |
SCF-cycle:                                1406.115     0.229   0.0% |
 Davidson:                                 579.241   111.575   3.3% ||
  Apply H:                                 100.578    99.498   2.9% ||
   HMM T:                                    1.079     1.079   0.0% |
  Subspace diag:                           111.028     0.046   0.0% |
   calc_h_matrix:                          103.158     5.651   0.2% |
    Apply H:                                97.507    96.458   2.8% ||
     HMM T:                                  1.049     1.049   0.0% |
   diagonalize:                              0.328     0.328   0.0% |
   rotate_psi:                               7.496     7.496   0.2% |
  calc. matrices:                          237.673    28.910   0.9% |
   Apply H:                                208.762   206.516   6.1% |-|
    HMM T:                                   2.246     2.246   0.1% |
  diagonalize:                               2.658     2.658   0.1% |
  rotate_psi:                               15.729    15.729   0.5% |
 Density:                                  236.743     0.006   0.0% |
  Atomic density matrices:                   1.054     1.054   0.0% |
  Mix:                                     184.660   184.660   5.4% |-|
  Multipole moments:                         0.263     0.263   0.0% |
  Pseudo density:                           50.760    49.726   1.5% ||
   Symmetrize density:                       1.035     1.035   0.0% |
 Hamiltonian:                              588.297     1.067   0.0% |
  Atomic:                                  305.941     1.152   0.0% |
   XC Correction:                          304.789   304.789   9.0% |---|
  Calculate atomic Hamiltonians:           200.643   200.643   5.9% |-|
  Communicate:                               0.002     0.002   0.0% |
  Poisson:                                   0.650     0.650   0.0% |
  XC 3D grid:                               79.993    79.993   2.4% ||
 Orthonormalize:                             1.605     0.003   0.0% |
  calc_s_matrix:                             0.162     0.162   0.0% |
  inverse-cholesky:                          0.008     0.008   0.0% |
  projections:                               1.218     1.218   0.0% |
  rotate_psi_s:                              0.212     0.212   0.0% |
Set symmetry:                                0.002     0.002   0.0% |
Other:                                    1856.458  1856.458  54.7% |---------------------|
-------------------------------------------------------------------
Total:                                              3392.817 100.0%

Memory usage: 4.13 GiB
Date: Tue Nov 25 03:10:05 2025
