
  ___ ___ ___ _ _ _  
 |   |   |_  | | | | 
 | | | | | . | | | | 
 |__ |  _|___|_____|  25.7.0
 |___|_|             

User:   tew@Mathuss-MacBook-Air-357.local
Date:   Tue Nov 25 00:14:31 2025
Arch:   arm64
Pid:    76608
CWD:    /Users/tew/Documents/Project/GitHub/chem-com
Python: 3.13.5
gpaw:   /Users/tew/Documents/Project/GitHub/chem-com/.venv/lib/python3.13/site-packages/gpaw
_gpaw:  /Users/tew/Documents/Project/GitHub/chem-com/.venv/lib/python3.13/site-packages/
        _gpaw.cpython-313-darwin.so
ase:    /Users/tew/Documents/Project/GitHub/chem-com/.venv/lib/python3.13/site-packages/ase (version 3.26.0)
numpy:  /Users/tew/Documents/Project/GitHub/chem-com/.venv/lib/python3.13/site-packages/numpy (version 2.3.5)
scipy:  /Users/tew/Documents/Project/GitHub/chem-com/.venv/lib/python3.13/site-packages/scipy (version 1.16.3)
libxc:  2.x.y
units:  Angstrom and eV
cores: 1
OpenMP: False
OMP_NUM_THREADS: 1

Input parameters:
  convergence: {density: 0.0001,
                eigenstates: 5e-06}
  kpts: [2 2 1]
  mode: {ecut: 200.0,
         name: pw}
  xc: PBE

System changes: positions, numbers, cell, pbc, initial_charges, initial_magmoms 

Initialize ...

species:
  Li:
    name: Lithium
    id: 830b4218f175192f93f959cfc0aad614
    Z: 3.0
    valence: 1
    core: 2
    charge: 0.0
    file: /Users/tew/Documents/Project/GitHub/chem-com/.venv/lib/python3.13/site-packages/gpaw_data/setups/Li.PBE.gz
    compensation charges: {type: gauss,
                           rc: 0.33,
                           lmax: 2}
    cutoffs: {filter: 1.91,
              core: 2.55}
    projectors:
      #              energy  rcut
      - 2s(1.00)    -2.874   1.058
      - 2p(0.00)    -1.090   1.058
      -  s          24.337   1.058
  
    # Using partial waves for Li as LCAO basis

Reference energy: -14803.510878  # eV

Spin-paired calculation

Convergence criteria:
 Maximum [total energy] change in last 3 cyles: 0.0005 eV / valence electron
 Maximum integral of absolute [dens]ity change: 0.0001 electrons / valence electron
 Maximum integral of absolute [eigenst]ate change: 5e-06 eV^2 / valence electron
 Maximum number of scf [iter]ations: 333
 (Square brackets indicate name in SCF output, whereas a 'c' in
 the SCF output indicates the quantity has converged.)

Symmetries present (total): 1

  ( 1  0  0)
  ( 0  1  0)
  ( 0  0  1)

4 k-points: 2 x 2 x 1 Monkhorst-Pack grid
2 k-points in the irreducible part of the Brillouin zone
       k-points in crystal coordinates                weights
   0:     0.25000000   -0.25000000    0.00000000          2/4
   1:     0.25000000    0.25000000    0.00000000          2/4

Wave functions: Plane wave expansion
  Cutoff energy: 200.000 eV
  Number of coefficients (min, max): 22683, 22683
  Pulay-stress correction: 0.000000 eV/Ang^3 (de/decut=0.000000)
  Using Numpy's FFT
  ScaLapack parameters: grid=1x1, blocksize=None
  Wavefunction extrapolation:
    Improved wavefunction reuse through dual PAW basis 

Occupation numbers: Fermi-Dirac:
  width: 0.1000  # eV
 

Eigensolver
   Davidson(niter=2) 

Densities:
  Coarse grid: 35*35*108 grid
  Fine grid: 70*70*216 grid
  Total Charge: 0.000000 

Density mixing:
  Method: separate
  Backend: pulay
  Linear mixing parameter: 0.05
  old densities: 5
  Damping of long wavelength oscillations: 50 

Hamiltonian:
  XC and Coulomb potentials evaluated on a 70*70*216 grid
  Using the PBE Exchange-Correlation functional
  External potential:
    NoExternalPotential
 

XC parameters: PBE with 2 nearest neighbor stencil

Memory estimate:
  Process memory now: 4231.58 MiB
  Calculator: 138.59 MiB
    Density: 60.32 MiB
      Arrays: 26.24 MiB
      Localized functions: 23.99 MiB
      Mixer: 10.09 MiB
    Hamiltonian: 17.65 MiB
      Arrays: 17.16 MiB
      XC: 0.00 MiB
      Poisson: 0.00 MiB
      vbar: 0.49 MiB
    Wavefunctions: 60.62 MiB
      Arrays psit_nG: 33.23 MiB
      Eigensolver: 18.70 MiB
      Projections: 0.53 MiB
      Projectors: 2.42 MiB
      PW-descriptor: 5.74 MiB

Total number of cores used: 1

Number of atoms: 73
Number of atomic orbitals: 292
Number of bands in calculation: 48
Number of valence electrons: 73
Bands to converge: occupied

... initialized

Initializing position-dependent things.

Density initialized from atomic densities
Creating initial wave functions:
  48 bands from LCAO basis set

       .-------------------------.  
      /|                         |  
     / |                         |  
    /  |                         |  
   /   |                         |  
  /    |                         |  
 *     |                         |  
 |     |                         |  
 |     |                         |  
 |     |                         |  
 |     |                         |  
 |     |                         |  
 |     |                         |  
 |     |  Li       Li       Li   |  
 |     |                         |  
 |     Li       LLi       Li     Li 
 |     |Li                       |  
 |   Li|      Li      LiLi       |  
 |    Li  Li       Li      Li    |  
 |     |    Li  Li  Li       Li  Li 
 |     |Li       Li       Li     |  
 |   Li|      Li  Li  Li         |  
 |    Li  Li   Li  Li   Li  Li   |  
 |     |    Li      Li       Li  |  
 |     |Li       Li       Li     |  
 |   Li|      Li  Li  Li         |  
 |    Li  Li   Li  Li   Li  Li   |  
 | Li  |    Li      Li           |  
 |     |Li       Li       Li     |  
 Li    |  Li      Li             |  
 |   LLi      LLi     LiLi       |  
 |     |                         |  
 | Li  |    Li      Li           |  
 |     |                         |  
 Li    |  Li      Li             |  
 |     |                         |  
 |     |                         |  
 |     |                         |  
 |     |                         |  
 |     |                         |  
 |     .-------------------------.  
 |    /                         /   
 |   /                         /    
 |  /                         /     
 | /                         /      
 |/                         /       
 *-------------------------*        

Atomic positions and initial magnetic moments

Positions:
   0 Li     0.000000    0.000000   10.000000    ( 0.0000,  0.0000,  0.0000)
   1 Li     1.745000    1.745000   11.745000    ( 0.0000,  0.0000,  0.0000)
   2 Li     0.000000    0.000000   13.490000    ( 0.0000,  0.0000,  0.0000)
   3 Li     1.745000    1.745000   15.235000    ( 0.0000,  0.0000,  0.0000)
   4 Li    -0.018570   -0.022895   16.919682    ( 0.0000,  0.0000,  0.0000)
   5 Li     1.744998    1.749712   18.541965    ( 0.0000,  0.0000,  0.0000)
   6 Li    -0.092638   -0.104411   20.350097    ( 0.0000,  0.0000,  0.0000)
   7 Li     1.745006    1.810443   21.553159    ( 0.0000,  0.0000,  0.0000)
   8 Li     0.000000    3.490000   10.000000    ( 0.0000,  0.0000,  0.0000)
   9 Li     1.745000    5.235000   11.745000    ( 0.0000,  0.0000,  0.0000)
  10 Li     0.000000    3.490000   13.490000    ( 0.0000,  0.0000,  0.0000)
  11 Li     1.745000    5.235000   15.235000    ( 0.0000,  0.0000,  0.0000)
  12 Li    -0.027463    3.508310   16.914367    ( 0.0000,  0.0000,  0.0000)
  13 Li     1.744994    5.211415   18.622732    ( 0.0000,  0.0000,  0.0000)
  14 Li    -0.125277    3.573537   20.322993    ( 0.0000,  0.0000,  0.0000)
  15 Li     1.744994    4.907846   22.178146    ( 0.0000,  0.0000,  0.0000)
  16 Li     0.000000    6.980000   10.000000    ( 0.0000,  0.0000,  0.0000)
  17 Li     1.745000    8.725000   11.745000    ( 0.0000,  0.0000,  0.0000)
  18 Li     0.000000    6.980000   13.490000    ( 0.0000,  0.0000,  0.0000)
  19 Li     1.745000    8.725000   15.235000    ( 0.0000,  0.0000,  0.0000)
  20 Li     0.017041    6.984578   16.941105    ( 0.0000,  0.0000,  0.0000)
  21 Li     1.744993    8.743857   18.642945    ( 0.0000,  0.0000,  0.0000)
  22 Li     0.037981    7.000866   20.458594    ( 0.0000,  0.0000,  0.0000)
  23 Li     1.744990    8.986732   22.334348    ( 0.0000,  0.0000,  0.0000)
  24 Li     3.490000    0.000000   10.000000    ( 0.0000,  0.0000,  0.0000)
  25 Li     5.235000    1.745000   11.745000    ( 0.0000,  0.0000,  0.0000)
  26 Li     3.490000    0.000000   13.490000    ( 0.0000,  0.0000,  0.0000)
  27 Li     5.235000    1.745000   15.235000    ( 0.0000,  0.0000,  0.0000)
  28 Li     3.508561   -0.022890   16.919683    ( 0.0000,  0.0000,  0.0000)
  29 Li     5.223453    1.732958   18.639090    ( 0.0000,  0.0000,  0.0000)
  30 Li     3.582628   -0.104413   20.350091    ( 0.0000,  0.0000,  0.0000)
  31 Li     4.909569    1.743268   22.326381    ( 0.0000,  0.0000,  0.0000)
  32 Li     3.490000    3.490000   10.000000    ( 0.0000,  0.0000,  0.0000)
  33 Li     5.235000    5.235000   11.745000    ( 0.0000,  0.0000,  0.0000)
  34 Li     3.490000    3.490000   13.490000    ( 0.0000,  0.0000,  0.0000)
  35 Li     5.235000    5.235000   15.235000    ( 0.0000,  0.0000,  0.0000)
  36 Li     3.517453    3.508307   16.914369    ( 0.0000,  0.0000,  0.0000)
  37 Li     5.290508    5.295224   18.623562    ( 0.0000,  0.0000,  0.0000)
  38 Li     3.615267    3.573539   20.322988    ( 0.0000,  0.0000,  0.0000)
  39 Li     5.178169    5.243603   22.294357    ( 0.0000,  0.0000,  0.0000)
  40 Li     3.490000    6.980000   10.000000    ( 0.0000,  0.0000,  0.0000)
  41 Li     5.235000    8.725000   11.745000    ( 0.0000,  0.0000,  0.0000)
  42 Li     3.490000    6.980000   13.490000    ( 0.0000,  0.0000,  0.0000)
  43 Li     5.235000    8.725000   15.235000    ( 0.0000,  0.0000,  0.0000)
  44 Li     3.472963    6.984578   16.941119    ( 0.0000,  0.0000,  0.0000)
  45 Li     5.307276    8.676824   18.619714    ( 0.0000,  0.0000,  0.0000)
  46 Li     3.452015    7.000866   20.458594    ( 0.0000,  0.0000,  0.0000)
  47 Li     5.245325    8.718103   22.286395    ( 0.0000,  0.0000,  0.0000)
  48 Li     6.980000    0.000000   10.000000    ( 0.0000,  0.0000,  0.0000)
  49 Li     8.725000    1.745000   11.745000    ( 0.0000,  0.0000,  0.0000)
  50 Li     6.980000    0.000000   13.490000    ( 0.0000,  0.0000,  0.0000)
  51 Li     8.725000    1.745000   15.235000    ( 0.0000,  0.0000,  0.0000)
  52 Li     6.980004    0.021613   16.923818    ( 0.0000,  0.0000,  0.0000)
  53 Li     8.736534    1.732955   18.639096    ( 0.0000,  0.0000,  0.0000)
  54 Li     6.980002    0.058845   20.485299    ( 0.0000,  0.0000,  0.0000)
  55 Li     9.050442    1.743267   22.326385    ( 0.0000,  0.0000,  0.0000)
  56 Li     6.980000    3.490000   10.000000    ( 0.0000,  0.0000,  0.0000)
  57 Li     8.725000    5.235000   11.745000    ( 0.0000,  0.0000,  0.0000)
  58 Li     6.980000    3.490000   13.490000    ( 0.0000,  0.0000,  0.0000)
  59 Li     8.725000    5.235000   15.235000    ( 0.0000,  0.0000,  0.0000)
  60 Li     6.980004    3.472714   16.946434    ( 0.0000,  0.0000,  0.0000)
  61 Li     8.669501    5.295239   18.623561    ( 0.0000,  0.0000,  0.0000)
  62 Li     6.980001    3.442923   20.485690    ( 0.0000,  0.0000,  0.0000)
  63 Li     8.781815    5.243602   22.294360    ( 0.0000,  0.0000,  0.0000)
  64 Li     6.980000    6.980000   10.000000    ( 0.0000,  0.0000,  0.0000)
  65 Li     8.725000    8.725000   11.745000    ( 0.0000,  0.0000,  0.0000)
  66 Li     6.980000    6.980000   13.490000    ( 0.0000,  0.0000,  0.0000)
  67 Li     8.725000    8.725000   15.235000    ( 0.0000,  0.0000,  0.0000)
  68 Li     6.980006    6.975683   16.833677    ( 0.0000,  0.0000,  0.0000)
  69 Li     8.652737    8.676812   18.619711    ( 0.0000,  0.0000,  0.0000)
  70 Li     6.980001    6.968229   20.483693    ( 0.0000,  0.0000,  0.0000)
  71 Li     8.714657    8.718107   22.286399    ( 0.0000,  0.0000,  0.0000)
  72 Li     1.745001    2.326668   23.980786    ( 0.0000,  0.0000,  0.0000)

Unit cell:
           periodic     x           y           z      points  spacing
  1. axis:    yes   10.470000    0.000000    0.000000    35     0.2991
  2. axis:    yes    0.000000   10.470000    0.000000    35     0.2991
  3. axis:    no     0.000000    0.000000   32.215000   108     0.2983

  Lengths:  10.470000  10.470000  32.215000
  Angles:   90.000000  90.000000  90.000000

Effective grid spacing dv^(1/3) = 0.2989

     iter     time        total  log10-change:
                         energy   eigst   dens
iter:   1 00:14:52  -137.521992
iter:   2 00:14:56  -133.193377   -0.74  -0.65
iter:   3 00:15:01  -132.794719   -1.24  -0.85
iter:   4 00:15:05  -132.830423   -1.56  -0.90
iter:   5 00:15:08  -131.861485   -1.77  -0.89
iter:   6 00:15:12  -132.174548   -1.35  -1.09
iter:   7 00:15:16  -131.506380   -2.22  -1.06
iter:   8 00:15:20  -131.569172   -1.55  -1.24
iter:   9 00:15:24  -131.344796   -2.59  -1.30
iter:  10 00:15:28  -131.346746   -2.75  -1.54
iter:  11 00:15:31  -131.348206c  -2.95  -1.58
iter:  12 00:15:35  -131.337518c  -3.21  -1.62
iter:  13 00:15:39  -131.363036c  -2.85  -1.71
iter:  14 00:15:42  -131.337859c  -3.58  -1.73
iter:  15 00:15:46  -131.333186c  -3.39  -1.97
iter:  16 00:15:49  -131.332119c  -3.47  -2.19
iter:  17 00:15:53  -131.326638c  -4.21  -2.09
iter:  18 00:15:57  -131.325580c  -3.98  -2.25
iter:  19 00:16:01  -131.326573c  -4.32  -2.70
iter:  20 00:16:05  -131.325330c  -4.64  -2.70
iter:  21 00:16:08  -131.325318c  -5.26  -2.94
iter:  22 00:16:12  -131.325581c  -4.71  -2.99
iter:  23 00:16:15  -131.324710c  -4.65  -2.94
iter:  24 00:16:19  -131.324702c  -5.14  -3.19
iter:  25 00:16:23  -131.324681c  -5.22  -3.35
iter:  26 00:16:27  -131.324626c  -4.90  -3.47
iter:  27 00:16:30  -131.324419c  -5.13  -3.53
iter:  28 00:16:34  -131.324393c  -5.58c -3.65
iter:  29 00:16:37  -131.324344c  -5.50c -3.71
iter:  30 00:16:41  -131.324195c  -5.07  -3.79
iter:  31 00:16:45  -131.324165c  -5.25  -3.81
iter:  32 00:16:49  -131.324137c  -5.36c -3.89
iter:  33 00:16:53  -131.324135c  -5.49c -4.00c

Converged after 33 iterations.

Dipole moment: (2.884128, 2.785365, 0.281125) |e|*Ang

Energy contributions relative to reference atoms: (reference = -14803.510878)

Kinetic:       +102.612682
Potential:      -92.187371
External:        +0.000000
XC:            -140.651094
Entropy (-ST):   -1.210236
Local:           -0.493234
SIC:             +0.000000
--------------------------
Free energy:   -131.929253
Extrapolated:  -131.324135

Showing all kpts
 Kpt  Band  Eigenvalues  Occupancy
  0    34     -1.58335    1.61084
  0    35     -1.57094    1.57047
  0    36     -1.38541    0.72761
  0    37     -1.34367    0.54725

  1    34     -1.58335    1.61084
  1    35     -1.57094    1.57047
  1    36     -1.38541    0.72761
  1    37     -1.34367    0.54725


Fermi level: -1.44130

Gap: 0.186 eV
Transition (v -> c):
  (s=0, k=0, n=35, [0.25, -0.25, 0.00]) -> (s=0, k=0, n=36, [0.25, -0.25, 0.00])
No difference between direct/indirect transitions

Forces in eV/Ang:
  0 Li    0.00002   -0.00138   -0.03285
  1 Li    0.00000    0.00072    0.06409
  2 Li    0.00121    0.00120    0.00971
  3 Li   -0.00000    0.00176   -0.00657
  4 Li   -0.00595   -0.00343    0.00712
  5 Li   -0.00001   -0.00435    0.03141
  6 Li    0.00493    0.00360   -0.03683
  7 Li   -0.00001   -0.16223   -0.29213
  8 Li   -0.00152    0.00004   -0.03449
  9 Li    0.00000    0.00081    0.06198
 10 Li    0.00062   -0.00093    0.00361
 11 Li    0.00000   -0.00702   -0.02288
 12 Li   -0.00453    0.00229    0.00669
 13 Li    0.00000    0.00623    0.04592
 14 Li   -0.00840    0.00299   -0.02409
 15 Li   -0.00000    0.09884    0.01604
 16 Li    0.00381    0.00117   -0.02973
 17 Li    0.00000   -0.00157    0.05898
 18 Li    0.00076    0.00001    0.02720
 19 Li    0.00000    0.00578   -0.03420
 20 Li   -0.01093    0.00086    0.00505
 21 Li    0.00000   -0.00534    0.00459
 22 Li    0.00943   -0.00348   -0.02750
 23 Li    0.00000    0.03507   -0.01409
 24 Li   -0.00002   -0.00138   -0.03285
 25 Li    0.00124    0.00126    0.06060
 26 Li   -0.00121    0.00120    0.00971
 27 Li   -0.00717    0.00065   -0.03310
 28 Li    0.00596   -0.00344    0.00712
 29 Li    0.01070   -0.00436    0.01047
 30 Li   -0.00492    0.00360   -0.03683
 31 Li   -0.00894    0.01331   -0.00118
 32 Li    0.00152    0.00004   -0.03449
 33 Li   -0.00117   -0.00236    0.05950
 34 Li   -0.00062   -0.00093    0.00360
 35 Li   -0.00293   -0.00223   -0.04427
 36 Li    0.00453    0.00230    0.00669
 37 Li    0.00638    0.00401    0.01277
 38 Li    0.00840    0.00299   -0.02408
 39 Li    0.00615   -0.01870    0.00322
 40 Li   -0.00381    0.00117   -0.02973
 41 Li   -0.00236    0.00131    0.05799
 42 Li   -0.00076    0.00001    0.02721
 43 Li   -0.00192    0.00164   -0.04841
 44 Li    0.01093    0.00086    0.00504
 45 Li   -0.00287   -0.00016    0.01569
 46 Li   -0.00943   -0.00348   -0.02751
 47 Li    0.00218    0.00259   -0.01599
 48 Li    0.00000    0.00420   -0.02966
 49 Li   -0.00124    0.00126    0.06060
 50 Li    0.00000    0.00158    0.02601
 51 Li    0.00717    0.00064   -0.03311
 52 Li   -0.00000   -0.00931    0.00904
 53 Li   -0.01069   -0.00436    0.01046
 54 Li   -0.00000    0.00537   -0.00730
 55 Li    0.00894    0.01331   -0.00117
 56 Li   -0.00000   -0.00355   -0.02940
 57 Li    0.00117   -0.00236    0.05950
 58 Li    0.00000   -0.00046    0.03055
 59 Li    0.00293   -0.00223   -0.04427
 60 Li   -0.00000    0.00781    0.00661
 61 Li   -0.00638    0.00399    0.01278
 62 Li   -0.00000    0.00279   -0.01826
 63 Li   -0.00615   -0.01869    0.00322
 64 Li   -0.00000   -0.00081   -0.03037
 65 Li    0.00236    0.00131    0.05799
 66 Li    0.00000   -0.00068    0.00810
 67 Li    0.00192    0.00164   -0.04842
 68 Li   -0.00001    0.00117    0.03099
 69 Li    0.00286   -0.00015    0.01569
 70 Li   -0.00000   -0.01036    0.00997
 71 Li   -0.00218    0.00258   -0.01599
 72 Li   -0.00000    0.03374    0.17725

System changes: positions 

Initializing position-dependent things.

Density initialized from wave functions
       .-------------------------.  
      /|                         |  
     / |                         |  
    /  |                         |  
   /   |                         |  
  /    |                         |  
 *     |                         |  
 |     |                         |  
 |     |                         |  
 |     |                         |  
 |     |                         |  
 |     |                         |  
 |     |                         |  
 |     |  Li       Li       Li   |  
 |     |                         |  
 |     Li       LLi       Li     Li 
 |     |Li                       |  
 |   Li|      Li      LiLi       |  
 |    Li  Li       Li      Li    |  
 |     |    Li  Li  Li       Li  Li 
 |     |Li       Li       Li     |  
 |   Li|      Li  Li  Li         |  
 |    Li  Li   Li  Li   Li  Li   |  
 |     |    Li      Li       Li  |  
 |     |Li       Li       Li     |  
 |   Li|      Li  Li  Li         |  
 |    Li  Li   Li  Li   Li  Li   |  
 | Li  |    Li      Li           |  
 |     |Li       Li       Li     |  
 Li    |  Li      Li             |  
 |   LLi      LLi     LiLi       |  
 |     |                         |  
 | Li  |    Li      Li           |  
 |     |                         |  
 Li    |  Li      Li             |  
 |     |                         |  
 |     |                         |  
 |     |                         |  
 |     |                         |  
 |     |                         |  
 |     .-------------------------.  
 |    /                         /   
 |   /                         /    
 |  /                         /     
 | /                         /      
 |/                         /       
 *-------------------------*        

Atomic positions and initial magnetic moments

Positions:
   0 Li     0.000000    0.000000   10.000000    ( 0.0000,  0.0000,  0.0000)
   1 Li     1.745000    1.745000   11.745000    ( 0.0000,  0.0000,  0.0000)
   2 Li     0.000000    0.000000   13.490000    ( 0.0000,  0.0000,  0.0000)
   3 Li     1.745000    1.745000   15.235000    ( 0.0000,  0.0000,  0.0000)
   4 Li    -0.018622   -0.022925   16.919758    ( 0.0000,  0.0000,  0.0000)
   5 Li     1.744998    1.749672   18.542297    ( 0.0000,  0.0000,  0.0000)
   6 Li    -0.092560   -0.104356   20.349752    ( 0.0000,  0.0000,  0.0000)
   7 Li     1.745006    1.808878   21.550375    ( 0.0000,  0.0000,  0.0000)
   8 Li     0.000000    3.490000   10.000000    ( 0.0000,  0.0000,  0.0000)
   9 Li     1.745000    5.235000   11.745000    ( 0.0000,  0.0000,  0.0000)
  10 Li     0.000000    3.490000   13.490000    ( 0.0000,  0.0000,  0.0000)
  11 Li     1.745000    5.235000   15.235000    ( 0.0000,  0.0000,  0.0000)
  12 Li    -0.027508    3.508325   16.914434    ( 0.0000,  0.0000,  0.0000)
  13 Li     1.744994    5.211482   18.623174    ( 0.0000,  0.0000,  0.0000)
  14 Li    -0.125361    3.573530   20.322752    ( 0.0000,  0.0000,  0.0000)
  15 Li     1.744994    4.908892   22.178169    ( 0.0000,  0.0000,  0.0000)
  16 Li     0.000000    6.980000   10.000000    ( 0.0000,  0.0000,  0.0000)
  17 Li     1.745000    8.725000   11.745000    ( 0.0000,  0.0000,  0.0000)
  18 Li     0.000000    6.980000   13.490000    ( 0.0000,  0.0000,  0.0000)
  19 Li     1.745000    8.725000   15.235000    ( 0.0000,  0.0000,  0.0000)
  20 Li     0.016923    6.984591   16.941150    ( 0.0000,  0.0000,  0.0000)
  21 Li     1.744993    8.743795   18.642991    ( 0.0000,  0.0000,  0.0000)
  22 Li     0.038046    7.000850   20.458295    ( 0.0000,  0.0000,  0.0000)
  23 Li     1.744990    8.986968   22.334207    ( 0.0000,  0.0000,  0.0000)
  24 Li     3.490000    0.000000   10.000000    ( 0.0000,  0.0000,  0.0000)
  25 Li     5.235000    1.745000   11.745000    ( 0.0000,  0.0000,  0.0000)
  26 Li     3.490000    0.000000   13.490000    ( 0.0000,  0.0000,  0.0000)
  27 Li     5.235000    1.745000   15.235000    ( 0.0000,  0.0000,  0.0000)
  28 Li     3.508613   -0.022920   16.919759    ( 0.0000,  0.0000,  0.0000)
  29 Li     5.223575    1.732903   18.639191    ( 0.0000,  0.0000,  0.0000)
  30 Li     3.582550   -0.104359   20.349746    ( 0.0000,  0.0000,  0.0000)
  31 Li     4.909539    1.743399   22.326362    ( 0.0000,  0.0000,  0.0000)
  32 Li     3.490000    3.490000   10.000000    ( 0.0000,  0.0000,  0.0000)
  33 Li     5.235000    5.235000   11.745000    ( 0.0000,  0.0000,  0.0000)
  34 Li     3.490000    3.490000   13.490000    ( 0.0000,  0.0000,  0.0000)
  35 Li     5.235000    5.235000   15.235000    ( 0.0000,  0.0000,  0.0000)
  36 Li     3.517499    3.508322   16.914436    ( 0.0000,  0.0000,  0.0000)
  37 Li     5.290557    5.295253   18.623693    ( 0.0000,  0.0000,  0.0000)
  38 Li     3.615351    3.573532   20.322747    ( 0.0000,  0.0000,  0.0000)
  39 Li     5.178172    5.243415   22.294396    ( 0.0000,  0.0000,  0.0000)
  40 Li     3.490000    6.980000   10.000000    ( 0.0000,  0.0000,  0.0000)
  41 Li     5.235000    8.725000   11.745000    ( 0.0000,  0.0000,  0.0000)
  42 Li     3.490000    6.980000   13.490000    ( 0.0000,  0.0000,  0.0000)
  43 Li     5.235000    8.725000   15.235000    ( 0.0000,  0.0000,  0.0000)
  44 Li     3.473080    6.984590   16.941165    ( 0.0000,  0.0000,  0.0000)
  45 Li     5.307248    8.676844   18.619871    ( 0.0000,  0.0000,  0.0000)
  46 Li     3.451949    7.000849   20.458295    ( 0.0000,  0.0000,  0.0000)
  47 Li     5.245347    8.718132   22.286235    ( 0.0000,  0.0000,  0.0000)
  48 Li     6.980000    0.000000   10.000000    ( 0.0000,  0.0000,  0.0000)
  49 Li     8.725000    1.745000   11.745000    ( 0.0000,  0.0000,  0.0000)
  50 Li     6.980000    0.000000   13.490000    ( 0.0000,  0.0000,  0.0000)
  51 Li     8.725000    1.745000   15.235000    ( 0.0000,  0.0000,  0.0000)
  52 Li     6.980004    0.021517   16.923889    ( 0.0000,  0.0000,  0.0000)
  53 Li     8.736413    1.732901   18.639197    ( 0.0000,  0.0000,  0.0000)
  54 Li     6.980002    0.058888   20.485226    ( 0.0000,  0.0000,  0.0000)
  55 Li     9.050472    1.743399   22.326366    ( 0.0000,  0.0000,  0.0000)
  56 Li     6.980000    3.490000   10.000000    ( 0.0000,  0.0000,  0.0000)
  57 Li     8.725000    5.235000   11.745000    ( 0.0000,  0.0000,  0.0000)
  58 Li     6.980000    3.490000   13.490000    ( 0.0000,  0.0000,  0.0000)
  59 Li     8.725000    5.235000   15.235000    ( 0.0000,  0.0000,  0.0000)
  60 Li     6.980004    3.472800   16.946500    ( 0.0000,  0.0000,  0.0000)
  61 Li     8.669452    5.295268   18.623692    ( 0.0000,  0.0000,  0.0000)
  62 Li     6.980001    3.442972   20.485507    ( 0.0000,  0.0000,  0.0000)
  63 Li     8.781812    5.243414   22.294399    ( 0.0000,  0.0000,  0.0000)
  64 Li     6.980000    6.980000   10.000000    ( 0.0000,  0.0000,  0.0000)
  65 Li     8.725000    8.725000   11.745000    ( 0.0000,  0.0000,  0.0000)
  66 Li     6.980000    6.980000   13.490000    ( 0.0000,  0.0000,  0.0000)
  67 Li     8.725000    8.725000   15.235000    ( 0.0000,  0.0000,  0.0000)
  68 Li     6.980006    6.975690   16.834007    ( 0.0000,  0.0000,  0.0000)
  69 Li     8.652765    8.676831   18.619868    ( 0.0000,  0.0000,  0.0000)
  70 Li     6.980001    6.968115   20.483793    ( 0.0000,  0.0000,  0.0000)
  71 Li     8.714635    8.718136   22.286239    ( 0.0000,  0.0000,  0.0000)
  72 Li     1.745001    2.327516   23.982558    ( 0.0000,  0.0000,  0.0000)

Unit cell:
           periodic     x           y           z      points  spacing
  1. axis:    yes   10.470000    0.000000    0.000000    35     0.2991
  2. axis:    yes    0.000000   10.470000    0.000000    35     0.2991
  3. axis:    no     0.000000    0.000000   32.215000   108     0.2983

  Lengths:  10.470000  10.470000  32.215000
  Angles:   90.000000  90.000000  90.000000

Effective grid spacing dv^(1/3) = 0.2989

     iter     time        total  log10-change:
                         energy   eigst   dens
iter:   1 00:31:38  -131.325967   -4.59
iter:   2 00:31:41  -131.326643   -4.47  -2.53
iter:   3 00:31:44  -131.326129c  -4.88  -2.57
iter:   4 00:31:47  -131.325812c  -5.65c -2.84
iter:   5 00:31:51  -131.325480c  -5.41c -3.29
iter:   6 00:31:54  -131.325541c  -5.76c -3.47
iter:   7 00:31:57  -131.325521c  -5.92c -3.67
iter:   8 00:32:01  -131.325445c  -5.74c -3.85
iter:   9 00:32:04  -131.325439c  -6.43c -4.15c

Converged after 9 iterations.

Dipole moment: (2.885330, 2.784829, 0.281647) |e|*Ang

Energy contributions relative to reference atoms: (reference = -14803.510878)

Kinetic:       +102.605816
Potential:      -92.188855
External:        +0.000000
XC:            -140.648666
Entropy (-ST):   -1.211321
Local:           -0.488073
SIC:             +0.000000
--------------------------
Free energy:   -131.931099
Extrapolated:  -131.325439

Showing all kpts
 Kpt  Band  Eigenvalues  Occupancy
  0    34     -1.58302    1.61042
  0    35     -1.57060    1.56997
  0    36     -1.38529    0.72796
  0    37     -1.34351    0.54741

  1    34     -1.58302    1.61042
  1    35     -1.57060    1.56997
  1    36     -1.38529    0.72796
  1    37     -1.34351    0.54741


Fermi level: -1.44110

Gap: 0.185 eV
Transition (v -> c):
  (s=0, k=0, n=35, [0.25, -0.25, 0.00]) -> (s=0, k=0, n=36, [0.25, -0.25, 0.00])
No difference between direct/indirect transitions

Forces in eV/Ang:
  0 Li    0.00001   -0.00143   -0.03298
  1 Li    0.00000    0.00067    0.06395
  2 Li    0.00124    0.00124    0.01016
  3 Li   -0.00000    0.00172   -0.00711
  4 Li   -0.00599   -0.00349    0.00721
  5 Li   -0.00001   -0.00437    0.03030
  6 Li    0.00419    0.00314   -0.03728
  7 Li   -0.00000   -0.15868   -0.28121
  8 Li   -0.00156    0.00004   -0.03457
  9 Li    0.00000    0.00077    0.06190
 10 Li    0.00070   -0.00098    0.00410
 11 Li    0.00000   -0.00696   -0.02298
 12 Li   -0.00451    0.00239    0.00695
 13 Li    0.00000    0.00610    0.04533
 14 Li   -0.00818    0.00323   -0.02411
 15 Li   -0.00000    0.09739    0.01582
 16 Li    0.00369    0.00125   -0.02984
 17 Li    0.00000   -0.00147    0.05879
 18 Li    0.00063    0.00003    0.02760
 19 Li    0.00000    0.00578   -0.03423
 20 Li   -0.01072    0.00078    0.00530
 21 Li    0.00000   -0.00486    0.00455
 22 Li    0.00932   -0.00371   -0.02693
 23 Li    0.00000    0.03453   -0.01424
 24 Li   -0.00001   -0.00143   -0.03298
 25 Li    0.00119    0.00119    0.06048
 26 Li   -0.00124    0.00124    0.01016
 27 Li   -0.00716    0.00065   -0.03316
 28 Li    0.00600   -0.00350    0.00721
 29 Li    0.01028   -0.00425    0.01042
 30 Li   -0.00418    0.00314   -0.03727
 31 Li   -0.00868    0.01295   -0.00126
 32 Li    0.00156    0.00004   -0.03457
 33 Li   -0.00111   -0.00227    0.05933
 34 Li   -0.00070   -0.00098    0.00410
 35 Li   -0.00298   -0.00227   -0.04437
 36 Li    0.00451    0.00239    0.00695
 37 Li    0.00633    0.00410    0.01244
 38 Li    0.00818    0.00323   -0.02410
 39 Li    0.00617   -0.01842    0.00336
 40 Li   -0.00369    0.00125   -0.02984
 41 Li   -0.00225    0.00128    0.05796
 42 Li   -0.00063    0.00003    0.02760
 43 Li   -0.00204    0.00170   -0.04843
 44 Li    0.01072    0.00079    0.00530
 45 Li   -0.00238   -0.00036    0.01509
 46 Li   -0.00932   -0.00371   -0.02694
 47 Li    0.00210    0.00261   -0.01577
 48 Li   -0.00000    0.00416   -0.02964
 49 Li   -0.00120    0.00119    0.06047
 50 Li    0.00000    0.00143    0.02637
 51 Li    0.00716    0.00065   -0.03316
 52 Li   -0.00000   -0.00921    0.00918
 53 Li   -0.01027   -0.00425    0.01042
 54 Li   -0.00000    0.00540   -0.00700
 55 Li    0.00868    0.01296   -0.00125
 56 Li   -0.00000   -0.00340   -0.02956
 57 Li    0.00111   -0.00227    0.05933
 58 Li    0.00000   -0.00036    0.03085
 59 Li    0.00298   -0.00227   -0.04437
 60 Li   -0.00000    0.00767    0.00679
 61 Li   -0.00633    0.00408    0.01244
 62 Li   -0.00000    0.00271   -0.01779
 63 Li   -0.00616   -0.01841    0.00336
 64 Li    0.00000   -0.00087   -0.03045
 65 Li    0.00225    0.00128    0.05796
 66 Li    0.00000   -0.00065    0.00825
 67 Li    0.00204    0.00170   -0.04844
 68 Li   -0.00001    0.00122    0.03106
 69 Li    0.00237   -0.00035    0.01510
 70 Li   -0.00000   -0.01028    0.00967
 71 Li   -0.00209    0.00260   -0.01577
 72 Li   -0.00000    0.03261    0.16835

System changes: positions 

Initializing position-dependent things.

Density initialized from wave functions
       .-------------------------.  
      /|                         |  
     / |                         |  
    /  |                         |  
   /   |                         |  
  /    |                         |  
 *     |                         |  
 |     |                         |  
 |     |                         |  
 |     |                         |  
 |     |                         |  
 |     |                         |  
 |     |                         |  
 |     |  Li       Li       Li   |  
 |     |                         |  
 |     Li       LLi       Li     Li 
 |     |Li                       |  
 |   Li|      Li      LiLi       |  
 |    Li  Li       Li      Li    |  
 |     |    Li  Li  Li       Li  Li 
 |     |Li       Li       Li     |  
 |   Li|      Li  Li  Li         |  
 |    Li  Li   Li  Li   Li  Li   |  
 |     |    Li      Li       Li  |  
 |     |Li       Li       Li     |  
 |   Li|      Li  Li  Li         |  
 |    Li  Li   Li  Li   Li  Li   |  
 | Li  |    Li      Li           |  
 |     |Li       Li       Li     |  
 Li    |  Li      Li             |  
 |   LLi      LLi     LiLi       |  
 |     |                         |  
 | Li  |    Li      Li           |  
 |     |                         |  
 Li    |  Li      Li             |  
 |     |                         |  
 |     |                         |  
 |     |                         |  
 |     |                         |  
 |     |                         |  
 |     .-------------------------.  
 |    /                         /   
 |   /                         /    
 |  /                         /     
 | /                         /      
 |/                         /       
 *-------------------------*        

Atomic positions and initial magnetic moments

Positions:
   0 Li     0.000000    0.000000   10.000000    ( 0.0000,  0.0000,  0.0000)
   1 Li     1.745000    1.745000   11.745000    ( 0.0000,  0.0000,  0.0000)
   2 Li     0.000000    0.000000   13.490000    ( 0.0000,  0.0000,  0.0000)
   3 Li     1.745000    1.745000   15.235000    ( 0.0000,  0.0000,  0.0000)
   4 Li    -0.018726   -0.022986   16.919911    ( 0.0000,  0.0000,  0.0000)
   5 Li     1.744997    1.749593   18.542949    ( 0.0000,  0.0000,  0.0000)
   6 Li    -0.092413   -0.104253   20.349056    ( 0.0000,  0.0000,  0.0000)
   7 Li     1.745006    1.805778   21.544910    ( 0.0000,  0.0000,  0.0000)
   8 Li     0.000000    3.490000   10.000000    ( 0.0000,  0.0000,  0.0000)
   9 Li     1.745000    5.235000   11.745000    ( 0.0000,  0.0000,  0.0000)
  10 Li     0.000000    3.490000   13.490000    ( 0.0000,  0.0000,  0.0000)
  11 Li     1.745000    5.235000   15.235000    ( 0.0000,  0.0000,  0.0000)
  12 Li    -0.027598    3.508356   16.914571    ( 0.0000,  0.0000,  0.0000)
  13 Li     1.744995    5.211613   18.624053    ( 0.0000,  0.0000,  0.0000)
  14 Li    -0.125527    3.573521   20.322270    ( 0.0000,  0.0000,  0.0000)
  15 Li     1.744994    4.910969   22.178219    ( 0.0000,  0.0000,  0.0000)
  16 Li     0.000000    6.980000   10.000000    ( 0.0000,  0.0000,  0.0000)
  17 Li     1.745000    8.725000   11.745000    ( 0.0000,  0.0000,  0.0000)
  18 Li     0.000000    6.980000   13.490000    ( 0.0000,  0.0000,  0.0000)
  19 Li     1.745000    8.725000   15.235000    ( 0.0000,  0.0000,  0.0000)
  20 Li     0.016692    6.984615   16.941245    ( 0.0000,  0.0000,  0.0000)
  21 Li     1.744993    8.743678   18.643082    ( 0.0000,  0.0000,  0.0000)
  22 Li     0.038178    7.000813   20.457704    ( 0.0000,  0.0000,  0.0000)
  23 Li     1.744990    8.987440   22.333923    ( 0.0000,  0.0000,  0.0000)
  24 Li     3.490000    0.000000   10.000000    ( 0.0000,  0.0000,  0.0000)
  25 Li     5.235000    1.745000   11.745000    ( 0.0000,  0.0000,  0.0000)
  26 Li     3.490000    0.000000   13.490000    ( 0.0000,  0.0000,  0.0000)
  27 Li     5.235000    1.745000   15.235000    ( 0.0000,  0.0000,  0.0000)
  28 Li     3.508717   -0.022982   16.919911    ( 0.0000,  0.0000,  0.0000)
  29 Li     5.223813    1.732797   18.639393    ( 0.0000,  0.0000,  0.0000)
  30 Li     3.582404   -0.104256   20.349050    ( 0.0000,  0.0000,  0.0000)
  31 Li     4.909478    1.743659   22.326324    ( 0.0000,  0.0000,  0.0000)
  32 Li     3.490000    3.490000   10.000000    ( 0.0000,  0.0000,  0.0000)
  33 Li     5.235000    5.235000   11.745000    ( 0.0000,  0.0000,  0.0000)
  34 Li     3.490000    3.490000   13.490000    ( 0.0000,  0.0000,  0.0000)
  35 Li     5.235000    5.235000   15.235000    ( 0.0000,  0.0000,  0.0000)
  36 Li     3.517589    3.508354   16.914573    ( 0.0000,  0.0000,  0.0000)
  37 Li     5.290656    5.295314   18.623952    ( 0.0000,  0.0000,  0.0000)
  38 Li     3.615517    3.573523   20.322265    ( 0.0000,  0.0000,  0.0000)
  39 Li     5.178180    5.243040   22.294476    ( 0.0000,  0.0000,  0.0000)
  40 Li     3.490000    6.980000   10.000000    ( 0.0000,  0.0000,  0.0000)
  41 Li     5.235000    8.725000   11.745000    ( 0.0000,  0.0000,  0.0000)
  42 Li     3.490000    6.980000   13.490000    ( 0.0000,  0.0000,  0.0000)
  43 Li     5.235000    8.725000   15.235000    ( 0.0000,  0.0000,  0.0000)
  44 Li     3.473312    6.984615   16.941259    ( 0.0000,  0.0000,  0.0000)
  45 Li     5.307196    8.676880   18.620179    ( 0.0000,  0.0000,  0.0000)
  46 Li     3.451817    7.000813   20.457703    ( 0.0000,  0.0000,  0.0000)
  47 Li     5.245390    8.718190   22.285917    ( 0.0000,  0.0000,  0.0000)
  48 Li     6.980000    0.000000   10.000000    ( 0.0000,  0.0000,  0.0000)
  49 Li     8.725000    1.745000   11.745000    ( 0.0000,  0.0000,  0.0000)
  50 Li     6.980000    0.000000   13.490000    ( 0.0000,  0.0000,  0.0000)
  51 Li     8.725000    1.745000   15.235000    ( 0.0000,  0.0000,  0.0000)
  52 Li     6.980004    0.021324   16.924033    ( 0.0000,  0.0000,  0.0000)
  53 Li     8.736174    1.732794   18.639399    ( 0.0000,  0.0000,  0.0000)
  54 Li     6.980002    0.058976   20.485083    ( 0.0000,  0.0000,  0.0000)
  55 Li     9.050533    1.743659   22.326328    ( 0.0000,  0.0000,  0.0000)
  56 Li     6.980000    3.490000   10.000000    ( 0.0000,  0.0000,  0.0000)
  57 Li     8.725000    5.235000   11.745000    ( 0.0000,  0.0000,  0.0000)
  58 Li     6.980000    3.490000   13.490000    ( 0.0000,  0.0000,  0.0000)
  59 Li     8.725000    5.235000   15.235000    ( 0.0000,  0.0000,  0.0000)
  60 Li     6.980004    3.472970   16.946634    ( 0.0000,  0.0000,  0.0000)
  61 Li     8.669353    5.295328   18.623951    ( 0.0000,  0.0000,  0.0000)
  62 Li     6.980001    3.443067   20.485147    ( 0.0000,  0.0000,  0.0000)
  63 Li     8.781804    5.243039   22.294479    ( 0.0000,  0.0000,  0.0000)
  64 Li     6.980000    6.980000   10.000000    ( 0.0000,  0.0000,  0.0000)
  65 Li     8.725000    8.725000   11.745000    ( 0.0000,  0.0000,  0.0000)
  66 Li     6.980000    6.980000   13.490000    ( 0.0000,  0.0000,  0.0000)
  67 Li     8.725000    8.725000   15.235000    ( 0.0000,  0.0000,  0.0000)
  68 Li     6.980006    6.975707   16.834667    ( 0.0000,  0.0000,  0.0000)
  69 Li     8.652817    8.676868   18.620175    ( 0.0000,  0.0000,  0.0000)
  70 Li     6.980001    6.967889   20.483990    ( 0.0000,  0.0000,  0.0000)
  71 Li     8.714593    8.718194   22.285921    ( 0.0000,  0.0000,  0.0000)
  72 Li     1.745001    2.329177   23.986012    ( 0.0000,  0.0000,  0.0000)

Unit cell:
           periodic     x           y           z      points  spacing
  1. axis:    yes   10.470000    0.000000    0.000000    35     0.2991
  2. axis:    yes    0.000000   10.470000    0.000000    35     0.2991
  3. axis:    no     0.000000    0.000000   32.215000   108     0.2983

  Lengths:  10.470000  10.470000  32.215000
  Angles:   90.000000  90.000000  90.000000

Effective grid spacing dv^(1/3) = 0.2989

     iter     time        total  log10-change:
                         energy   eigst   dens
iter:   1 00:35:00  -131.329350   -4.43
iter:   2 00:35:04  -131.329319   -4.88  -2.56
iter:   3 00:35:09  -131.329175c  -5.08  -2.77
iter:   4 00:35:14  -131.328812c  -5.29  -2.76
iter:   5 00:35:18  -131.328237c  -5.45c -3.00
iter:   6 00:35:24  -131.328536c  -5.67c -3.36
iter:   7 00:35:28  -131.328430c  -6.37c -3.32
iter:   8 00:35:32  -131.328281c  -5.93c -3.59
iter:   9 00:35:37  -131.328306c  -6.60c -3.93
iter:  10 00:35:41  -131.328330c  -6.60c -4.00
iter:  11 00:35:45  -131.328325c  -6.37c -3.99
iter:  12 00:35:49  -131.328309c  -6.59c -4.24c

Converged after 12 iterations.

Dipole moment: (2.887733, 2.783097, 0.282743) |e|*Ang

Energy contributions relative to reference atoms: (reference = -14803.510878)

Kinetic:       +102.586307
Potential:      -92.177406
External:        +0.000000
XC:            -140.643253
Entropy (-ST):   -1.211916
Local:           -0.487999
SIC:             +0.000000
--------------------------
Free energy:   -131.934268
Extrapolated:  -131.328309

Showing all kpts
 Kpt  Band  Eigenvalues  Occupancy
  0    34     -1.58273    1.61024
  0    35     -1.57031    1.56976
  0    36     -1.38518    0.72854
  0    37     -1.34344    0.54804

  1    34     -1.58273    1.61024
  1    35     -1.57031    1.56976
  1    36     -1.38518    0.72854
  1    37     -1.34344    0.54804


Fermi level: -1.44087

Gap: 0.185 eV
Transition (v -> c):
  (s=0, k=0, n=35, [0.25, -0.25, 0.00]) -> (s=0, k=0, n=36, [0.25, -0.25, 0.00])
No difference between direct/indirect transitions

Forces in eV/Ang:
  0 Li   -0.00001   -0.00148   -0.03280
  1 Li    0.00000    0.00071    0.06380
  2 Li    0.00125    0.00125    0.01011
  3 Li   -0.00000    0.00170   -0.00676
  4 Li   -0.00574   -0.00332    0.00696
  5 Li   -0.00001   -0.00420    0.02655
  6 Li    0.00204    0.00133   -0.03748
  7 Li   -0.00000   -0.15149   -0.25992
  8 Li   -0.00166    0.00011   -0.03432
  9 Li    0.00000    0.00071    0.06186
 10 Li    0.00065   -0.00095    0.00400
 11 Li    0.00000   -0.00704   -0.02264
 12 Li   -0.00419    0.00230    0.00688
 13 Li    0.00000    0.00597    0.04412
 14 Li   -0.00802    0.00377   -0.02308
 15 Li   -0.00000    0.09429    0.01490
 16 Li    0.00353    0.00125   -0.02959
 17 Li    0.00000   -0.00142    0.05858
 18 Li    0.00053   -0.00005    0.02737
 19 Li    0.00000    0.00588   -0.03388
 20 Li   -0.01026    0.00071    0.00550
 21 Li    0.00000   -0.00457    0.00445
 22 Li    0.00870   -0.00339   -0.02605
 23 Li    0.00000    0.03384   -0.01471
 24 Li    0.00001   -0.00148   -0.03280
 25 Li    0.00116    0.00122    0.06039
 26 Li   -0.00125    0.00125    0.01011
 27 Li   -0.00719    0.00072   -0.03290
 28 Li    0.00575   -0.00334    0.00696
 29 Li    0.01004   -0.00413    0.01031
 30 Li   -0.00203    0.00133   -0.03747
 31 Li   -0.00889    0.01255   -0.00184
 32 Li    0.00166    0.00011   -0.03432
 33 Li   -0.00102   -0.00224    0.05922
 34 Li   -0.00065   -0.00095    0.00399
 35 Li   -0.00283   -0.00224   -0.04438
 36 Li    0.00420    0.00231    0.00688
 37 Li    0.00627    0.00417    0.01245
 38 Li    0.00803    0.00378   -0.02307
 39 Li    0.00603   -0.01798    0.00297
 40 Li   -0.00353    0.00125   -0.02959
 41 Li   -0.00217    0.00118    0.05785
 42 Li   -0.00053   -0.00004    0.02737
 43 Li   -0.00198    0.00159   -0.04832
 44 Li    0.01026    0.00071    0.00550
 45 Li   -0.00205   -0.00049    0.01531
 46 Li   -0.00870   -0.00339   -0.02606
 47 Li    0.00196    0.00259   -0.01629
 48 Li   -0.00000    0.00403   -0.02936
 49 Li   -0.00116    0.00122    0.06039
 50 Li    0.00000    0.00140    0.02608
 51 Li    0.00719    0.00072   -0.03290
 52 Li   -0.00000   -0.00894    0.00927
 53 Li   -0.01003   -0.00413    0.01030
 54 Li   -0.00000    0.00510   -0.00654
 55 Li    0.00889    0.01255   -0.00184
 56 Li   -0.00000   -0.00321   -0.02928
 57 Li    0.00102   -0.00224    0.05922
 58 Li    0.00000   -0.00022    0.03062
 59 Li    0.00283   -0.00223   -0.04439
 60 Li   -0.00000    0.00739    0.00674
 61 Li   -0.00627    0.00416    0.01246
 62 Li   -0.00000    0.00264   -0.01726
 63 Li   -0.00603   -0.01798    0.00297
 64 Li    0.00000   -0.00093   -0.03020
 65 Li    0.00217    0.00118    0.05785
 66 Li    0.00000   -0.00078    0.00814
 67 Li    0.00198    0.00159   -0.04833
 68 Li   -0.00001    0.00124    0.03028
 69 Li    0.00204   -0.00048    0.01531
 70 Li   -0.00000   -0.00988    0.00940
 71 Li   -0.00195    0.00259   -0.01629
 72 Li   -0.00000    0.03066    0.15207

System changes: positions 

Initializing position-dependent things.

Density initialized from wave functions
       .-------------------------.  
      /|                         |  
     / |                         |  
    /  |                         |  
   /   |                         |  
  /    |                         |  
 *     |                         |  
 |     |                         |  
 |     |                         |  
 |     |                         |  
 |     |                         |  
 |     |                         |  
 |     |                         |  
 |     |  Li       Li       Li   |  
 |     |                         |  
 |     Li       LLi       Li     Li 
 |     |Li                       |  
 |   Li|      Li      LiLi       |  
 |    Li  Li       Li      Li    |  
 |     |    Li  Li  Li       Li  Li 
 |     |Li       Li       Li     |  
 |   Li|      Li  Li  Li         |  
 |    Li  Li   Li  Li   Li  Li   |  
 |     |    Li      Li       Li  |  
 |     |Li       Li       Li     |  
 |   Li|      Li  Li  Li         |  
 |    Li  Li   Li  Li   Li  Li   |  
 | Li  |    Li      Li           |  
 |     |Li       Li       Li     |  
 Li    |  Li      Li             |  
 |   LLi      LLi     LiLi       |  
 |     |                         |  
 | Li  |    Li      Li           |  
 |     |                         |  
 Li    |  Li      Li             |  
 |     |                         |  
 |     |                         |  
 |     |                         |  
 |     |                         |  
 |     |                         |  
 |     .-------------------------.  
 |    /                         /   
 |   /                         /    
 |  /                         /     
 | /                         /      
 |/                         /       
 *-------------------------*        

Atomic positions and initial magnetic moments

Positions:
   0 Li     0.000000    0.000000   10.000000    ( 0.0000,  0.0000,  0.0000)
   1 Li     1.745000    1.745000   11.745000    ( 0.0000,  0.0000,  0.0000)
   2 Li     0.000000    0.000000   13.490000    ( 0.0000,  0.0000,  0.0000)
   3 Li     1.745000    1.745000   15.235000    ( 0.0000,  0.0000,  0.0000)
   4 Li    -0.018882   -0.023078   16.920138    ( 0.0000,  0.0000,  0.0000)
   5 Li     1.744997    1.749475   18.543878    ( 0.0000,  0.0000,  0.0000)
   6 Li    -0.092226   -0.104125   20.347998    ( 0.0000,  0.0000,  0.0000)
   7 Li     1.745006    1.801201   21.536972    ( 0.0000,  0.0000,  0.0000)
   8 Li     0.000000    3.490000   10.000000    ( 0.0000,  0.0000,  0.0000)
   9 Li     1.745000    5.235000   11.745000    ( 0.0000,  0.0000,  0.0000)
  10 Li     0.000000    3.490000   13.490000    ( 0.0000,  0.0000,  0.0000)
  11 Li     1.745000    5.235000   15.235000    ( 0.0000,  0.0000,  0.0000)
  12 Li    -0.027731    3.508404   16.914777    ( 0.0000,  0.0000,  0.0000)
  13 Li     1.744995    5.211809   18.625363    ( 0.0000,  0.0000,  0.0000)
  14 Li    -0.125774    3.573520   20.321554    ( 0.0000,  0.0000,  0.0000)
  15 Li     1.744994    4.914051   22.178300    ( 0.0000,  0.0000,  0.0000)
  16 Li     0.000000    6.980000   10.000000    ( 0.0000,  0.0000,  0.0000)
  17 Li     1.745000    8.725000   11.745000    ( 0.0000,  0.0000,  0.0000)
  18 Li     0.000000    6.980000   13.490000    ( 0.0000,  0.0000,  0.0000)
  19 Li     1.745000    8.725000   15.235000    ( 0.0000,  0.0000,  0.0000)
  20 Li     0.016350    6.984650   16.941393    ( 0.0000,  0.0000,  0.0000)
  21 Li     1.744993    8.743507   18.643219    ( 0.0000,  0.0000,  0.0000)
  22 Li     0.038372    7.000759   20.456829    ( 0.0000,  0.0000,  0.0000)
  23 Li     1.744990    8.988155   22.333488    ( 0.0000,  0.0000,  0.0000)
  24 Li     3.490000    0.000000   10.000000    ( 0.0000,  0.0000,  0.0000)
  25 Li     5.235000    1.745000   11.745000    ( 0.0000,  0.0000,  0.0000)
  26 Li     3.490000    0.000000   13.490000    ( 0.0000,  0.0000,  0.0000)
  27 Li     5.235000    1.745000   15.235000    ( 0.0000,  0.0000,  0.0000)
  28 Li     3.508873   -0.023074   16.920138    ( 0.0000,  0.0000,  0.0000)
  29 Li     5.224166    1.732639   18.639698    ( 0.0000,  0.0000,  0.0000)
  30 Li     3.582217   -0.104127   20.347992    ( 0.0000,  0.0000,  0.0000)
  31 Li     4.909376    1.744045   22.326260    ( 0.0000,  0.0000,  0.0000)
  32 Li     3.490000    3.490000   10.000000    ( 0.0000,  0.0000,  0.0000)
  33 Li     5.235000    5.235000   11.745000    ( 0.0000,  0.0000,  0.0000)
  34 Li     3.490000    3.490000   13.490000    ( 0.0000,  0.0000,  0.0000)
  35 Li     5.235000    5.235000   15.235000    ( 0.0000,  0.0000,  0.0000)
  36 Li     3.517722    3.508401   16.914780    ( 0.0000,  0.0000,  0.0000)
  37 Li     5.290805    5.295408   18.624340    ( 0.0000,  0.0000,  0.0000)
  38 Li     3.615764    3.573522   20.321550    ( 0.0000,  0.0000,  0.0000)
  39 Li     5.178199    5.242483   22.294591    ( 0.0000,  0.0000,  0.0000)
  40 Li     3.490000    6.980000   10.000000    ( 0.0000,  0.0000,  0.0000)
  41 Li     5.235000    8.725000   11.745000    ( 0.0000,  0.0000,  0.0000)
  42 Li     3.490000    6.980000   13.490000    ( 0.0000,  0.0000,  0.0000)
  43 Li     5.235000    8.725000   15.235000    ( 0.0000,  0.0000,  0.0000)
  44 Li     3.473654    6.984649   16.941406    ( 0.0000,  0.0000,  0.0000)
  45 Li     5.307124    8.676928   18.620642    ( 0.0000,  0.0000,  0.0000)
  46 Li     3.451623    7.000758   20.456828    ( 0.0000,  0.0000,  0.0000)
  47 Li     5.245453    8.718277   22.285433    ( 0.0000,  0.0000,  0.0000)
  48 Li     6.980000    0.000000   10.000000    ( 0.0000,  0.0000,  0.0000)
  49 Li     8.725000    1.745000   11.745000    ( 0.0000,  0.0000,  0.0000)
  50 Li     6.980000    0.000000   13.490000    ( 0.0000,  0.0000,  0.0000)
  51 Li     8.725000    1.745000   15.235000    ( 0.0000,  0.0000,  0.0000)
  52 Li     6.980004    0.021037   16.924254    ( 0.0000,  0.0000,  0.0000)
  53 Li     8.735822    1.732636   18.639704    ( 0.0000,  0.0000,  0.0000)
  54 Li     6.980002    0.059106   20.484874    ( 0.0000,  0.0000,  0.0000)
  55 Li     9.050635    1.744044   22.326265    ( 0.0000,  0.0000,  0.0000)
  56 Li     6.980000    3.490000   10.000000    ( 0.0000,  0.0000,  0.0000)
  57 Li     8.725000    5.235000   11.745000    ( 0.0000,  0.0000,  0.0000)
  58 Li     6.980000    3.490000   13.490000    ( 0.0000,  0.0000,  0.0000)
  59 Li     8.725000    5.235000   15.235000    ( 0.0000,  0.0000,  0.0000)
  60 Li     6.980004    3.473220   16.946837    ( 0.0000,  0.0000,  0.0000)
  61 Li     8.669204    5.295422   18.624339    ( 0.0000,  0.0000,  0.0000)
  62 Li     6.980001    3.443207   20.484612    ( 0.0000,  0.0000,  0.0000)
  63 Li     8.781785    5.242481   22.294594    ( 0.0000,  0.0000,  0.0000)
  64 Li     6.980000    6.980000   10.000000    ( 0.0000,  0.0000,  0.0000)
  65 Li     8.725000    8.725000   11.745000    ( 0.0000,  0.0000,  0.0000)
  66 Li     6.980000    6.980000   13.490000    ( 0.0000,  0.0000,  0.0000)
  67 Li     8.725000    8.725000   15.235000    ( 0.0000,  0.0000,  0.0000)
  68 Li     6.980005    6.975733   16.835650    ( 0.0000,  0.0000,  0.0000)
  69 Li     8.652889    8.676917   18.620639    ( 0.0000,  0.0000,  0.0000)
  70 Li     6.980001    6.967553   20.484283    ( 0.0000,  0.0000,  0.0000)
  71 Li     8.714530    8.718281   22.285436    ( 0.0000,  0.0000,  0.0000)
  72 Li     1.745001    2.331583   23.990973    ( 0.0000,  0.0000,  0.0000)

Unit cell:
           periodic     x           y           z      points  spacing
  1. axis:    yes   10.470000    0.000000    0.000000    35     0.2991
  2. axis:    yes    0.000000   10.470000    0.000000    35     0.2991
  3. axis:    no     0.000000    0.000000   32.215000   108     0.2983

  Lengths:  10.470000  10.470000  32.215000
  Angles:   90.000000  90.000000  90.000000

Effective grid spacing dv^(1/3) = 0.2989

     iter     time        total  log10-change:
                         energy   eigst   dens
iter:   1 00:39:09  -131.334624   -4.08
iter:   2 00:39:12  -131.333905   -4.55  -2.38
iter:   3 00:39:16  -131.333783c  -4.75  -2.56
iter:   4 00:39:20  -131.332955c  -5.11  -2.55
iter:   5 00:39:24  -131.332098c  -5.26  -2.85
iter:   6 00:39:28  -131.332577c  -5.61c -3.19
iter:   7 00:39:32  -131.332430c  -6.41c -3.13
iter:   8 00:39:35  -131.332187c  -6.13c -3.37
iter:   9 00:39:39  -131.332228c  -6.95c -3.75
iter:  10 00:39:43  -131.332270c  -6.87c -3.82
iter:  11 00:39:47  -131.332269c  -6.87c -3.83
iter:  12 00:39:51  -131.332252c  -7.10c -4.08c

Converged after 12 iterations.

Dipole moment: (2.892181, 2.781835, 0.284349) |e|*Ang

Energy contributions relative to reference atoms: (reference = -14803.510878)

Kinetic:       +102.559874
Potential:      -92.162903
External:        +0.000000
XC:            -140.635306
Entropy (-ST):   -1.212332
Local:           -0.487751
SIC:             +0.000000
--------------------------
Free energy:   -131.938418
Extrapolated:  -131.332252

Showing all kpts
 Kpt  Band  Eigenvalues  Occupancy
  0    34     -1.58238    1.60992
  0    35     -1.56996    1.56942
  0    36     -1.38521    0.72979
  0    37     -1.34342    0.54897

  1    34     -1.58238    1.60992
  1    35     -1.56996    1.56942
  1    36     -1.38521    0.72979
  1    37     -1.34342    0.54897


Fermi level: -1.44062

Gap: 0.185 eV
Transition (v -> c):
  (s=0, k=0, n=35, [0.25, -0.25, 0.00]) -> (s=0, k=0, n=36, [0.25, -0.25, 0.00])
No difference between direct/indirect transitions

Forces in eV/Ang:
  0 Li    0.00001   -0.00149   -0.03279
  1 Li    0.00000    0.00070    0.06367
  2 Li    0.00127    0.00125    0.01020
  3 Li   -0.00000    0.00165   -0.00669
  4 Li   -0.00550   -0.00314    0.00679
  5 Li   -0.00001   -0.00409    0.02148
  6 Li   -0.00075   -0.00096   -0.03808
  7 Li   -0.00000   -0.14126   -0.22993
  8 Li   -0.00168    0.00012   -0.03430
  9 Li    0.00000    0.00069    0.06180
 10 Li    0.00064   -0.00096    0.00408
 11 Li    0.00000   -0.00702   -0.02232
 12 Li   -0.00385    0.00227    0.00707
 13 Li    0.00000    0.00575    0.04220
 14 Li   -0.00773    0.00450   -0.02204
 15 Li   -0.00000    0.09009    0.01374
 16 Li    0.00347    0.00125   -0.02952
 17 Li    0.00000   -0.00140    0.05842
 18 Li    0.00049   -0.00006    0.02729
 19 Li    0.00000    0.00587   -0.03363
 20 Li   -0.00969    0.00056    0.00579
 21 Li    0.00000   -0.00390    0.00434
 22 Li    0.00790   -0.00318   -0.02473
 23 Li    0.00000    0.03266   -0.01527
 24 Li   -0.00001   -0.00149   -0.03280
 25 Li    0.00115    0.00123    0.06030
 26 Li   -0.00127    0.00125    0.01020
 27 Li   -0.00711    0.00072   -0.03267
 28 Li    0.00551   -0.00315    0.00679
 29 Li    0.00949   -0.00392    0.01010
 30 Li    0.00076   -0.00097   -0.03808
 31 Li   -0.00882    0.01189   -0.00252
 32 Li    0.00168    0.00012   -0.03430
 33 Li   -0.00097   -0.00221    0.05911
 34 Li   -0.00064   -0.00096    0.00408
 35 Li   -0.00266   -0.00213   -0.04432
 36 Li    0.00385    0.00228    0.00706
 37 Li    0.00617    0.00425    0.01218
 38 Li    0.00773    0.00450   -0.02204
 39 Li    0.00598   -0.01729    0.00274
 40 Li   -0.00347    0.00125   -0.02952
 41 Li   -0.00212    0.00113    0.05778
 42 Li   -0.00049   -0.00006    0.02730
 43 Li   -0.00188    0.00149   -0.04815
 44 Li    0.00969    0.00056    0.00578
 45 Li   -0.00141   -0.00076    0.01507
 46 Li   -0.00790   -0.00318   -0.02474
 47 Li    0.00168    0.00254   -0.01644
 48 Li   -0.00000    0.00398   -0.02929
 49 Li   -0.00115    0.00123    0.06030
 50 Li    0.00000    0.00137    0.02596
 51 Li    0.00711    0.00072   -0.03268
 52 Li   -0.00000   -0.00863    0.00931
 53 Li   -0.00947   -0.00391    0.01010
 54 Li   -0.00000    0.00489   -0.00595
 55 Li    0.00882    0.01189   -0.00251
 56 Li   -0.00000   -0.00313   -0.02920
 57 Li    0.00097   -0.00221    0.05911
 58 Li    0.00000   -0.00018    0.03052
 59 Li    0.00266   -0.00212   -0.04432
 60 Li   -0.00000    0.00708    0.00674
 61 Li   -0.00617    0.00424    0.01218
 62 Li   -0.00000    0.00255   -0.01628
 63 Li   -0.00598   -0.01729    0.00274
 64 Li    0.00000   -0.00096   -0.03011
 65 Li    0.00212    0.00113    0.05778
 66 Li    0.00000   -0.00082    0.00816
 67 Li    0.00188    0.00149   -0.04815
 68 Li   -0.00001    0.00129    0.02920
 69 Li    0.00140   -0.00075    0.01508
 70 Li   -0.00000   -0.00952    0.00888
 71 Li   -0.00168    0.00254   -0.01644
 72 Li   -0.00000    0.02790    0.12943

System changes: positions 

Initializing position-dependent things.

Density initialized from wave functions
       .-------------------------.  
      /|                         |  
     / |                         |  
    /  |                         |  
   /   |                         |  
  /    |                         |  
 *     |                         |  
 |     |                         |  
 |     |                         |  
 |     |                         |  
 |     |                         |  
 |     |                         |  
 |     |                         |  
 |     |  Li       Li       Li   |  
 |     |                         |  
 |     Li       LLi       Li     Li 
 |     |Li                       |  
 |   Li|      Li      LiLi       |  
 |    Li  Li       Li      Li    |  
 |     |    Li  Li  Li       Li  Li 
 |     |Li       Li       Li     |  
 |   Li|      Li  Li  Li         |  
 |    Li  Li   Li  Li   Li  Li   |  
 |     |    Li      Li       Li  |  
 |     |Li       Li       Li     |  
 |   Li|      Li  Li  Li         |  
 |    Li  Li   Li  Li   Li  Li   |  
 | Li  |    Li      Li           |  
 |     |Li       Li       Li     |  
 Li    |  Li      Li             |  
 |   LLi      LLi     LiLi       |  
 |     |                         |  
 | Li  |    Li      Li           |  
 |     |                         |  
 Li    |  Li      Li             |  
 |     |                         |  
 |     |                         |  
 |     |                         |  
 |     |                         |  
 |     |                         |  
 |     .-------------------------.  
 |    /                         /   
 |   /                         /    
 |  /                         /     
 | /                         /      
 |/                         /       
 *-------------------------*        

Atomic positions and initial magnetic moments

Positions:
   0 Li     0.000000    0.000000   10.000000    ( 0.0000,  0.0000,  0.0000)
   1 Li     1.745000    1.745000   11.745000    ( 0.0000,  0.0000,  0.0000)
   2 Li     0.000000    0.000000   13.490000    ( 0.0000,  0.0000,  0.0000)
   3 Li     1.745000    1.745000   15.235000    ( 0.0000,  0.0000,  0.0000)
   4 Li    -0.019088   -0.023199   16.920438    ( 0.0000,  0.0000,  0.0000)
   5 Li     1.744997    1.749317   18.545024    ( 0.0000,  0.0000,  0.0000)
   6 Li    -0.092039   -0.104004   20.346555    ( 0.0000,  0.0000,  0.0000)
   7 Li     1.745005    1.795224   21.526859    ( 0.0000,  0.0000,  0.0000)
   8 Li     0.000000    3.490000   10.000000    ( 0.0000,  0.0000,  0.0000)
   9 Li     1.745000    5.235000   11.745000    ( 0.0000,  0.0000,  0.0000)
  10 Li     0.000000    3.490000   13.490000    ( 0.0000,  0.0000,  0.0000)
  11 Li     1.745000    5.235000   15.235000    ( 0.0000,  0.0000,  0.0000)
  12 Li    -0.027902    3.508469   16.915059    ( 0.0000,  0.0000,  0.0000)
  13 Li     1.744995    5.212066   18.627095    ( 0.0000,  0.0000,  0.0000)
  14 Li    -0.126101    3.573543   20.320613    ( 0.0000,  0.0000,  0.0000)
  15 Li     1.744994    4.918105   22.178417    ( 0.0000,  0.0000,  0.0000)
  16 Li     0.000000    6.980000   10.000000    ( 0.0000,  0.0000,  0.0000)
  17 Li     1.745000    8.725000   11.745000    ( 0.0000,  0.0000,  0.0000)
  18 Li     0.000000    6.980000   13.490000    ( 0.0000,  0.0000,  0.0000)
  19 Li     1.745000    8.725000   15.235000    ( 0.0000,  0.0000,  0.0000)
  20 Li     0.015904    6.984693   16.941599    ( 0.0000,  0.0000,  0.0000)
  21 Li     1.744994    8.743293   18.643400    ( 0.0000,  0.0000,  0.0000)
  22 Li     0.038626    7.000685   20.455684    ( 0.0000,  0.0000,  0.0000)
  23 Li     1.744990    8.989124   22.332889    ( 0.0000,  0.0000,  0.0000)
  24 Li     3.490000    0.000000   10.000000    ( 0.0000,  0.0000,  0.0000)
  25 Li     5.235000    1.745000   11.745000    ( 0.0000,  0.0000,  0.0000)
  26 Li     3.490000    0.000000   13.490000    ( 0.0000,  0.0000,  0.0000)
  27 Li     5.235000    1.745000   15.235000    ( 0.0000,  0.0000,  0.0000)
  28 Li     3.509080   -0.023195   16.920439    ( 0.0000,  0.0000,  0.0000)
  29 Li     5.224626    1.732433   18.640105    ( 0.0000,  0.0000,  0.0000)
  30 Li     3.582030   -0.104007   20.346549    ( 0.0000,  0.0000,  0.0000)
  31 Li     4.909225    1.744551   22.326162    ( 0.0000,  0.0000,  0.0000)
  32 Li     3.490000    3.490000   10.000000    ( 0.0000,  0.0000,  0.0000)
  33 Li     5.235000    5.235000   11.745000    ( 0.0000,  0.0000,  0.0000)
  34 Li     3.490000    3.490000   13.490000    ( 0.0000,  0.0000,  0.0000)
  35 Li     5.235000    5.235000   15.235000    ( 0.0000,  0.0000,  0.0000)
  36 Li     3.517893    3.508467   16.915061    ( 0.0000,  0.0000,  0.0000)
  37 Li     5.291009    5.295540   18.624858    ( 0.0000,  0.0000,  0.0000)
  38 Li     3.616091    3.573546   20.320609    ( 0.0000,  0.0000,  0.0000)
  39 Li     5.178237    5.241745   22.294740    ( 0.0000,  0.0000,  0.0000)
  40 Li     3.490000    6.980000   10.000000    ( 0.0000,  0.0000,  0.0000)
  41 Li     5.235000    8.725000   11.745000    ( 0.0000,  0.0000,  0.0000)
  42 Li     3.490000    6.980000   13.490000    ( 0.0000,  0.0000,  0.0000)
  43 Li     5.235000    8.725000   15.235000    ( 0.0000,  0.0000,  0.0000)
  44 Li     3.474100    6.984692   16.941612    ( 0.0000,  0.0000,  0.0000)
  45 Li     5.307040    8.676983   18.621263    ( 0.0000,  0.0000,  0.0000)
  46 Li     3.451369    7.000684   20.455682    ( 0.0000,  0.0000,  0.0000)
  47 Li     5.245532    8.718392   22.284774    ( 0.0000,  0.0000,  0.0000)
  48 Li     6.980000    0.000000   10.000000    ( 0.0000,  0.0000,  0.0000)
  49 Li     8.725000    1.745000   11.745000    ( 0.0000,  0.0000,  0.0000)
  50 Li     6.980000    0.000000   13.490000    ( 0.0000,  0.0000,  0.0000)
  51 Li     8.725000    1.745000   15.235000    ( 0.0000,  0.0000,  0.0000)
  52 Li     6.980004    0.020660   16.924559    ( 0.0000,  0.0000,  0.0000)
  53 Li     8.735363    1.732431   18.640110    ( 0.0000,  0.0000,  0.0000)
  54 Li     6.980002    0.059280   20.484605    ( 0.0000,  0.0000,  0.0000)
  55 Li     9.050786    1.744551   22.326167    ( 0.0000,  0.0000,  0.0000)
  56 Li     6.980000    3.490000   10.000000    ( 0.0000,  0.0000,  0.0000)
  57 Li     8.725000    5.235000   11.745000    ( 0.0000,  0.0000,  0.0000)
  58 Li     6.980000    3.490000   13.490000    ( 0.0000,  0.0000,  0.0000)
  59 Li     8.725000    5.235000   15.235000    ( 0.0000,  0.0000,  0.0000)
  60 Li     6.980004    3.473549   16.947110    ( 0.0000,  0.0000,  0.0000)
  61 Li     8.669000    5.295553   18.624856    ( 0.0000,  0.0000,  0.0000)
  62 Li     6.980001    3.443388   20.483910    ( 0.0000,  0.0000,  0.0000)
  63 Li     8.781747    5.241744   22.294743    ( 0.0000,  0.0000,  0.0000)
  64 Li     6.980000    6.980000   10.000000    ( 0.0000,  0.0000,  0.0000)
  65 Li     8.725000    8.725000   11.745000    ( 0.0000,  0.0000,  0.0000)
  66 Li     6.980000    6.980000   13.490000    ( 0.0000,  0.0000,  0.0000)
  67 Li     8.725000    8.725000   15.235000    ( 0.0000,  0.0000,  0.0000)
  68 Li     6.980005    6.975770   16.836949    ( 0.0000,  0.0000,  0.0000)
  69 Li     8.652972    8.676972   18.621260    ( 0.0000,  0.0000,  0.0000)
  70 Li     6.980001    6.967112   20.484666    ( 0.0000,  0.0000,  0.0000)
  71 Li     8.714451    8.718396   22.284778    ( 0.0000,  0.0000,  0.0000)
  72 Li     1.745000    2.334638   23.997190    ( 0.0000,  0.0000,  0.0000)

Unit cell:
           periodic     x           y           z      points  spacing
  1. axis:    yes   10.470000    0.000000    0.000000    35     0.2991
  2. axis:    yes    0.000000   10.470000    0.000000    35     0.2991
  3. axis:    no     0.000000    0.000000   32.215000   108     0.2983

  Lengths:  10.470000  10.470000  32.215000
  Angles:   90.000000  90.000000  90.000000

Effective grid spacing dv^(1/3) = 0.2989

     iter     time        total  log10-change:
                         energy   eigst   dens
iter:   1 00:43:45  -131.340973   -3.86
iter:   2 00:43:48  -131.339013   -4.36  -2.26
iter:   3 00:43:53  -131.338745c  -4.62  -2.48
iter:   4 00:43:56  -131.337731c  -4.92  -2.48
iter:   5 00:44:01  -131.336561c  -5.12  -2.70
iter:   6 00:44:10  -131.337227c  -5.38c -3.08
iter:   7 00:44:24  -131.336916c  -6.29c -2.99
iter:   8 00:44:34  -131.336639c  -6.08c -3.30
iter:   9 00:44:40  -131.336705c  -7.03c -3.64
iter:  10 00:44:47  -131.336747c  -6.87c -3.71
iter:  11 00:44:54  -131.336752c  -7.12c -3.70
iter:  12 00:44:59  -131.336732c  -7.42c -3.98
iter:  13 00:45:06  -131.336742c  -7.36c -4.09c

Converged after 13 iterations.

Dipole moment: (2.898944, 2.781392, 0.286495) |e|*Ang

Energy contributions relative to reference atoms: (reference = -14803.510878)

Kinetic:       +102.526126
Potential:      -92.143411
External:        +0.000000
XC:            -140.625392
Entropy (-ST):   -1.212720
Local:           -0.487705
SIC:             +0.000000
--------------------------
Free energy:   -131.943102
Extrapolated:  -131.336742

Showing all kpts
 Kpt  Band  Eigenvalues  Occupancy
  0    34     -1.58202    1.60963
  0    35     -1.56957    1.56905
  0    36     -1.38529    0.73147
  0    37     -1.34341    0.55001

  1    34     -1.58202    1.60963
  1    35     -1.56957    1.56905
  1    36     -1.38529    0.73147
  1    37     -1.34341    0.55001


Fermi level: -1.44035

Gap: 0.184 eV
Transition (v -> c):
  (s=0, k=0, n=35, [0.25, -0.25, 0.00]) -> (s=0, k=0, n=36, [0.25, -0.25, 0.00])
No difference between direct/indirect transitions

Forces in eV/Ang:
  0 Li    0.00004   -0.00150   -0.03278
  1 Li    0.00000    0.00065    0.06348
  2 Li    0.00124    0.00120    0.01010
  3 Li   -0.00000    0.00157   -0.00639
  4 Li   -0.00513   -0.00283    0.00674
  5 Li   -0.00000   -0.00389    0.01474
  6 Li   -0.00420   -0.00392   -0.03862
  7 Li   -0.00000   -0.12826   -0.19298
  8 Li   -0.00166    0.00010   -0.03430
  9 Li    0.00000    0.00073    0.06169
 10 Li    0.00063   -0.00094    0.00400
 11 Li    0.00000   -0.00691   -0.02188
 12 Li   -0.00339    0.00221    0.00750
 13 Li    0.00000    0.00538    0.03964
 14 Li   -0.00732    0.00526   -0.02046
 15 Li   -0.00000    0.08473    0.01226
 16 Li    0.00349    0.00129   -0.02949
 17 Li    0.00000   -0.00139    0.05826
 18 Li    0.00046   -0.00004    0.02715
 19 Li    0.00000    0.00579   -0.03338
 20 Li   -0.00898    0.00032    0.00611
 21 Li    0.00000   -0.00310    0.00415
 22 Li    0.00686   -0.00276   -0.02293
 23 Li    0.00000    0.03125   -0.01600
 24 Li   -0.00004   -0.00150   -0.03279
 25 Li    0.00115    0.00116    0.06019
 26 Li   -0.00124    0.00120    0.01010
 27 Li   -0.00694    0.00069   -0.03240
 28 Li    0.00513   -0.00284    0.00674
 29 Li    0.00883   -0.00349    0.00975
 30 Li    0.00420   -0.00392   -0.03862
 31 Li   -0.00890    0.01122   -0.00344
 32 Li    0.00166    0.00010   -0.03430
 33 Li   -0.00096   -0.00216    0.05904
 34 Li   -0.00063   -0.00095    0.00400
 35 Li   -0.00241   -0.00192   -0.04416
 36 Li    0.00340    0.00222    0.00750
 37 Li    0.00610    0.00418    0.01184
 38 Li    0.00733    0.00526   -0.02046
 39 Li    0.00595   -0.01652    0.00237
 40 Li   -0.00349    0.00129   -0.02949
 41 Li   -0.00210    0.00113    0.05775
 42 Li   -0.00046   -0.00004    0.02715
 43 Li   -0.00166    0.00131   -0.04803
 44 Li    0.00898    0.00032    0.00610
 45 Li   -0.00081   -0.00109    0.01473
 46 Li   -0.00686   -0.00276   -0.02294
 47 Li    0.00115    0.00239   -0.01657
 48 Li   -0.00000    0.00394   -0.02924
 49 Li   -0.00115    0.00116    0.06018
 50 Li    0.00000    0.00130    0.02578
 51 Li    0.00694    0.00069   -0.03240
 52 Li   -0.00000   -0.00819    0.00923
 53 Li   -0.00882   -0.00349    0.00975
 54 Li   -0.00000    0.00479   -0.00513
 55 Li    0.00890    0.01122   -0.00343
 56 Li   -0.00000   -0.00314   -0.02919
 57 Li    0.00096   -0.00215    0.05904
 58 Li    0.00000   -0.00016    0.03040
 59 Li    0.00241   -0.00192   -0.04417
 60 Li   -0.00000    0.00674    0.00678
 61 Li   -0.00610    0.00417    0.01184
 62 Li   -0.00000    0.00251   -0.01498
 63 Li   -0.00595   -0.01651    0.00237
 64 Li    0.00000   -0.00091   -0.03008
 65 Li    0.00210    0.00113    0.05775
 66 Li    0.00000   -0.00080    0.00824
 67 Li    0.00166    0.00131   -0.04804
 68 Li   -0.00001    0.00124    0.02759
 69 Li    0.00080   -0.00108    0.01473
 70 Li   -0.00000   -0.00931    0.00862
 71 Li   -0.00114    0.00239   -0.01657
 72 Li   -0.00000    0.02457    0.10177

System changes: positions 

Initializing position-dependent things.

Density initialized from wave functions
       .-------------------------.  
      /|                         |  
     / |                         |  
    /  |                         |  
   /   |                         |  
  /    |                         |  
 *     |                         |  
 |     |                         |  
 |     |                         |  
 |     |                         |  
 |     |                         |  
 |     |                         |  
 |     |                         |  
 |     |  Li       Li       Li   |  
 |     |                         |  
 |     Li       LLi       Li     Li 
 |     |Li                       |  
 |   Li|      Li      LiLi       |  
 |    Li  Li       Li      Li    |  
 |     |    Li  Li  Li       Li  Li 
 |     |Li       Li       Li     |  
 |   Li|      Li  Li  Li         |  
 |    Li  Li   Li  Li   Li  Li   |  
 |     |    Li      Li       Li  |  
 |     |Li       Li       Li     |  
 |   Li|      Li  Li  Li         |  
 |    Li  Li   Li  Li   Li  Li   |  
 | Li  |    Li      Li           |  
 |     |Li       Li       Li     |  
 Li    |  Li      Li             |  
 |   LLi      LLi     LiLi       |  
 |     |                         |  
 | Li  |    Li      Li           |  
 |     |                         |  
 Li    |  Li      Li             |  
 |     |                         |  
 |     |                         |  
 |     |                         |  
 |     |                         |  
 |     |                         |  
 |     .-------------------------.  
 |    /                         /   
 |   /                         /    
 |  /                         /     
 | /                         /      
 |/                         /       
 *-------------------------*        

Atomic positions and initial magnetic moments

Positions:
   0 Li     0.000000    0.000000   10.000000    ( 0.0000,  0.0000,  0.0000)
   1 Li     1.745000    1.745000   11.745000    ( 0.0000,  0.0000,  0.0000)
   2 Li     0.000000    0.000000   13.490000    ( 0.0000,  0.0000,  0.0000)
   3 Li     1.745000    1.745000   15.235000    ( 0.0000,  0.0000,  0.0000)
   4 Li    -0.019345   -0.023347   16.920815    ( 0.0000,  0.0000,  0.0000)
   5 Li     1.744997    1.749120   18.546297    ( 0.0000,  0.0000,  0.0000)
   6 Li    -0.091908   -0.103938   20.344692    ( 0.0000,  0.0000,  0.0000)
   7 Li     1.745005    1.787944   21.514957    ( 0.0000,  0.0000,  0.0000)
   8 Li     0.000000    3.490000   10.000000    ( 0.0000,  0.0000,  0.0000)
   9 Li     1.745000    5.235000   11.745000    ( 0.0000,  0.0000,  0.0000)
  10 Li     0.000000    3.490000   13.490000    ( 0.0000,  0.0000,  0.0000)
  11 Li     1.745000    5.235000   15.235000    ( 0.0000,  0.0000,  0.0000)
  12 Li    -0.028107    3.508554   16.915426    ( 0.0000,  0.0000,  0.0000)
  13 Li     1.744995    5.212383   18.629239    ( 0.0000,  0.0000,  0.0000)
  14 Li    -0.126505    3.573610   20.319457    ( 0.0000,  0.0000,  0.0000)
  15 Li     1.744994    4.923099   22.178579    ( 0.0000,  0.0000,  0.0000)
  16 Li     0.000000    6.980000   10.000000    ( 0.0000,  0.0000,  0.0000)
  17 Li     1.745000    8.725000   11.745000    ( 0.0000,  0.0000,  0.0000)
  18 Li     0.000000    6.980000   13.490000    ( 0.0000,  0.0000,  0.0000)
  19 Li     1.745000    8.725000   15.235000    ( 0.0000,  0.0000,  0.0000)
  20 Li     0.015359    6.984740   16.941872    ( 0.0000,  0.0000,  0.0000)
  21 Li     1.744994    8.743046   18.643626    ( 0.0000,  0.0000,  0.0000)
  22 Li     0.038932    7.000593   20.454283    ( 0.0000,  0.0000,  0.0000)
  23 Li     1.744990    8.990363   22.332106    ( 0.0000,  0.0000,  0.0000)
  24 Li     3.490000    0.000000   10.000000    ( 0.0000,  0.0000,  0.0000)
  25 Li     5.235000    1.745000   11.745000    ( 0.0000,  0.0000,  0.0000)
  26 Li     3.490000    0.000000   13.490000    ( 0.0000,  0.0000,  0.0000)
  27 Li     5.235000    1.745000   15.235000    ( 0.0000,  0.0000,  0.0000)
  28 Li     3.509337   -0.023343   16.920815    ( 0.0000,  0.0000,  0.0000)
  29 Li     5.225187    1.732186   18.640616    ( 0.0000,  0.0000,  0.0000)
  30 Li     3.581899   -0.103940   20.344687    ( 0.0000,  0.0000,  0.0000)
  31 Li     4.909007    1.745176   22.326017    ( 0.0000,  0.0000,  0.0000)
  32 Li     3.490000    3.490000   10.000000    ( 0.0000,  0.0000,  0.0000)
  33 Li     5.235000    5.235000   11.745000    ( 0.0000,  0.0000,  0.0000)
  34 Li     3.490000    3.490000   13.490000    ( 0.0000,  0.0000,  0.0000)
  35 Li     5.235000    5.235000   15.235000    ( 0.0000,  0.0000,  0.0000)
  36 Li     3.518099    3.508552   16.915428    ( 0.0000,  0.0000,  0.0000)
  37 Li     5.291271    5.295713   18.625505    ( 0.0000,  0.0000,  0.0000)
  38 Li     3.616496    3.573613   20.319452    ( 0.0000,  0.0000,  0.0000)
  39 Li     5.178308    5.240829   22.294916    ( 0.0000,  0.0000,  0.0000)
  40 Li     3.490000    6.980000   10.000000    ( 0.0000,  0.0000,  0.0000)
  41 Li     5.235000    8.725000   11.745000    ( 0.0000,  0.0000,  0.0000)
  42 Li     3.490000    6.980000   13.490000    ( 0.0000,  0.0000,  0.0000)
  43 Li     5.235000    8.725000   15.235000    ( 0.0000,  0.0000,  0.0000)
  44 Li     3.474645    6.984739   16.941885    ( 0.0000,  0.0000,  0.0000)
  45 Li     5.306952    8.677035   18.622045    ( 0.0000,  0.0000,  0.0000)
  46 Li     3.451063    7.000592   20.454281    ( 0.0000,  0.0000,  0.0000)
  47 Li     5.245621    8.718535   22.283930    ( 0.0000,  0.0000,  0.0000)
  48 Li     6.980000    0.000000   10.000000    ( 0.0000,  0.0000,  0.0000)
  49 Li     8.725000    1.745000   11.745000    ( 0.0000,  0.0000,  0.0000)
  50 Li     6.980000    0.000000   13.490000    ( 0.0000,  0.0000,  0.0000)
  51 Li     8.725000    1.745000   15.235000    ( 0.0000,  0.0000,  0.0000)
  52 Li     6.980004    0.020192   16.924956    ( 0.0000,  0.0000,  0.0000)
  53 Li     8.734802    1.732183   18.640621    ( 0.0000,  0.0000,  0.0000)
  54 Li     6.980002    0.059499   20.484286    ( 0.0000,  0.0000,  0.0000)
  55 Li     9.051004    1.745176   22.326022    ( 0.0000,  0.0000,  0.0000)
  56 Li     6.980000    3.490000   10.000000    ( 0.0000,  0.0000,  0.0000)
  57 Li     8.725000    5.235000   11.745000    ( 0.0000,  0.0000,  0.0000)
  58 Li     6.980000    3.490000   13.490000    ( 0.0000,  0.0000,  0.0000)
  59 Li     8.725000    5.235000   15.235000    ( 0.0000,  0.0000,  0.0000)
  60 Li     6.980004    3.473953   16.947459    ( 0.0000,  0.0000,  0.0000)
  61 Li     8.668738    5.295725   18.625504    ( 0.0000,  0.0000,  0.0000)
  62 Li     6.980001    3.443607   20.483052    ( 0.0000,  0.0000,  0.0000)
  63 Li     8.781677    5.240828   22.294919    ( 0.0000,  0.0000,  0.0000)
  64 Li     6.980000    6.980000   10.000000    ( 0.0000,  0.0000,  0.0000)
  65 Li     8.725000    8.725000   11.745000    ( 0.0000,  0.0000,  0.0000)
  66 Li     6.980000    6.980000   13.490000    ( 0.0000,  0.0000,  0.0000)
  67 Li     8.725000    8.725000   15.235000    ( 0.0000,  0.0000,  0.0000)
  68 Li     6.980005    6.975819   16.838553    ( 0.0000,  0.0000,  0.0000)
  69 Li     8.653060    8.677024   18.622041    ( 0.0000,  0.0000,  0.0000)
  70 Li     6.980001    6.966564   20.485141    ( 0.0000,  0.0000,  0.0000)
  71 Li     8.714363    8.718538   22.283933    ( 0.0000,  0.0000,  0.0000)
  72 Li     1.745000    2.338227   24.004332    ( 0.0000,  0.0000,  0.0000)

Unit cell:
           periodic     x           y           z      points  spacing
  1. axis:    yes   10.470000    0.000000    0.000000    35     0.2991
  2. axis:    yes    0.000000   10.470000    0.000000    35     0.2991
  3. axis:    no     0.000000    0.000000   32.215000   108     0.2983

  Lengths:  10.470000  10.470000  32.215000
  Angles:   90.000000  90.000000  90.000000

Effective grid spacing dv^(1/3) = 0.2989

     iter     time        total  log10-change:
                         energy   eigst   dens
iter:   1 00:49:40  -131.348196   -3.66
iter:   2 00:49:44  -131.344125   -4.15  -2.14
iter:   3 00:49:48  -131.343374c  -4.57  -2.42
iter:   4 00:49:52  -131.342658c  -4.72  -2.50
iter:   5 00:49:56  -131.341080c  -5.02  -2.54
iter:   6 00:49:59  -131.341919c  -5.17  -3.01
iter:   7 00:50:03  -131.341368c  -6.09c -2.91
iter:   8 00:50:07  -131.341094c  -5.99c -3.28
iter:   9 00:50:10  -131.341191c  -6.98c -3.55
iter:  10 00:50:14  -131.341206c  -6.79c -3.63
iter:  11 00:50:18  -131.341235c  -7.11c -3.56
iter:  12 00:50:22  -131.341211c  -7.55c -3.92
iter:  13 00:50:25  -131.341242c  -7.37c -4.02c

Converged after 13 iterations.

Dipole moment: (2.908904, 2.783187, 0.288770) |e|*Ang

Energy contributions relative to reference atoms: (reference = -14803.510878)

Kinetic:       +102.489312
Potential:      -92.121916
External:        +0.000000
XC:            -140.614438
Entropy (-ST):   -1.213152
Local:           -0.487623
SIC:             +0.000000
--------------------------
Free energy:   -131.947818
Extrapolated:  -131.341242

Showing all kpts
 Kpt  Band  Eigenvalues  Occupancy
  0    34     -1.58161    1.60927
  0    35     -1.56915    1.56861
  0    36     -1.38545    0.73357
  0    37     -1.34340    0.55113

  1    34     -1.58161    1.60927
  1    35     -1.56915    1.56861
  1    36     -1.38545    0.73357
  1    37     -1.34340    0.55113


Fermi level: -1.44006

Gap: 0.184 eV
Transition (v -> c):
  (s=0, k=0, n=35, [0.25, -0.25, 0.00]) -> (s=0, k=0, n=36, [0.25, -0.25, 0.00])
No difference between direct/indirect transitions

Forces in eV/Ang:
  0 Li    0.00006   -0.00152   -0.03284
  1 Li    0.00000    0.00060    0.06325
  2 Li    0.00122    0.00116    0.01002
  3 Li   -0.00000    0.00147   -0.00600
  4 Li   -0.00471   -0.00249    0.00681
  5 Li   -0.00000   -0.00366    0.00678
  6 Li   -0.00824   -0.00729   -0.03923
  7 Li   -0.00000   -0.11289   -0.15096
  8 Li   -0.00164    0.00010   -0.03437
  9 Li    0.00000    0.00078    0.06154
 10 Li    0.00062   -0.00094    0.00394
 11 Li    0.00000   -0.00676   -0.02128
 12 Li   -0.00287    0.00216    0.00816
 13 Li    0.00000    0.00498    0.03647
 14 Li   -0.00663    0.00603   -0.01854
 15 Li   -0.00000    0.07837    0.01049
 16 Li    0.00350    0.00133   -0.02951
 17 Li    0.00000   -0.00139    0.05805
 18 Li    0.00045   -0.00002    0.02702
 19 Li    0.00000    0.00569   -0.03297
 20 Li   -0.00813    0.00004    0.00661
 21 Li    0.00000   -0.00215    0.00396
 22 Li    0.00561   -0.00229   -0.02082
 23 Li    0.00000    0.02953   -0.01688
 24 Li   -0.00006   -0.00152   -0.03284
 25 Li    0.00117    0.00111    0.06002
 26 Li   -0.00122    0.00116    0.01002
 27 Li   -0.00673    0.00065   -0.03197
 28 Li    0.00472   -0.00250    0.00681
 29 Li    0.00803   -0.00301    0.00933
 30 Li    0.00825   -0.00729   -0.03923
 31 Li   -0.00895    0.01032   -0.00454
 32 Li    0.00164    0.00010   -0.03437
 33 Li   -0.00095   -0.00211    0.05890
 34 Li   -0.00062   -0.00094    0.00394
 35 Li   -0.00213   -0.00168   -0.04387
 36 Li    0.00287    0.00216    0.00815
 37 Li    0.00597    0.00413    0.01143
 38 Li    0.00663    0.00603   -0.01854
 39 Li    0.00589   -0.01555    0.00195
 40 Li   -0.00350    0.00133   -0.02951
 41 Li   -0.00209    0.00112    0.05766
 42 Li   -0.00045   -0.00002    0.02702
 43 Li   -0.00141    0.00112   -0.04773
 44 Li    0.00813    0.00005    0.00660
 45 Li    0.00001   -0.00151    0.01426
 46 Li   -0.00561   -0.00229   -0.02083
 47 Li    0.00052    0.00223   -0.01667
 48 Li   -0.00000    0.00391   -0.02925
 49 Li   -0.00117    0.00111    0.06002
 50 Li    0.00000    0.00124    0.02562
 51 Li    0.00673    0.00065   -0.03198
 52 Li   -0.00000   -0.00769    0.00926
 53 Li   -0.00802   -0.00301    0.00933
 54 Li   -0.00000    0.00464   -0.00423
 55 Li    0.00895    0.01032   -0.00454
 56 Li    0.00000   -0.00315   -0.02924
 57 Li    0.00095   -0.00211    0.05890
 58 Li    0.00000   -0.00016    0.03027
 59 Li    0.00213   -0.00168   -0.04388
 60 Li   -0.00000    0.00632    0.00693
 61 Li   -0.00597    0.00412    0.01143
 62 Li   -0.00000    0.00242   -0.01342
 63 Li   -0.00589   -0.01555    0.00195
 64 Li    0.00000   -0.00087   -0.03011
 65 Li    0.00209    0.00112    0.05766
 66 Li    0.00000   -0.00077    0.00832
 67 Li    0.00141    0.00112   -0.04773
 68 Li   -0.00001    0.00123    0.02576
 69 Li   -0.00002   -0.00150    0.01426
 70 Li   -0.00000   -0.00900    0.00821
 71 Li   -0.00052    0.00223   -0.01667
 72 Li   -0.00000    0.02086    0.07057

System changes: positions 

Initializing position-dependent things.

Density initialized from wave functions
       .-------------------------.  
      /|                         |  
     / |                         |  
[...]
  9 Li    0.00000    0.00093    0.06133
 10 Li    0.00050   -0.00084    0.00400
 11 Li    0.00000   -0.00609   -0.01880
 12 Li   -0.00123    0.00235    0.00985
 13 Li    0.00000    0.00384    0.02231
 14 Li   -0.00200    0.00722   -0.00991
 15 Li   -0.00000    0.05421    0.00324
 16 Li    0.00351    0.00133   -0.02937
 17 Li    0.00000   -0.00143    0.05769
 18 Li    0.00039   -0.00003    0.02694
 19 Li    0.00000    0.00523   -0.03116
 20 Li   -0.00488   -0.00084    0.00787
 21 Li    0.00000    0.00089    0.00210
 22 Li    0.00055   -0.00010   -0.01302
 23 Li    0.00000    0.02284   -0.02051
 24 Li   -0.00009   -0.00153   -0.03278
 25 Li    0.00124    0.00104    0.05981
 26 Li   -0.00110    0.00101    0.01011
 27 Li   -0.00582    0.00050   -0.03013
 28 Li    0.00359   -0.00166    0.00641
 29 Li    0.00533   -0.00108    0.00646
 30 Li    0.02230   -0.01843   -0.03984
 31 Li   -0.00922    0.00634   -0.00922
 32 Li    0.00161    0.00014   -0.03429
 33 Li   -0.00082   -0.00196    0.05877
 34 Li   -0.00050   -0.00084    0.00399
 35 Li   -0.00091   -0.00062   -0.04265
 36 Li    0.00124    0.00235    0.00984
 37 Li    0.00544    0.00405    0.00896
 38 Li    0.00200    0.00722   -0.00991
 39 Li    0.00531   -0.01157   -0.00004
 40 Li   -0.00351    0.00133   -0.02937
 41 Li   -0.00202    0.00100    0.05767
 42 Li   -0.00039   -0.00003    0.02694
 43 Li   -0.00028    0.00021   -0.04627
 44 Li    0.00488   -0.00084    0.00787
 45 Li    0.00390   -0.00358    0.01106
 46 Li   -0.00055   -0.00010   -0.01303
 47 Li   -0.00194    0.00154   -0.01702
 48 Li   -0.00000    0.00385   -0.02909
 49 Li   -0.00124    0.00104    0.05981
 50 Li    0.00000    0.00107    0.02554
 51 Li    0.00582    0.00050   -0.03014
 52 Li   -0.00000   -0.00588    0.00875
 53 Li   -0.00532   -0.00108    0.00645
 54 Li   -0.00000    0.00397   -0.00162
 55 Li    0.00922    0.00634   -0.00922
 56 Li    0.00000   -0.00312   -0.02914
 57 Li    0.00082   -0.00196    0.05877
 58 Li    0.00000   -0.00009    0.03005
 59 Li    0.00091   -0.00062   -0.04265
 60 Li   -0.00000    0.00467    0.00655
 61 Li   -0.00545    0.00404    0.00896
 62 Li   -0.00000    0.00185   -0.00781
 63 Li   -0.00531   -0.01157   -0.00004
 64 Li    0.00000   -0.00082   -0.02996
 65 Li    0.00202    0.00100    0.05767
 66 Li    0.00000   -0.00078    0.00909
 67 Li    0.00027    0.00021   -0.04627
 68 Li   -0.00000    0.00129    0.01753
 69 Li   -0.00391   -0.00357    0.01106
 70 Li   -0.00000   -0.00744    0.00616
 71 Li    0.00195    0.00153   -0.01702
 72 Li   -0.00000    0.00953   -0.02856

System changes: positions 

Initializing position-dependent things.

Density initialized from wave functions
       .-------------------------.  
      /|                         |  
     / |                         |  
    /  |                         |  
   /   |                         |  
  /    |                         |  
 *     |                         |  
 |     |                         |  
 |     |                         |  
 |     |                         |  
 |     |                         |  
 |     |                         |  
 |     |                         |  
 |     |  Li       Li       Li   |  
 |     |                         |  
 |     Li       LLi       Li     Li 
 |     |Li                       |  
 |   Li|      Li      LiLi       |  
 |    Li  Li       Li      Li    |  
 |     |    Li  Li  Li       Li  Li 
 |     |Li       Li       Li     |  
 |   Li|      Li  Li  Li         |  
 |    Li  Li   Li  Li   Li  Li   |  
 |     |    Li      Li       Li  |  
 |     |Li       Li       Li     |  
 |   Li|      Li  Li  Li         |  
 |    Li  Li   Li  Li   Li  Li   |  
 | Li  |    Li      Li           |  
 |     |Li       Li       Li     |  
 Li    |  Li      Li             |  
 |   LLi      LLi     LiLi       |  
 |     |                         |  
 | Li  |    Li      Li           |  
 |     |                         |  
 Li    |  Li      Li             |  
 |     |                         |  
 |     |                         |  
 |     |                         |  
 |     |                         |  
 |     |                         |  
 |     .-------------------------.  
 |    /                         /   
 |   /                         /    
 |  /                         /     
 | /                         /      
 |/                         /       
 *-------------------------*        

Atomic positions and initial magnetic moments

Positions:
   0 Li     0.000000    0.000000   10.000000    ( 0.0000,  0.0000,  0.0000)
   1 Li     1.745000    1.745000   11.745000    ( 0.0000,  0.0000,  0.0000)
   2 Li     0.000000    0.000000   13.490000    ( 0.0000,  0.0000,  0.0000)
   3 Li     1.745000    1.745000   15.235000    ( 0.0000,  0.0000,  0.0000)
   4 Li    -0.021049   -0.024265   16.923500    ( 0.0000,  0.0000,  0.0000)
   5 Li     1.744995    1.747794   18.549495    ( 0.0000,  0.0000,  0.0000)
   6 Li    -0.094336   -0.106194   20.330189    ( 0.0000,  0.0000,  0.0000)
   7 Li     1.745003    1.744993   21.456618    ( 0.0000,  0.0000,  0.0000)
   8 Li     0.000000    3.490000   10.000000    ( 0.0000,  0.0000,  0.0000)
   9 Li     1.745000    5.235000   11.745000    ( 0.0000,  0.0000,  0.0000)
  10 Li     0.000000    3.490000   13.490000    ( 0.0000,  0.0000,  0.0000)
  11 Li     1.745000    5.235000   15.235000    ( 0.0000,  0.0000,  0.0000)
  12 Li    -0.029249    3.509256   16.918529    ( 0.0000,  0.0000,  0.0000)
  13 Li     1.744995    5.214412   18.642815    ( 0.0000,  0.0000,  0.0000)
  14 Li    -0.128901    3.575044   20.312406    ( 0.0000,  0.0000,  0.0000)
  15 Li     1.744994    4.954677   22.179846    ( 0.0000,  0.0000,  0.0000)
  16 Li     0.000000    6.980000   10.000000    ( 0.0000,  0.0000,  0.0000)
  17 Li     1.745000    8.725000   11.745000    ( 0.0000,  0.0000,  0.0000)
  18 Li     0.000000    6.980000   13.490000    ( 0.0000,  0.0000,  0.0000)
  19 Li     1.745000    8.725000   15.235000    ( 0.0000,  0.0000,  0.0000)
  20 Li     0.012061    6.984852   16.944266    ( 0.0000,  0.0000,  0.0000)
  21 Li     1.744995    8.741988   18.645034    ( 0.0000,  0.0000,  0.0000)
  22 Li     0.040534    7.000096   20.445716    ( 0.0000,  0.0000,  0.0000)
  23 Li     1.744991    8.999490   22.325584    ( 0.0000,  0.0000,  0.0000)
  24 Li     3.490000    0.000000   10.000000    ( 0.0000,  0.0000,  0.0000)
  25 Li     5.235000    1.745000   11.745000    ( 0.0000,  0.0000,  0.0000)
  26 Li     3.490000    0.000000   13.490000    ( 0.0000,  0.0000,  0.0000)
  27 Li     5.235000    1.745000   15.235000    ( 0.0000,  0.0000,  0.0000)
  28 Li     3.511043   -0.024265   16.923500    ( 0.0000,  0.0000,  0.0000)
  29 Li     5.228614    1.730822   18.644024    ( 0.0000,  0.0000,  0.0000)
  30 Li     3.584329   -0.106197   20.330185    ( 0.0000,  0.0000,  0.0000)
  31 Li     4.906685    1.749127   22.324133    ( 0.0000,  0.0000,  0.0000)
  32 Li     3.490000    3.490000   10.000000    ( 0.0000,  0.0000,  0.0000)
  33 Li     5.235000    5.235000   11.745000    ( 0.0000,  0.0000,  0.0000)
  34 Li     3.490000    3.490000   13.490000    ( 0.0000,  0.0000,  0.0000)
  35 Li     5.235000    5.235000   15.235000    ( 0.0000,  0.0000,  0.0000)
  36 Li     3.519243    3.509257   16.918529    ( 0.0000,  0.0000,  0.0000)
  37 Li     5.293289    5.297100   18.629884    ( 0.0000,  0.0000,  0.0000)
  38 Li     3.618893    3.575047   20.312402    ( 0.0000,  0.0000,  0.0000)
  39 Li     5.179399    5.234796   22.295784    ( 0.0000,  0.0000,  0.0000)
  40 Li     3.490000    6.980000   10.000000    ( 0.0000,  0.0000,  0.0000)
  41 Li     5.235000    8.725000   11.745000    ( 0.0000,  0.0000,  0.0000)
  42 Li     3.490000    6.980000   13.490000    ( 0.0000,  0.0000,  0.0000)
  43 Li     5.235000    8.725000   15.235000    ( 0.0000,  0.0000,  0.0000)
  44 Li     3.477942    6.984852   16.944277    ( 0.0000,  0.0000,  0.0000)
  45 Li     5.306987    8.676838   18.627401    ( 0.0000,  0.0000,  0.0000)
  46 Li     3.449460    7.000096   20.445712    ( 0.0000,  0.0000,  0.0000)
  47 Li     5.245816    8.719439   22.277526    ( 0.0000,  0.0000,  0.0000)
  48 Li     6.980000    0.000000   10.000000    ( 0.0000,  0.0000,  0.0000)
  49 Li     8.725000    1.745000   11.745000    ( 0.0000,  0.0000,  0.0000)
  50 Li     6.980000    0.000000   13.490000    ( 0.0000,  0.0000,  0.0000)
  51 Li     8.725000    1.745000   15.235000    ( 0.0000,  0.0000,  0.0000)
  52 Li     6.980003    0.017142   16.928085    ( 0.0000,  0.0000,  0.0000)
  53 Li     8.731379    1.730821   18.644026    ( 0.0000,  0.0000,  0.0000)
  54 Li     6.980001    0.061106   20.482554    ( 0.0000,  0.0000,  0.0000)
  55 Li     9.053326    1.749127   22.324140    ( 0.0000,  0.0000,  0.0000)
  56 Li     6.980000    3.490000   10.000000    ( 0.0000,  0.0000,  0.0000)
  57 Li     8.725000    5.235000   11.745000    ( 0.0000,  0.0000,  0.0000)
  58 Li     6.980000    3.490000   13.490000    ( 0.0000,  0.0000,  0.0000)
  59 Li     8.725000    5.235000   15.235000    ( 0.0000,  0.0000,  0.0000)
  60 Li     6.980003    3.476535   16.950065    ( 0.0000,  0.0000,  0.0000)
  61 Li     8.666719    5.297108   18.629883    ( 0.0000,  0.0000,  0.0000)
  62 Li     6.980001    3.444924   20.477818    ( 0.0000,  0.0000,  0.0000)
  63 Li     8.780587    5.234796   22.295787    ( 0.0000,  0.0000,  0.0000)
  64 Li     6.980000    6.980000   10.000000    ( 0.0000,  0.0000,  0.0000)
  65 Li     8.725000    8.725000   11.745000    ( 0.0000,  0.0000,  0.0000)
  66 Li     6.980000    6.980000   13.490000    ( 0.0000,  0.0000,  0.0000)
  67 Li     8.725000    8.725000   15.235000    ( 0.0000,  0.0000,  0.0000)
  68 Li     6.980002    6.976232   16.848759    ( 0.0000,  0.0000,  0.0000)
  69 Li     8.653023    8.676831   18.627399    ( 0.0000,  0.0000,  0.0000)
  70 Li     6.979999    6.962893   20.488278    ( 0.0000,  0.0000,  0.0000)
  71 Li     8.714170    8.719442   22.277529    ( 0.0000,  0.0000,  0.0000)
  72 Li     1.744999    2.356541   24.034010    ( 0.0000,  0.0000,  0.0000)

Unit cell:
           periodic     x           y           z      points  spacing
  1. axis:    yes   10.470000    0.000000    0.000000    35     0.2991
  2. axis:    yes    0.000000   10.470000    0.000000    35     0.2991
  3. axis:    no     0.000000    0.000000   32.215000   108     0.2983

  Lengths:  10.470000  10.470000  32.215000
  Angles:   90.000000  90.000000  90.000000

Effective grid spacing dv^(1/3) = 0.2989

     iter     time        total  log10-change:
                         energy   eigst   dens
iter:   1 01:10:19  -131.375624   -3.22
iter:   2 01:10:23  -131.362590   -3.66  -1.86
iter:   3 01:10:26  -131.363700c  -3.70  -2.11
iter:   4 01:10:30  -131.354745c  -4.56  -1.99
iter:   5 01:10:34  -131.352898c  -4.50  -2.54
iter:   6 01:10:38  -131.353251c  -4.93  -2.74
iter:   7 01:10:42  -131.352809c  -5.80c -2.84
iter:   8 01:10:46  -131.352569c  -5.80c -3.14
iter:   9 01:10:50  -131.352659c  -6.42c -3.37
iter:  10 01:10:53  -131.352648c  -6.80c -3.43
iter:  11 01:10:57  -131.352648c  -6.88c -3.52
iter:  12 01:11:01  -131.352639c  -7.19c -3.75
iter:  13 01:11:05  -131.352681c  -7.13c -3.81
iter:  14 01:11:08  -131.352659c  -7.56c -3.89
iter:  15 01:11:13  -131.352644c  -7.55c -4.03c

Converged after 15 iterations.

Dipole moment: (3.021491, 2.867774, 0.298240) |e|*Ang

Energy contributions relative to reference atoms: (reference = -14803.510878)

Kinetic:       +102.374873
Potential:      -92.051043
External:        +0.000000
XC:            -140.580745
Entropy (-ST):   -1.216019
Local:           -0.487720
SIC:             +0.000000
--------------------------
Free energy:   -131.960653
Extrapolated:  -131.352644

Showing all kpts
 Kpt  Band  Eigenvalues  Occupancy
  0    34     -1.57945    1.60653
  0    35     -1.56683    1.56513
  0    36     -1.38703    0.74695
  0    37     -1.34294    0.55447

  1    34     -1.57945    1.60653
  1    35     -1.56683    1.56513
  1    36     -1.38703    0.74695
  1    37     -1.34294    0.55447


Fermi level: -1.43876

Gap: 0.180 eV
Transition (v -> c):
  (s=0, k=0, n=35, [0.25, -0.25, 0.00]) -> (s=0, k=1, n=36, [0.25, 0.25, 0.00])
Direct/indirect transitions are different
Direct gap: 0.180 eV
Transition at: (s=0, k=1, n=35, [0.25, 0.25, 0.00])

Forces in eV/Ang:
  0 Li    0.00009   -0.00153   -0.03275
  1 Li    0.00000    0.00045    0.06252
  2 Li    0.00109    0.00099    0.01010
  3 Li   -0.00000    0.00092   -0.00406
  4 Li   -0.00337   -0.00157    0.00595
  5 Li    0.00000   -0.00239   -0.03136
  6 Li   -0.02674   -0.02130   -0.03838
  7 Li   -0.00000   -0.03448    0.02914
  8 Li   -0.00160    0.00017   -0.03423
  9 Li    0.00000    0.00095    0.06121
 10 Li    0.00046   -0.00081    0.00401
 11 Li    0.00000   -0.00583   -0.01762
 12 Li   -0.00076    0.00266    0.01026
 13 Li    0.00000    0.00356    0.01546
 14 Li    0.00129    0.00664   -0.00527
 15 Li   -0.00000    0.04382    0.00002
 16 Li    0.00349    0.00131   -0.02929
 17 Li    0.00000   -0.00142    0.05749
 18 Li    0.00039   -0.00006    0.02683
 19 Li    0.00000    0.00503   -0.03022
 20 Li   -0.00340   -0.00111    0.00837
 21 Li    0.00000    0.00179    0.00113
 22 Li   -0.00172    0.00083   -0.00953
 23 Li    0.00000    0.01984   -0.02198
 24 Li   -0.00009   -0.00153   -0.03275
 25 Li    0.00125    0.00105    0.05970
 26 Li   -0.00109    0.00099    0.01010
 27 Li   -0.00544    0.00050   -0.02920
 28 Li    0.00338   -0.00157    0.00595
 29 Li    0.00430   -0.00000    0.00493
 30 Li    0.02675   -0.02130   -0.03837
 31 Li   -0.00932    0.00416   -0.01125
 32 Li    0.00160    0.00017   -0.03423
 33 Li   -0.00074   -0.00192    0.05868
 34 Li   -0.00046   -0.00081    0.00401
 35 Li   -0.00039   -0.00018   -0.04207
 36 Li    0.00077    0.00266    0.01026
 37 Li    0.00505    0.00388    0.00787
 38 Li   -0.00128    0.00664   -0.00527
 39 Li    0.00478   -0.00966   -0.00087
 40 Li   -0.00349    0.00131   -0.02929
 41 Li   -0.00199    0.00092    0.05760
 42 Li   -0.00039   -0.00006    0.02683
 43 Li    0.00020   -0.00023   -0.04551
 44 Li    0.00339   -0.00111    0.00837
 45 Li    0.00602   -0.00479    0.00925
 46 Li    0.00172    0.00083   -0.00953
 47 Li   -0.00292    0.00120   -0.01681
 48 Li   -0.00000    0.00381   -0.02902
 49 Li   -0.00125    0.00105    0.05970
 50 Li    0.00000    0.00105    0.02544
 51 Li    0.00544    0.00050   -0.02921
 52 Li   -0.00000   -0.00491    0.00847
 53 Li   -0.00430   -0.00000    0.00493
 54 Li   -0.00000    0.00354   -0.00063
 55 Li    0.00932    0.00416   -0.01124
 56 Li    0.00000   -0.00307   -0.02907
 57 Li    0.00074   -0.00192    0.05868
 58 Li    0.00000   -0.00007    0.02982
 59 Li    0.00039   -0.00018   -0.04207
 60 Li   -0.00000    0.00388    0.00622
 61 Li   -0.00505    0.00387    0.00787
 62 Li   -0.00000    0.00147   -0.00526
 63 Li   -0.00478   -0.00966   -0.00087
 64 Li   -0.00000   -0.00082   -0.02985
 65 Li    0.00199    0.00092    0.05760
 66 Li    0.00000   -0.00084    0.00928
 67 Li   -0.00020   -0.00023   -0.04552
 68 Li   -0.00000    0.00119    0.01347
 69 Li   -0.00603   -0.00478    0.00925
 70 Li   -0.00000   -0.00646    0.00526
 71 Li    0.00293    0.00120   -0.01682
 72 Li   -0.00000    0.00636   -0.06030

Timing:                                      incl.     excl.
-------------------------------------------------------------------
Density initialized from wave functions:     5.882     5.882   0.1% |
 Symmetrize density:                         0.000     0.000   0.0% |
Forces:                                     31.912    31.912   0.3% |
Hamiltonian:                                13.004     0.037   0.0% |
 Atomic:                                     6.930     0.025   0.0% |
  XC Correction:                             6.905     6.905   0.1% |
 Calculate atomic Hamiltonians:              4.112     4.112   0.0% |
 Communicate:                                0.000     0.000   0.0% |
 Initialize Hamiltonian:                     0.009     0.009   0.0% |
 Poisson:                                    0.117     0.117   0.0% |
 XC 3D grid:                                 1.799     1.799   0.0% |
LCAO initialization:                        12.941     0.009   0.0% |
 LCAO eigensolver:                           0.459     0.000   0.0% |
  Calculate projections:                     0.004     0.004   0.0% |
  DenseAtomicCorrection:                     0.047     0.047   0.0% |
  Distribute overlap matrix:                 0.000     0.000   0.0% |
  Orbital Layouts:                           0.104     0.104   0.0% |
  Potential matrix:                          0.299     0.299   0.0% |
  Sum over cells:                            0.004     0.004   0.0% |
 LCAO to grid:                              11.717    11.717   0.1% |
 Set positions (LCAO WFS):                   0.756     0.190   0.0% |
  Basic WFS set positions:                   0.001     0.001   0.0% |
  Basis functions set positions:             0.000     0.000   0.0% |
  P tci:                                     0.364     0.364   0.0% |
  ST tci:                                    0.168     0.168   0.0% |
  mktci:                                     0.033     0.033   0.0% |
PWDescriptor:                                0.024     0.024   0.0% |
Redistribute:                                0.022     0.022   0.0% |
SCF-cycle:                                 585.508     0.213   0.0% |
 Davidson:                                 322.337    66.313   0.6% |
  Apply H:                                  54.539    53.932   0.5% |
   HMM T:                                    0.607     0.607   0.0% |
  Subspace diag:                            62.971     0.041   0.0% |
   calc_h_matrix:                           57.888     3.867   0.0% |
    Apply H:                                54.020    53.009   0.5% |
     HMM T:                                  1.011     1.011   0.0% |
   diagonalize:                              0.234     0.234   0.0% |
   rotate_psi:                               4.808     4.808   0.0% |
  calc. matrices:                          127.313    18.951   0.2% |
   Apply H:                                108.362   107.137   1.0% |
    HMM T:                                   1.225     1.225   0.0% |
  diagonalize:                               1.762     1.762   0.0% |
  rotate_psi:                                9.438     9.438   0.1% |
 Density:                                   82.355     0.002   0.0% |
  Atomic density matrices:                   0.422     0.422   0.0% |
  Mix:                                      55.427    55.427   0.5% |
  Multipole moments:                         0.121     0.121   0.0% |
  Pseudo density:                           26.383    26.379   0.2% |
   Symmetrize density:                       0.005     0.005   0.0% |
 Hamiltonian:                              178.873     0.338   0.0% |
  Atomic:                                   96.499     0.438   0.0% |
   XC Correction:                           96.062    96.062   0.9% |
  Calculate atomic Hamiltonians:            58.244    58.244   0.5% |
  Communicate:                               0.001     0.001   0.0% |
  Poisson:                                   0.254     0.254   0.0% |
  XC 3D grid:                               23.537    23.537   0.2% |
 Orthonormalize:                             1.730     0.003   0.0% |
  calc_s_matrix:                             0.129     0.129   0.0% |
  inverse-cholesky:                          0.008     0.008   0.0% |
  projections:                               1.172     1.172   0.0% |
  rotate_psi_s:                              0.418     0.418   0.0% |
Set symmetry:                                0.001     0.001   0.0% |
Other:                                   10102.910 10102.910  94.0% |-------------------------------------|
-------------------------------------------------------------------
Total:                                             10752.204 100.0%

Memory usage: 4.13 GiB
Date: Tue Nov 25 03:13:44 2025
