73
Lattice="10.47 0.0 0.0 0.0 10.47 0.0 0.0 0.0 32.215" Properties=species:S:1:pos:R:3:move_mask:L:1:tags:I:1:forces:R:3:magmoms:R:1 energy=-131.35185351609238 dipole="2.8682688467605506 2.868268846760454 0.27785584042199235" magmom=0.0 free_energy=-131.95964088852264 pbc="T T F"
Li       0.00000000       0.00000000      10.00000000  F        4      -0.00071238      -0.00071238      -0.03378083       0.00000000
Li       1.74500000       1.74500000      11.74500000  F        4       0.00002556       0.00002556       0.06262539       0.00000000
Li       0.00000000       0.00000000      13.49000000  F        3       0.00150550       0.00150550       0.00600493       0.00000000
Li       1.74500000       1.74500000      15.23500000  F        3      -0.00001186      -0.00001186      -0.00618023       0.00000000
Li      -0.02747354      -0.02747354      16.91436313  T        2      -0.00312660      -0.00312660       0.01012993       0.00000000
Li       1.74499809       1.74499809      18.52175824  T        2      -0.00000810      -0.00000810      -0.01805329       0.00000000
Li      -0.12529299      -0.12529299      20.32297213  T        1      -0.00447970      -0.00447970      -0.02260763       0.00000000
Li       1.74500896       1.74500896      21.39696088  T        1       0.00000038       0.00000038      -0.04646612       0.00000000
Li       0.00000000       3.49000000      10.00000000  F        4      -0.00071577       0.00074334      -0.03378770       0.00000000
Li       1.74500000       5.23500000      11.74500000  F        4      -0.00000803       0.00126268       0.06019107       0.00000000
Li       0.00000000       3.49000000      13.49000000  F        3       0.00154324      -0.00148553       0.00601766       0.00000000
Li       1.74500000       5.23500000      15.23500000  F        3      -0.00000883      -0.00813656      -0.03095971       0.00000000
Li      -0.02746764       3.51746162      16.91436123  T        2      -0.00313003       0.00311296       0.01013343       0.00000000
Li       1.74499358       5.20669839      18.64292648  T        2      -0.00000772       0.00635764       0.01120327       0.00000000
Li      -0.12529545       3.61528178      20.32296405  T        1      -0.00448732       0.00445894      -0.02261975       0.00000000
Li       1.74499103       4.84241483      22.33438304  T        1       0.00000266       0.00277713      -0.01787728       0.00000000
Li       0.00000000       6.98000000      10.00000000  F        4       0.00416746      -0.00001668      -0.02938852       0.00000000
Li       1.74500000       8.72500000      11.74500000  F        4      -0.00000876      -0.00127379       0.06016192       0.00000000
Li       0.00000000       6.98000000      13.49000000  F        3      -0.00009213      -0.00000211       0.02996618       0.00000000
Li       1.74500000       8.72500000      15.23500000  F        3      -0.00000765       0.00814918      -0.03095999       0.00000000
Li       0.02593615       6.98000408      16.94644668  T        2      -0.01206553       0.00000338       0.00605235       0.00000000
Li       1.74499279       8.75328447      18.64293458  T        2      -0.00000969      -0.00636568       0.01121526       0.00000000
Li       0.07061398       6.98000219      20.48568502  T        1      -0.00302074      -0.00000030      -0.01298584       0.00000000
Li       1.74498991       9.11760102      22.33438820  T        1       0.00000253      -0.00277262      -0.01785803       0.00000000
Li       3.49000000       0.00000000      10.00000000  F        4       0.00074334      -0.00071577      -0.03378770       0.00000000
Li       5.23500000       1.74500000      11.74500000  F        4       0.00126268      -0.00000803       0.06019107       0.00000000
Li       3.49000000       0.00000000      13.49000000  F        3      -0.00148553       0.00154324       0.00601766       0.00000000
Li       5.23500000       1.74500000      15.23500000  F        3      -0.00813656      -0.00000883      -0.03095971       0.00000000
Li       3.51746162      -0.02746764      16.91436123  T        2       0.00311296      -0.00313003       0.01013343       0.00000000
Li       5.20669839       1.74499358      18.64292648  T        2       0.00635764      -0.00000772       0.01120327       0.00000000
Li       3.61528178      -0.12529545      20.32296405  T        1       0.00445894      -0.00448732      -0.02261975       0.00000000
Li       4.84241483       1.74499103      22.33438304  T        1       0.00277713       0.00000266      -0.01787728       0.00000000
Li       3.49000000       3.49000000      10.00000000  F        4       0.00074185       0.00074185      -0.03379852       0.00000000
Li       5.23500000       5.23500000      11.74500000  F        4      -0.00186597      -0.00186597       0.05861228       0.00000000
Li       3.49000000       3.49000000      13.49000000  F        3      -0.00151780      -0.00151780       0.00603283       0.00000000
Li       5.23500000       5.23500000      15.23500000  F        3      -0.00293994      -0.00293994      -0.04728276       0.00000000
Li       3.51745786       3.51745786      16.91436425  T        2       0.00311943       0.00311943       0.01014391       0.00000000
Li       5.30726865       5.30726865      18.61967938  T        2       0.00073601       0.00073601       0.01353067       0.00000000
Li       3.61528473       3.61528473      20.32295868  T        1       0.00446773       0.00446773      -0.02262460       0.00000000
Li       5.24532415       5.24532415      22.28639769  T        1      -0.00727935      -0.00727935      -0.00442158       0.00000000
Li       3.49000000       6.98000000      10.00000000  F        4      -0.00416026      -0.00001611      -0.02940310       0.00000000
Li       5.23500000       8.72500000      11.74500000  F        4      -0.00184201       0.00187317       0.05861920       0.00000000
Li       3.49000000       6.98000000      13.49000000  F        3       0.00008120      -0.00000485       0.02994855       0.00000000
Li       5.23500000       8.72500000      15.23500000  F        3      -0.00294268       0.00296293      -0.04728371       0.00000000
Li       3.46406989       6.98000406      16.94646375  T        2       0.01206537       0.00000507       0.00607275       0.00000000
Li       5.30728638       8.65274483      18.61967626  T        2       0.00074502      -0.00072307       0.01353107       0.00000000
Li       3.41938199       6.98000094      20.48568541  T        1       0.00303254      -0.00000092      -0.01300119       0.00000000
Li       5.24532255       8.71465349      22.28640044  T        1      -0.00728365       0.00724694      -0.00442000       0.00000000
Li       6.98000000       0.00000000      10.00000000  F        4      -0.00001668       0.00416746      -0.02938852       0.00000000
Li       8.72500000       1.74500000      11.74500000  F        4      -0.00127379      -0.00000876       0.06016192       0.00000000
Li       6.98000000       0.00000000      13.49000000  F        3      -0.00000211      -0.00009213       0.02996618       0.00000000
Li       8.72500000       1.74500000      15.23500000  F        3       0.00814918      -0.00000765      -0.03095999       0.00000000
Li       6.98000408       0.02593615      16.94644668  T        2       0.00000338      -0.01206553       0.00605235       0.00000000
Li       8.75328447       1.74499279      18.64293458  T        2      -0.00636568      -0.00000969       0.01121526       0.00000000
Li       6.98000219       0.07061398      20.48568502  T        1      -0.00000030      -0.00302074      -0.01298584       0.00000000
Li       9.11760102       1.74498991      22.33438820  T        1      -0.00277262       0.00000253      -0.01785803       0.00000000
Li       6.98000000       3.49000000      10.00000000  F        4      -0.00001611      -0.00416026      -0.02940310       0.00000000
Li       8.72500000       5.23500000      11.74500000  F        4       0.00187317      -0.00184201       0.05861920       0.00000000
Li       6.98000000       3.49000000      13.49000000  F        3      -0.00000485       0.00008120       0.02994855       0.00000000
Li       8.72500000       5.23500000      15.23500000  F        3       0.00296293      -0.00294268      -0.04728371       0.00000000
Li       6.98000406       3.46406989      16.94646375  T        2       0.00000507       0.01206537       0.00607275       0.00000000
Li       8.65274483       5.30728638      18.61967626  T        2      -0.00072307       0.00074502       0.01353107       0.00000000
Li       6.98000094       3.41938199      20.48568541  T        1      -0.00000092       0.00303254      -0.01300119       0.00000000
Li       8.71465349       5.24532255      22.28640044  T        1       0.00724694      -0.00728365      -0.00442000       0.00000000
Li       6.98000000       6.98000000      10.00000000  F        4      -0.00002230      -0.00002230      -0.03012857       0.00000000
Li       8.72500000       8.72500000      11.74500000  F        4       0.00185469       0.00185469       0.05863353       0.00000000
Li       6.98000000       6.98000000      13.49000000  F        3       0.00001377       0.00001377       0.00277752       0.00000000
Li       8.72500000       8.72500000      15.23500000  F        3       0.00295540       0.00295540      -0.04728436       0.00000000
Li       6.98000643       6.98000643      16.81115580  T        2       0.00001178       0.00001178       0.03904917       0.00000000
Li       8.65272724       8.65272724      18.61967249  T        2      -0.00073001      -0.00073001       0.01352891       0.00000000
Li       6.98000113       6.98000113      20.48328963  T        1       0.00000357       0.00000357       0.00798424       0.00000000
Li       8.71465914       8.71465914      22.28640433  T        1       0.00725664       0.00725664      -0.00441779       0.00000000
Li       1.74500114       1.74500114      23.98081200  T        0      -0.00000496      -0.00000496       0.00055582       0.00000000
