
  ___ ___ ___ _ _ _  
 |   |   |_  | | | | 
 | | | | | . | | | | 
 |__ |  _|___|_____|  25.7.0
 |___|_|             

User:   tew@Mathuss-MacBook-Air-357.local
Date:   Tue Nov 25 08:03:16 2025
Arch:   arm64
Pid:    53368
CWD:    /Users/tew/Documents/Project/GitHub/chem-com
Python: 3.13.5
gpaw:   /Users/tew/Documents/Project/GitHub/chem-com/.venv/lib/python3.13/site-packages/gpaw
_gpaw:  /Users/tew/Documents/Project/GitHub/chem-com/.venv/lib/python3.13/site-packages/
        _gpaw.cpython-313-darwin.so
ase:    /Users/tew/Documents/Project/GitHub/chem-com/.venv/lib/python3.13/site-packages/ase (version 3.26.0)
numpy:  /Users/tew/Documents/Project/GitHub/chem-com/.venv/lib/python3.13/site-packages/numpy (version 2.3.5)
scipy:  /Users/tew/Documents/Project/GitHub/chem-com/.venv/lib/python3.13/site-packages/scipy (version 1.16.3)
libxc:  2.x.y
units:  Angstrom and eV
cores: 1
OpenMP: False
OMP_NUM_THREADS: 1

Input parameters:
  convergence: {density: 0.0001,
                eigenstates: 5e-06}
  kpts: [3 3 1]
  mode: {ecut: 500.0,
         name: pw}
  xc: PBE

System changes: positions, numbers, cell, pbc, initial_charges, initial_magmoms 

Initialize ...

species:
  Li:
    name: Lithium
    id: 830b4218f175192f93f959cfc0aad614
    Z: 3.0
    valence: 1
    core: 2
    charge: 0.0
    file: /Users/tew/Documents/Project/GitHub/chem-com/.venv/lib/python3.13/site-packages/gpaw_data/setups/Li.PBE.gz
    compensation charges: {type: gauss,
                           rc: 0.33,
                           lmax: 2}
    cutoffs: {filter: 1.91,
              core: 2.55}
    projectors:
      #              energy  rcut
      - 2s(1.00)    -2.874   1.058
      - 2p(0.00)    -1.090   1.058
      -  s          24.337   1.058
  
    # Using partial waves for Li as LCAO basis

Reference energy: -14803.510878  # eV

Spin-paired calculation

Convergence criteria:
 Maximum [total energy] change in last 3 cyles: 0.0005 eV / valence electron
 Maximum integral of absolute [dens]ity change: 0.0001 electrons / valence electron
 Maximum integral of absolute [eigenst]ate change: 5e-06 eV^2 / valence electron
 Maximum number of scf [iter]ations: 333
 (Square brackets indicate name in SCF output, whereas a 'c' in
 the SCF output indicates the quantity has converged.)

Symmetries present (total): 2

  ( 1  0  0)  ( 0  1  0)
  ( 0  1  0)  ( 1  0  0)
  ( 0  0  1)  ( 0  0  1)

9 k-points: 3 x 3 x 1 Monkhorst-Pack grid
4 k-points in the irreducible part of the Brillouin zone
       k-points in crystal coordinates                weights
   0:     0.00000000    0.00000000    0.00000000          1/9
   1:     0.33333333   -0.33333333    0.00000000          2/9
   2:     0.33333333    0.00000000    0.00000000          4/9
   3:     0.33333333    0.33333333    0.00000000          2/9

Wave functions: Plane wave expansion
  Cutoff energy: 500.000 eV
  Number of coefficients (min, max): 89557, 89657
  Pulay-stress correction: 0.000000 eV/Ang^3 (de/decut=0.000000)
  Using Numpy's FFT
  ScaLapack parameters: grid=1x1, blocksize=None
  Wavefunction extrapolation:
    Improved wavefunction reuse through dual PAW basis 

Occupation numbers: Fermi-Dirac:
  width: 0.1000  # eV
 

Eigensolver
   Davidson(niter=2) 

Densities:
  Coarse grid: 54*54*168 grid
  Fine grid: 108*108*336 grid
  Total Charge: 0.000000 

Density mixing:
  Method: separate
  Backend: pulay
  Linear mixing parameter: 0.05
  old densities: 5
  Damping of long wavelength oscillations: 50 

Hamiltonian:
  XC and Coulomb potentials evaluated on a 108*108*336 grid
  Using the PBE Exchange-Correlation functional
  External potential:
    NoExternalPotential
 

XC parameters: PBE with 2 nearest neighbor stencil

Memory estimate:
  Process memory now: 7411.14 MiB
  Calculator: 674.72 MiB
    Density: 229.34 MiB
      Arrays: 97.18 MiB
      Localized functions: 94.79 MiB
      Mixer: 37.38 MiB
    Hamiltonian: 65.47 MiB
      Arrays: 63.54 MiB
      XC: 0.00 MiB
      Poisson: 0.00 MiB
      vbar: 1.93 MiB
    Wavefunctions: 379.90 MiB
      Arrays psit_nG: 262.67 MiB
      Eigensolver: 72.86 MiB
      Projections: 1.07 MiB
      Projectors: 19.14 MiB
      PW-descriptor: 24.16 MiB

Total number of cores used: 1

Number of atoms: 73
Number of atomic orbitals: 292
Number of bands in calculation: 48
Number of valence electrons: 73
Bands to converge: occupied

... initialized

Initializing position-dependent things.

Density initialized from atomic densities
Creating initial wave functions:
  48 bands from LCAO basis set

       .-------------------------.  
      /|                         |  
     / |                         |  
    /  |                         |  
   /   |                         |  
  /    |                         |  
 *     |                         |  
 |     |                         |  
 |     |                         |  
 |     |                         |  
 |     |                         |  
 |     |                         |  
 |     |                         |  
 |     |   Li      Li       Li   |  
 |     |                         |  
 |    LiLi      LLi       Li     Li 
 |     |                         |  
 |   Li|     LLi      Li Li      |  
 |    Li  Li       Li      Li    |  
 |     |    Li  Li  Li       Li  Li 
 |     |Li       Li       Li     |  
 |   Li|      Li  Li  Li         |  
 |    Li  Li   Li  Li   Li  Li   |  
 |     |    Li      Li       Li  |  
 |     |Li       Li       Li     |  
 |   Li|      Li  Li  Li         |  
 |    Li  Li   Li  Li   Li  Li   |  
 | Li  |    Li      Li           |  
 |     |Li       Li       Li     |  
 Li    |  Li      Li             |  
 |   LLi      LLi     LiLi       |  
 |     |                         |  
 | Li  |    Li      Li           |  
 |     |                         |  
 Li    |  Li      Li             |  
 |     |                         |  
 |     |                         |  
 |     |                         |  
 |     |                         |  
 |     |                         |  
 |     .-------------------------.  
 |    /                         /   
 |   /                         /    
 |  /                         /     
 | /                         /      
 |/                         /       
 *-------------------------*        

Atomic positions and initial magnetic moments

Positions:
   0 Li     0.000000    0.000000   10.000000    ( 0.0000,  0.0000,  0.0000)
   1 Li     1.745000    1.745000   11.745000    ( 0.0000,  0.0000,  0.0000)
   2 Li     0.000000    0.000000   13.490000    ( 0.0000,  0.0000,  0.0000)
   3 Li     1.745000    1.745000   15.235000    ( 0.0000,  0.0000,  0.0000)
   4 Li    -0.027474   -0.027474   16.914363    ( 0.0000,  0.0000,  0.0000)
   5 Li     1.744998    1.744998   18.521758    ( 0.0000,  0.0000,  0.0000)
   6 Li    -0.125293   -0.125293   20.322972    ( 0.0000,  0.0000,  0.0000)
   7 Li     1.745009    1.745009   21.396961    ( 0.0000,  0.0000,  0.0000)
   8 Li     0.000000    3.490000   10.000000    ( 0.0000,  0.0000,  0.0000)
   9 Li     1.745000    5.235000   11.745000    ( 0.0000,  0.0000,  0.0000)
  10 Li     0.000000    3.490000   13.490000    ( 0.0000,  0.0000,  0.0000)
  11 Li     1.745000    5.235000   15.235000    ( 0.0000,  0.0000,  0.0000)
  12 Li    -0.027468    3.517462   16.914361    ( 0.0000,  0.0000,  0.0000)
  13 Li     1.744994    5.206698   18.642926    ( 0.0000,  0.0000,  0.0000)
  14 Li    -0.125295    3.615282   20.322964    ( 0.0000,  0.0000,  0.0000)
  15 Li     1.744991    4.842415   22.334383    ( 0.0000,  0.0000,  0.0000)
  16 Li     0.000000    6.980000   10.000000    ( 0.0000,  0.0000,  0.0000)
  17 Li     1.745000    8.725000   11.745000    ( 0.0000,  0.0000,  0.0000)
  18 Li     0.000000    6.980000   13.490000    ( 0.0000,  0.0000,  0.0000)
  19 Li     1.745000    8.725000   15.235000    ( 0.0000,  0.0000,  0.0000)
  20 Li     0.025936    6.980004   16.946447    ( 0.0000,  0.0000,  0.0000)
  21 Li     1.744993    8.753284   18.642935    ( 0.0000,  0.0000,  0.0000)
  22 Li     0.070614    6.980002   20.485685    ( 0.0000,  0.0000,  0.0000)
  23 Li     1.744990    9.117601   22.334388    ( 0.0000,  0.0000,  0.0000)
  24 Li     3.490000    0.000000   10.000000    ( 0.0000,  0.0000,  0.0000)
  25 Li     5.235000    1.745000   11.745000    ( 0.0000,  0.0000,  0.0000)
  26 Li     3.490000    0.000000   13.490000    ( 0.0000,  0.0000,  0.0000)
  27 Li     5.235000    1.745000   15.235000    ( 0.0000,  0.0000,  0.0000)
  28 Li     3.517462   -0.027468   16.914361    ( 0.0000,  0.0000,  0.0000)
  29 Li     5.206698    1.744994   18.642926    ( 0.0000,  0.0000,  0.0000)
  30 Li     3.615282   -0.125295   20.322964    ( 0.0000,  0.0000,  0.0000)
  31 Li     4.842415    1.744991   22.334383    ( 0.0000,  0.0000,  0.0000)
  32 Li     3.490000    3.490000   10.000000    ( 0.0000,  0.0000,  0.0000)
  33 Li     5.235000    5.235000   11.745000    ( 0.0000,  0.0000,  0.0000)
  34 Li     3.490000    3.490000   13.490000    ( 0.0000,  0.0000,  0.0000)
  35 Li     5.235000    5.235000   15.235000    ( 0.0000,  0.0000,  0.0000)
  36 Li     3.517458    3.517458   16.914364    ( 0.0000,  0.0000,  0.0000)
  37 Li     5.307269    5.307269   18.619679    ( 0.0000,  0.0000,  0.0000)
  38 Li     3.615285    3.615285   20.322959    ( 0.0000,  0.0000,  0.0000)
  39 Li     5.245324    5.245324   22.286398    ( 0.0000,  0.0000,  0.0000)
  40 Li     3.490000    6.980000   10.000000    ( 0.0000,  0.0000,  0.0000)
  41 Li     5.235000    8.725000   11.745000    ( 0.0000,  0.0000,  0.0000)
  42 Li     3.490000    6.980000   13.490000    ( 0.0000,  0.0000,  0.0000)
  43 Li     5.235000    8.725000   15.235000    ( 0.0000,  0.0000,  0.0000)
  44 Li     3.464070    6.980004   16.946464    ( 0.0000,  0.0000,  0.0000)
  45 Li     5.307286    8.652745   18.619676    ( 0.0000,  0.0000,  0.0000)
  46 Li     3.419382    6.980001   20.485685    ( 0.0000,  0.0000,  0.0000)
  47 Li     5.245323    8.714653   22.286400    ( 0.0000,  0.0000,  0.0000)
  48 Li     6.980000    0.000000   10.000000    ( 0.0000,  0.0000,  0.0000)
  49 Li     8.725000    1.745000   11.745000    ( 0.0000,  0.0000,  0.0000)
  50 Li     6.980000    0.000000   13.490000    ( 0.0000,  0.0000,  0.0000)
  51 Li     8.725000    1.745000   15.235000    ( 0.0000,  0.0000,  0.0000)
  52 Li     6.980004    0.025936   16.946447    ( 0.0000,  0.0000,  0.0000)
  53 Li     8.753284    1.744993   18.642935    ( 0.0000,  0.0000,  0.0000)
  54 Li     6.980002    0.070614   20.485685    ( 0.0000,  0.0000,  0.0000)
  55 Li     9.117601    1.744990   22.334388    ( 0.0000,  0.0000,  0.0000)
  56 Li     6.980000    3.490000   10.000000    ( 0.0000,  0.0000,  0.0000)
  57 Li     8.725000    5.235000   11.745000    ( 0.0000,  0.0000,  0.0000)
  58 Li     6.980000    3.490000   13.490000    ( 0.0000,  0.0000,  0.0000)
  59 Li     8.725000    5.235000   15.235000    ( 0.0000,  0.0000,  0.0000)
  60 Li     6.980004    3.464070   16.946464    ( 0.0000,  0.0000,  0.0000)
  61 Li     8.652745    5.307286   18.619676    ( 0.0000,  0.0000,  0.0000)
  62 Li     6.980001    3.419382   20.485685    ( 0.0000,  0.0000,  0.0000)
  63 Li     8.714653    5.245323   22.286400    ( 0.0000,  0.0000,  0.0000)
  64 Li     6.980000    6.980000   10.000000    ( 0.0000,  0.0000,  0.0000)
  65 Li     8.725000    8.725000   11.745000    ( 0.0000,  0.0000,  0.0000)
  66 Li     6.980000    6.980000   13.490000    ( 0.0000,  0.0000,  0.0000)
  67 Li     8.725000    8.725000   15.235000    ( 0.0000,  0.0000,  0.0000)
  68 Li     6.980006    6.980006   16.811156    ( 0.0000,  0.0000,  0.0000)
  69 Li     8.652727    8.652727   18.619672    ( 0.0000,  0.0000,  0.0000)
  70 Li     6.980001    6.980001   20.483290    ( 0.0000,  0.0000,  0.0000)
  71 Li     8.714659    8.714659   22.286404    ( 0.0000,  0.0000,  0.0000)
  72 Li     1.745001    1.745001   23.980812    ( 0.0000,  0.0000,  0.0000)

Unit cell:
           periodic     x           y           z      points  spacing
  1. axis:    yes   10.470000    0.000000    0.000000    54     0.1939
  2. axis:    yes    0.000000   10.470000    0.000000    54     0.1939
  3. axis:    no     0.000000    0.000000   32.215000   168     0.1918

  Lengths:  10.470000  10.470000  32.215000
  Angles:   90.000000  90.000000  90.000000

Effective grid spacing dv^(1/3) = 0.1932

     iter     time        total  log10-change:
                         energy   eigst   dens
iter:   1 08:04:21  -138.377818
iter:   2 08:04:35  -133.954730   -0.76  -0.65
iter:   3 08:04:49  -133.395045   -1.27  -0.84
iter:   4 08:05:02  -133.190830   -1.60  -0.89
iter:   5 08:05:16  -132.236207   -1.86  -0.93
iter:   6 08:05:30  -134.609276   -0.89  -1.09
iter:   7 08:05:43  -131.774252   -1.53  -0.78
iter:   8 08:05:57  -131.969539   -1.64  -1.27
iter:   9 08:06:10  -131.803037   -2.66  -1.33
iter:  10 08:06:24  -131.771730   -3.08  -1.50
iter:  11 08:06:38  -131.781557c  -2.87  -1.56
iter:  12 08:06:51  -131.764392c  -3.31  -1.65
iter:  13 08:07:05  -131.762693c  -3.77  -1.83
iter:  14 08:07:19  -131.759012c  -3.85  -1.98
iter:  15 08:07:32  -131.765918c  -3.63  -2.08
iter:  16 08:07:46  -131.755706c  -4.01  -2.08
iter:  17 08:08:00  -131.754758c  -4.67  -2.34
iter:  18 08:08:13  -131.755077c  -4.90  -2.53
iter:  19 08:08:27  -131.755464c  -5.03  -2.71
iter:  20 08:08:41  -131.755217c  -5.44c -2.83
iter:  21 08:08:54  -131.755143c  -5.57c -2.91
iter:  22 08:09:08  -131.755033c  -5.52c -3.03
iter:  23 08:09:22  -131.755074c  -5.72c -3.20
iter:  24 08:09:35  -131.755121c  -5.88c -3.26
iter:  25 08:09:49  -131.755169c  -6.01c -3.44
iter:  26 08:10:03  -131.755115c  -6.18c -3.62
iter:  27 08:10:16  -131.755048c  -5.94c -3.71
iter:  28 08:10:30  -131.755049c  -6.03c -3.78
iter:  29 08:10:44  -131.755045c  -6.19c -3.89
iter:  30 08:10:57  -131.755013c  -6.11c -3.98
iter:  31 08:11:11  -131.754989c  -5.99c -4.03c

Converged after 31 iterations.

Dipole moment: (2.869913, 2.869913, 0.275723) |e|*Ang

Energy contributions relative to reference atoms: (reference = -14803.510878)

Kinetic:       +102.105437
Potential:      -92.144852
External:        +0.000000
XC:            -140.631773
Entropy (-ST):   -1.210461
Local:           -0.478571
SIC:             +0.000000
--------------------------
Free energy:   -132.360220
Extrapolated:  -131.754989

Showing only first 2 kpts
 Kpt  Band  Eigenvalues  Occupancy
  0    34     -1.39902    0.76906
  0    35     -1.39902    0.76905
  0    36     -1.36613    0.62035
  0    37     -1.31373    0.42054

  1    34     -1.51636    1.33772
  1    35     -1.50122    1.26904
  1    36     -1.49695    1.24912
  1    37     -1.43733    0.95641


Fermi level: -1.44606

No gap
No difference between direct/indirect transitions
Timing:                              incl.     excl.
-----------------------------------------------------------
Hamiltonian:                         2.019     0.005   0.0% |
 Atomic:                             0.417     0.001   0.0% |
  XC Correction:                     0.415     0.415   0.1% |
 Calculate atomic Hamiltonians:      1.178     1.178   0.2% |
 Communicate:                        0.000     0.000   0.0% |
 Initialize Hamiltonian:             0.000     0.000   0.0% |
 Poisson:                            0.003     0.003   0.0% |
 XC 3D grid:                         0.416     0.416   0.1% |
LCAO initialization:                49.682     0.003   0.0% |
 LCAO eigensolver:                   0.734     0.000   0.0% |
  Calculate projections:             0.004     0.004   0.0% |
  DenseAtomicCorrection:             0.058     0.058   0.0% |
  Distribute overlap matrix:         0.000     0.000   0.0% |
  Orbital Layouts:                   0.096     0.096   0.0% |
  Potential matrix:                  0.571     0.571   0.1% |
  Sum over cells:                    0.003     0.003   0.0% |
 LCAO to grid:                      48.357    48.357  10.2% |---|
 Set positions (LCAO WFS):           0.589     0.144   0.0% |
  Basic WFS set positions:           0.001     0.001   0.0% |
  Basis functions set positions:     0.000     0.000   0.0% |
  P tci:                             0.319     0.319   0.1% |
  ST tci:                            0.113     0.113   0.0% |
  mktci:                             0.012     0.012   0.0% |
PWDescriptor:                        0.031     0.031   0.0% |
SCF-cycle:                         419.992     0.018   0.0% |
 Davidson:                         310.220    59.459  12.5% |----|
  Apply H:                          53.621    53.075  11.2% |---|
   HMM T:                            0.545     0.545   0.1% |
  Subspace diag:                    61.670     0.008   0.0% |
   calc_h_matrix:                   56.641     3.594   0.8% |
    Apply H:                        53.047    52.504  11.0% |---|
     HMM T:                          0.543     0.543   0.1% |
   diagonalize:                      0.064     0.064   0.0% |
   rotate_psi:                       4.958     4.958   1.0% |
  calc. matrices:                  125.000    17.765   3.7% ||
   Apply H:                        107.235   106.142  22.3% |--------|
    HMM T:                           1.093     1.093   0.2% |
  diagonalize:                       0.457     0.457   0.1% |
  rotate_psi:                       10.014    10.014   2.1% ||
 Density:                           53.420     0.000   0.0% |
  Atomic density matrices:           0.076     0.076   0.0% |
  Mix:                              26.550    26.550   5.6% |-|
  Multipole moments:                 0.011     0.011   0.0% |
  Pseudo density:                   26.783    26.650   5.6% |-|
   Symmetrize density:               0.133     0.133   0.0% |
 Hamiltonian:                       55.756     0.134   0.0% |
  Atomic:                           12.161     0.043   0.0% |
   XC Correction:                   12.118    12.118   2.5% ||
  Calculate atomic Hamiltonians:    32.453    32.453   6.8% |--|
  Communicate:                       0.000     0.000   0.0% |
  Poisson:                           0.096     0.096   0.0% |
  XC 3D grid:                       10.911    10.911   2.3% ||
 Orthonormalize:                     0.577     0.000   0.0% |
  calc_s_matrix:                     0.064     0.064   0.0% |
  inverse-cholesky:                  0.001     0.001   0.0% |
  projections:                       0.423     0.423   0.1% |
  rotate_psi_s:                      0.088     0.088   0.0% |
Set symmetry:                        0.000     0.000   0.0% |
Other:                               3.591     3.591   0.8% |
-----------------------------------------------------------
Total:                                       475.316 100.0%

Memory usage: 7.24 GiB
Date: Tue Nov 25 08:11:11 2025
