
  ___ ___ ___ _ _ _  
 |   |   |_  | | | | 
 | | | | | . | | | | 
 |__ |  _|___|_____|  25.7.0
 |___|_|             

User:   tew@Mathuss-MacBook-Air-357.local
Date:   Wed Nov 26 06:07:31 2025
Arch:   arm64
Pid:    20322
CWD:    /Users/tew/Documents/Project/GitHub/chem-com
Python: 3.13.5
gpaw:   /Users/tew/Documents/Project/GitHub/chem-com/.venv/lib/python3.13/site-packages/gpaw
_gpaw:  /Users/tew/Documents/Project/GitHub/chem-com/.venv/lib/python3.13/site-packages/
        _gpaw.cpython-313-darwin.so
ase:    /Users/tew/Documents/Project/GitHub/chem-com/.venv/lib/python3.13/site-packages/ase (version 3.26.0)
numpy:  /Users/tew/Documents/Project/GitHub/chem-com/.venv/lib/python3.13/site-packages/numpy (version 2.3.5)
scipy:  /Users/tew/Documents/Project/GitHub/chem-com/.venv/lib/python3.13/site-packages/scipy (version 1.16.3)
libxc:  2.x.y
units:  Angstrom and eV
cores: 1
OpenMP: False
OMP_NUM_THREADS: 1

Input parameters:
  convergence: {density: 0.0001,
                eigenstates: 5e-06}
  kpts: [4 4 1]
  mode: {ecut: 300.0,
         name: pw}
  xc: PBE

System changes: positions, numbers, cell, pbc, initial_charges, initial_magmoms 

Initialize ...

species:
  K:
    name: Potassium
    id: 04190408da443a44668134082ce1c192
    Z: 19.0
    valence: 9
    core: 10
    charge: 0.0
    file: /Users/tew/Documents/Project/GitHub/chem-com/.venv/lib/python3.13/site-packages/gpaw_data/setups/K.PBE.gz
    compensation charges: {type: gauss,
                           rc: 0.35,
                           lmax: 2}
    cutoffs: {filter: 1.91,
              core: 1.27}
    projectors:
      #              energy  rcut
      - 3s(2.00)   -35.338   1.122
      - 4s(1.00)    -2.319   1.122
      - 3p(6.00)   -18.813   1.106
      -  p           8.398   1.106
      -  d           0.000   0.937
  
    # Using partial waves for K as LCAO basis

Reference energy: -1195904.484944  # eV

Spin-paired calculation

Convergence criteria:
 Maximum [total energy] change in last 3 cyles: 0.0005 eV / valence electron
 Maximum integral of absolute [dens]ity change: 0.0001 electrons / valence electron
 Maximum integral of absolute [eigenst]ate change: 5e-06 eV^2 / valence electron
 Maximum number of scf [iter]ations: 333
 (Square brackets indicate name in SCF output, whereas a 'c' in
 the SCF output indicates the quantity has converged.)

Symmetries present (total): 2

  ( 1  0  0)  ( 1  0  0)
  ( 0  1  0)  ( 0 -1  0)
  ( 0  0  1)  ( 0  0  1)

16 k-points: 4 x 4 x 1 Monkhorst-Pack grid
4 k-points in the irreducible part of the Brillouin zone
       k-points in crystal coordinates                weights
   0:     0.12500000    0.12500000    0.00000000          4/16
   1:     0.12500000    0.37500000    0.00000000          4/16
   2:     0.37500000    0.12500000    0.00000000          4/16
   3:     0.37500000    0.37500000    0.00000000          4/16

Wave functions: Plane wave expansion
  Cutoff energy: 300.000 eV
  Number of coefficients (min, max): 127685, 127752
  Pulay-stress correction: 0.000000 eV/Ang^3 (de/decut=0.000000)
  Using Numpy's FFT
  ScaLapack parameters: grid=1x1, blocksize=None
  Wavefunction extrapolation:
    Improved wavefunction reuse through dual PAW basis 

Occupation numbers: Fermi-Dirac:
  width: 0.1000  # eV
 

Eigensolver
   Davidson(niter=2) 

Densities:
  Coarse grid: 90*63*125 grid
  Fine grid: 180*126*250 grid
  Total Charge: 0.000000 

Density mixing:
  Method: separate
  Backend: pulay
  Linear mixing parameter: 0.05
  old densities: 5
  Damping of long wavelength oscillations: 50 

Hamiltonian:
  XC and Coulomb potentials evaluated on a 180*126*250 grid
  Using the PBE Exchange-Correlation functional
  External potential:
    NoExternalPotential
 

XC parameters: PBE with 2 nearest neighbor stencil

Memory estimate:
  Process memory now: 6348.70 MiB
  Calculator: 4122.58 MiB
    Density: 329.72 MiB
      Arrays: 140.59 MiB
      Localized functions: 135.06 MiB
      Mixer: 54.07 MiB
    Hamiltonian: 94.68 MiB
      Arrays: 91.92 MiB
      XC: 0.00 MiB
      Poisson: 0.00 MiB
      vbar: 2.76 MiB
    Wavefunctions: 3698.18 MiB
      Arrays psit_nG: 2846.04 MiB
      Eigensolver: 741.60 MiB
      Projections: 21.14 MiB
      Projectors: 54.57 MiB
      PW-descriptor: 34.83 MiB

Total number of cores used: 1

Number of atoms: 73
Number of atomic orbitals: 365
Number of bands in calculation: 365
Number of valence electrons: 657
Bands to converge: occupied

... initialized

Initializing position-dependent things.

Density initialized from atomic densities
Creating initial wave functions:
  365 bands from LCAO basis set

           .------------------------------------------------------.  
          /|                                                      |  
         / |                                                      |  
        /  |                                                      |  
       /   |                                                      |  
      /    |                                                      |  
     /     |                                                      |  
    /      |                                                      |  
   /       |                                                      |  
  /        |                                                      |  
 *         |                                                      |  
 |         |                                                      |  
 |         |                                                      |  
 |         |                                                      |  
 |        K|               K                  K                   |  
 |         |     K                                                |  
 |         |                       K                  K           |  
 |    K    |            K                  K                      |  
 |        K|                         K                 K          |  
 |         | K    K             K                 K               |  
 | K       |         K    K                 K                  K  |  
 |         |                           K                          |  
 |         |   K            K     K            K    K             |  
 |       KK|           K    K            K    K            K      |  
 |         |                                                      |  
 |         |K    K            K    K            K    K            |  
 |    K    |            K                  K                      |  
 |         |       K                 KK                KK         |  
 |         | K                  K                 K               |  
 |      K  |              K                 K                     |  
 | K       |         K                 K                          |  
 |        K|   K             K   K             K    K             |  
 |  K      |           K                 K                        |  
 |         |                                                      |  
 |         |K                 K                  K                |  
 |         |                                                      |  
 K         |       K                  K                           |  
 |         |                                                      |  
 |         .------------------------------------------------------.  
 |        /                                                      /   
 |       /                                                      /    
 |      /                                                      /     
 |     /                                                      /      
 |    /                                                      /       
 |   /                                                      /        
 |  /                                                      /         
 | /                                                      /          
 |/                                                      /           
 *------------------------------------------------------*            

Atomic positions and initial magnetic moments

Positions:
   0 K      0.000000    0.000000   10.000000    ( 0.0000,  0.0000,  0.0000)
   1 K      3.698168    2.615000   10.000000    ( 0.0000,  0.0000,  0.0000)
   2 K      3.698168    0.000000   13.698168    ( 0.0000,  0.0000,  0.0000)
   3 K      0.000000    2.615000   13.698168    ( 0.0000,  0.0000,  0.0000)
   4 K     -0.028983    0.000000   17.346053    ( 0.0000,  0.0000,  0.0000)
   5 K      3.698168    2.835248   17.184393    ( 0.0000,  0.0000,  0.0000)
   6 K      3.698168    0.000000   20.215997    ( 0.0000,  0.0000,  0.0000)
   7 K      0.102635    2.531033   21.279365    ( 0.0000,  0.0000,  0.0000)
   8 K      0.000000    5.230000   10.000000    ( 0.0000,  0.0000,  0.0000)
   9 K      3.698168    7.845000   10.000000    ( 0.0000,  0.0000,  0.0000)
  10 K      3.698168    5.230000   13.698168    ( 0.0000,  0.0000,  0.0000)
  11 K      0.000000    7.845000   13.698168    ( 0.0000,  0.0000,  0.0000)
  12 K     -0.030147    5.221905   17.453813    ( 0.0000,  0.0000,  0.0000)
  13 K      3.698168    7.845000   17.451906    ( 0.0000,  0.0000,  0.0000)
  14 K      3.698168    5.148165   21.216706    ( 0.0000,  0.0000,  0.0000)
  15 K      0.020305    7.845000   21.119136    ( 0.0000,  0.0000,  0.0000)
  16 K      0.000000   10.460000   10.000000    ( 0.0000,  0.0000,  0.0000)
  17 K      3.698168   13.075000   10.000000    ( 0.0000,  0.0000,  0.0000)
  18 K      3.698168   10.460000   13.698168    ( 0.0000,  0.0000,  0.0000)
  19 K      0.000000   13.075000   13.698168    ( 0.0000,  0.0000,  0.0000)
  20 K     -0.030147   10.468095   17.453813    ( 0.0000,  0.0000,  0.0000)
  21 K      3.698168   12.854752   17.184393    ( 0.0000,  0.0000,  0.0000)
  22 K      3.698168   10.541835   21.216706    ( 0.0000,  0.0000,  0.0000)
  23 K      0.102635   13.158967   21.279365    ( 0.0000,  0.0000,  0.0000)
  24 K      7.396337    0.000000   10.000000    ( 0.0000,  0.0000,  0.0000)
  25 K     11.094505    2.615000   10.000000    ( 0.0000,  0.0000,  0.0000)
  26 K     11.094505    0.000000   13.698168    ( 0.0000,  0.0000,  0.0000)
  27 K      7.396337    2.615000   13.698168    ( 0.0000,  0.0000,  0.0000)
  28 K      7.425320    0.000000   17.346053    ( 0.0000,  0.0000,  0.0000)
  29 K     11.110086    2.619177   17.416373    ( 0.0000,  0.0000,  0.0000)
  30 K     11.075588    0.000000   21.120456    ( 0.0000,  0.0000,  0.0000)
  31 K      7.293702    2.531033   21.279365    ( 0.0000,  0.0000,  0.0000)
  32 K      7.396337    5.230000   10.000000    ( 0.0000,  0.0000,  0.0000)
  33 K     11.094505    7.845000   10.000000    ( 0.0000,  0.0000,  0.0000)
  34 K     11.094505    5.230000   13.698168    ( 0.0000,  0.0000,  0.0000)
  35 K      7.396337    7.845000   13.698168    ( 0.0000,  0.0000,  0.0000)
  36 K      7.426484    5.221905   17.453813    ( 0.0000,  0.0000,  0.0000)
  37 K     11.100021    7.845000   17.414062    ( 0.0000,  0.0000,  0.0000)
  38 K     11.076152    5.217811   21.111007    ( 0.0000,  0.0000,  0.0000)
  39 K      7.376032    7.845000   21.119136    ( 0.0000,  0.0000,  0.0000)
  40 K      7.396337   10.460000   10.000000    ( 0.0000,  0.0000,  0.0000)
  41 K     11.094505   13.075000   10.000000    ( 0.0000,  0.0000,  0.0000)
  42 K     11.094505   10.460000   13.698168    ( 0.0000,  0.0000,  0.0000)
  43 K      7.396337   13.075000   13.698168    ( 0.0000,  0.0000,  0.0000)
  44 K      7.426484   10.468095   17.453813    ( 0.0000,  0.0000,  0.0000)
  45 K     11.110086   13.070823   17.416373    ( 0.0000,  0.0000,  0.0000)
  46 K     11.076152   10.472189   21.111007    ( 0.0000,  0.0000,  0.0000)
  47 K      7.293702   13.158967   21.279365    ( 0.0000,  0.0000,  0.0000)
  48 K     14.792674    0.000000   10.000000    ( 0.0000,  0.0000,  0.0000)
  49 K     18.490842    2.615000   10.000000    ( 0.0000,  0.0000,  0.0000)
  50 K     18.490842    0.000000   13.698168    ( 0.0000,  0.0000,  0.0000)
  51 K     14.792674    2.615000   13.698168    ( 0.0000,  0.0000,  0.0000)
  52 K     14.792674    0.000000   17.413860    ( 0.0000,  0.0000,  0.0000)
  53 K     18.475261    2.619177   17.416373    ( 0.0000,  0.0000,  0.0000)
  54 K     18.509760    0.000000   21.120456    ( 0.0000,  0.0000,  0.0000)
  55 K     14.792674    2.614903   21.114404    ( 0.0000,  0.0000,  0.0000)
  56 K     14.792674    5.230000   10.000000    ( 0.0000,  0.0000,  0.0000)
  57 K     18.490842    7.845000   10.000000    ( 0.0000,  0.0000,  0.0000)
  58 K     18.490842    5.230000   13.698168    ( 0.0000,  0.0000,  0.0000)
  59 K     14.792674    7.845000   13.698168    ( 0.0000,  0.0000,  0.0000)
  60 K     14.792674    5.232163   17.412282    ( 0.0000,  0.0000,  0.0000)
  61 K     18.485327    7.845000   17.414062    ( 0.0000,  0.0000,  0.0000)
  62 K     18.509196    5.217811   21.111007    ( 0.0000,  0.0000,  0.0000)
  63 K     14.792674    7.845000   21.119302    ( 0.0000,  0.0000,  0.0000)
  64 K     14.792674   10.460000   10.000000    ( 0.0000,  0.0000,  0.0000)
  65 K     18.490842   13.075000   10.000000    ( 0.0000,  0.0000,  0.0000)
  66 K     18.490842   10.460000   13.698168    ( 0.0000,  0.0000,  0.0000)
  67 K     14.792674   13.075000   13.698168    ( 0.0000,  0.0000,  0.0000)
  68 K     14.792674   10.457837   17.412282    ( 0.0000,  0.0000,  0.0000)
  69 K     18.475261   13.070823   17.416373    ( 0.0000,  0.0000,  0.0000)
  70 K     18.509196   10.472189   21.111007    ( 0.0000,  0.0000,  0.0000)
  71 K     14.792674   13.075097   21.114404    ( 0.0000,  0.0000,  0.0000)
  72 K      3.698168    0.000000   24.243093    ( 0.0000,  0.0000,  0.0000)

Unit cell:
           periodic     x           y           z      points  spacing
  1. axis:    yes   22.189011    0.000000    0.000000    90     0.2465
  2. axis:    yes    0.000000   15.690000    0.000000    63     0.2490
  3. axis:    no     0.000000    0.000000   31.094505   125     0.2488

  Lengths:  22.189011  15.690000  31.094505
  Angles:   90.000000  90.000000  90.000000

Effective grid spacing dv^(1/3) = 0.2481

     iter     time        total  log10-change:
                         energy   eigst   dens
iter:   1 06:28:34   -79.746939
iter:   2 06:33:47   -77.706607   -1.83  -1.32
iter:   3 06:39:20   -65.317843   -0.89  -1.34
iter:   4 06:44:40   -63.355415   -2.69  -1.54
iter:   5 06:50:00   -63.165231   -2.88  -1.71
iter:   6 06:55:22   -63.575871   -3.10  -1.78
iter:   7 07:00:57   -63.330042   -3.28  -1.84
iter:   8 07:06:35   -63.134774   -3.01  -2.11
iter:   9 07:12:05   -63.127863c  -4.50  -2.73
iter:  10 07:17:29   -63.125476c  -4.69  -2.78
iter:  11 07:23:43   -63.125686c  -4.57  -2.87
iter:  12 07:29:23   -63.124992c  -5.35c -3.09
iter:  13 07:34:52   -63.124740c  -5.23  -3.15
iter:  14 07:40:13   -63.125032c  -5.73c -3.18
iter:  15 07:45:31   -63.125180c  -6.16c -3.31
iter:  16 07:50:54   -63.125119c  -6.63c -3.48
iter:  17 07:56:26   -63.125112c  -6.36c -3.56
iter:  18 08:01:57   -63.125138c  -6.79c -3.70
iter:  19 08:07:28   -63.125124c  -7.02c -3.91
iter:  20 08:12:53   -63.125088c  -7.10c -4.00
iter:  21 08:18:14   -63.125071c  -7.32c -4.11c

Converged after 21 iterations.

Dipole moment: (-18.989252, 0.000000, 0.394019) |e|*Ang

Energy contributions relative to reference atoms: (reference = -1195904.484944)

Kinetic:       -152.105313
Potential:     +179.653891
External:        +0.000000
XC:             -70.538068
Entropy (-ST):   -1.972396
Local:          -19.149383
SIC:             +0.000000
--------------------------
Free energy:    -64.111269
Extrapolated:   -63.125071

Showing only first 2 kpts
 Kpt  Band  Eigenvalues  Occupancy
  0   326     -0.71799    1.39119
  0   327     -0.67430    1.19232
  0   328     -0.60814    0.86478
  0   329     -0.57996    0.72991

  1   326     -0.72562    1.42301
  1   327     -0.65622    1.10393
  1   328     -0.64814    1.06386
  1   329     -0.63381    0.99229


Fermi level: -0.63535

No gap
No difference between direct/indirect transitions
Timing:                              incl.     excl.
-----------------------------------------------------------
Hamiltonian:                         4.595     0.039   0.0% |
 Atomic:                             1.382     0.004   0.0% |
  XC Correction:                     1.377     1.377   0.0% |
 Calculate atomic Hamiltonians:      2.254     2.254   0.0% |
 Communicate:                        0.000     0.000   0.0% |
 Initialize Hamiltonian:             0.004     0.004   0.0% |
 Poisson:                            0.108     0.108   0.0% |
 XC 3D grid:                         0.809     0.809   0.0% |
LCAO initialization:               940.384     0.017   0.0% |
 LCAO eigensolver:                   0.754     0.004   0.0% |
  Calculate projections:             0.084     0.084   0.0% |
  DenseAtomicCorrection:             0.150     0.150   0.0% |
  Distribute overlap matrix:         0.001     0.001   0.0% |
  Orbital Layouts:                   0.257     0.257   0.0% |
  Potential matrix:                  0.246     0.246   0.0% |
  Sum over cells:                    0.012     0.012   0.0% |
 LCAO to grid:                     938.988   938.988  12.0% |----|
 Set positions (LCAO WFS):           0.625     0.216   0.0% |
  Basic WFS set positions:           0.002     0.002   0.0% |
  Basis functions set positions:     0.000     0.000   0.0% |
  P tci:                             0.288     0.288   0.0% |
  ST tci:                            0.086     0.086   0.0% |
  mktci:                             0.033     0.033   0.0% |
PWDescriptor:                        0.346     0.346   0.0% |
SCF-cycle:                        6870.671     0.467   0.0% |
 Davidson:                        5848.287   942.942  12.0% |----|
  Apply H:                         713.104   696.360   8.9% |---|
   HMM T:                           16.744    16.744   0.2% |
  Subspace diag:                  1539.914     0.107   0.0% |
   calc_h_matrix:                 1250.107   189.453   2.4% ||
    Apply H:                      1060.654   688.478   8.8% |---|
     HMM T:                        372.176   372.176   4.7% |-|
   diagonalize:                      3.960     3.960   0.1% |
   rotate_psi:                     285.739   285.739   3.6% ||
  calc. matrices:                 2251.120   829.495  10.6% |---|
   Apply H:                       1421.625  1390.286  17.7% |------|
    HMM T:                          31.339    31.339   0.4% |
  diagonalize:                      62.502    62.502   0.8% |
  rotate_psi:                      338.705   338.705   4.3% |-|
 Density:                          869.818     0.001   0.0% |
  Atomic density matrices:           1.994     1.994   0.0% |
  Mix:                             310.274   310.274   4.0% |-|
  Multipole moments:                 0.090     0.090   0.0% |
  Pseudo density:                  557.459   557.189   7.1% |--|
   Symmetrize density:               0.270     0.270   0.0% |
 Hamiltonian:                      108.279     1.640   0.0% |
  Atomic:                           26.231     0.144   0.0% |
   XC Correction:                   26.087    26.087   0.3% |
  Calculate atomic Hamiltonians:    51.881    51.881   0.7% |
  Communicate:                       0.000     0.000   0.0% |
  Poisson:                           6.985     6.985   0.1% |
  XC 3D grid:                       21.540    21.540   0.3% |
 Orthonormalize:                    43.821     0.010   0.0% |
  calc_s_matrix:                     5.264     5.264   0.1% |
  inverse-cholesky:                  0.060     0.060   0.0% |
  projections:                      32.134    32.134   0.4% |
  rotate_psi_s:                      6.354     6.354   0.1% |
Set symmetry:                        0.001     0.001   0.0% |
Other:                              27.100    27.100   0.3% |
-----------------------------------------------------------
Total:                                      7843.097 100.0%

Memory usage: 6.20 GiB
Date: Wed Nov 26 08:18:15 2025
