
  ___ ___ ___ _ _ _  
 |   |   |_  | | | | 
 | | | | | . | | | | 
 |__ |  _|___|_____|  25.7.0
 |___|_|             

User:   tew@Mathuss-MacBook-Air-357.local
Date:   Wed Nov 26 03:55:37 2025
Arch:   arm64
Pid:    20322
CWD:    /Users/tew/Documents/Project/GitHub/chem-com
Python: 3.13.5
gpaw:   /Users/tew/Documents/Project/GitHub/chem-com/.venv/lib/python3.13/site-packages/gpaw
_gpaw:  /Users/tew/Documents/Project/GitHub/chem-com/.venv/lib/python3.13/site-packages/
        _gpaw.cpython-313-darwin.so
ase:    /Users/tew/Documents/Project/GitHub/chem-com/.venv/lib/python3.13/site-packages/ase (version 3.26.0)
numpy:  /Users/tew/Documents/Project/GitHub/chem-com/.venv/lib/python3.13/site-packages/numpy (version 2.3.5)
scipy:  /Users/tew/Documents/Project/GitHub/chem-com/.venv/lib/python3.13/site-packages/scipy (version 1.16.3)
libxc:  2.x.y
units:  Angstrom and eV
cores: 1
OpenMP: False
OMP_NUM_THREADS: 1

Input parameters:
  convergence: {density: 0.0001,
                eigenstates: 5e-06}
  kpts: [3 3 1]
  mode: {ecut: 300.0,
         name: pw}
  xc: PBE

System changes: positions, numbers, cell, pbc, initial_charges, initial_magmoms 

Initialize ...

species:
  K:
    name: Potassium
    id: 04190408da443a44668134082ce1c192
    Z: 19.0
    valence: 9
    core: 10
    charge: 0.0
    file: /Users/tew/Documents/Project/GitHub/chem-com/.venv/lib/python3.13/site-packages/gpaw_data/setups/K.PBE.gz
    compensation charges: {type: gauss,
                           rc: 0.35,
                           lmax: 2}
    cutoffs: {filter: 1.91,
              core: 1.27}
    projectors:
      #              energy  rcut
      - 3s(2.00)   -35.338   1.122
      - 4s(1.00)    -2.319   1.122
      - 3p(6.00)   -18.813   1.106
      -  p           8.398   1.106
      -  d           0.000   0.937
  
    # Using partial waves for K as LCAO basis

Reference energy: -1195904.484944  # eV

Spin-paired calculation

Convergence criteria:
 Maximum [total energy] change in last 3 cyles: 0.0005 eV / valence electron
 Maximum integral of absolute [dens]ity change: 0.0001 electrons / valence electron
 Maximum integral of absolute [eigenst]ate change: 5e-06 eV^2 / valence electron
 Maximum number of scf [iter]ations: 333
 (Square brackets indicate name in SCF output, whereas a 'c' in
 the SCF output indicates the quantity has converged.)

Symmetries present (total): 2

  ( 1  0  0)  ( 1  0  0)
  ( 0  1  0)  ( 0 -1  0)
  ( 0  0  1)  ( 0  0  1)

9 k-points: 3 x 3 x 1 Monkhorst-Pack grid
4 k-points in the irreducible part of the Brillouin zone
       k-points in crystal coordinates                weights
   0:     0.00000000    0.00000000    0.00000000          1/9
   1:     0.00000000    0.33333333    0.00000000          2/9
   2:     0.33333333    0.00000000    0.00000000          2/9
   3:     0.33333333    0.33333333    0.00000000          4/9

Wave functions: Plane wave expansion
  Cutoff energy: 300.000 eV
  Number of coefficients (min, max): 127655, 127837
  Pulay-stress correction: 0.000000 eV/Ang^3 (de/decut=0.000000)
  Using Numpy's FFT
  ScaLapack parameters: grid=1x1, blocksize=None
  Wavefunction extrapolation:
    Improved wavefunction reuse through dual PAW basis 

Occupation numbers: Fermi-Dirac:
  width: 0.1000  # eV
 

Eigensolver
   Davidson(niter=2) 

Densities:
  Coarse grid: 90*63*125 grid
  Fine grid: 180*126*250 grid
  Total Charge: 0.000000 

Density mixing:
  Method: separate
  Backend: pulay
  Linear mixing parameter: 0.05
  old densities: 5
  Damping of long wavelength oscillations: 50 

Hamiltonian:
  XC and Coulomb potentials evaluated on a 180*126*250 grid
  Using the PBE Exchange-Correlation functional
  External potential:
    NoExternalPotential
 

XC parameters: PBE with 2 nearest neighbor stencil

Memory estimate:
  Process memory now: 6348.70 MiB
  Calculator: 4124.97 MiB
    Density: 329.72 MiB
      Arrays: 140.59 MiB
      Localized functions: 135.06 MiB
      Mixer: 54.07 MiB
    Hamiltonian: 94.68 MiB
      Arrays: 91.92 MiB
      XC: 0.00 MiB
      Poisson: 0.00 MiB
      vbar: 2.76 MiB
    Wavefunctions: 3700.57 MiB
      Arrays psit_nG: 2847.93 MiB
      Eigensolver: 742.08 MiB
      Projections: 21.14 MiB
      Projectors: 54.58 MiB
      PW-descriptor: 34.84 MiB

Total number of cores used: 1

Number of atoms: 73
Number of atomic orbitals: 365
Number of bands in calculation: 365
Number of valence electrons: 657
Bands to converge: occupied

... initialized

Initializing position-dependent things.

Density initialized from atomic densities
Creating initial wave functions:
  365 bands from LCAO basis set

           .------------------------------------------------------.  
          /|                                                      |  
         / |                                                      |  
        /  |                                                      |  
       /   |                                                      |  
      /    |                                                      |  
     /     |                                                      |  
    /      |                                                      |  
   /       |                                                      |  
  /        |                                                      |  
 *         |                                                      |  
 |         |                                                      |  
 |         |                                                      |  
 |         |                                                      |  
 |        K|               K                  K                   |  
 |         |     K                                                |  
 |         |                       K                  K           |  
 |    K    |            K                  K                      |  
 |        K|                         K                 K          |  
 |         | K    K             K                 K               |  
 | K       |         K    K                 K                  K  |  
 |         |                           K                          |  
 |         |   K            K     K            K    K             |  
 |       KK|           K    K            K    K            K      |  
 |         |                                                      |  
 |         |K    K            K    K            K    K            |  
 |    K    |            K                  K                      |  
 |         |       K                 KK                KK         |  
 |         | K                  K                 K               |  
 |      K  |              K                 K                     |  
 | K       |         K                 K                          |  
 |        K|   K             K   K             K    K             |  
 |  K      |           K                 K                        |  
 |         |                                                      |  
 |         |K                 K                  K                |  
 |         |                                                      |  
 K         |       K                  K                           |  
 |         |                                                      |  
 |         .------------------------------------------------------.  
 |        /                                                      /   
 |       /                                                      /    
 |      /                                                      /     
 |     /                                                      /      
 |    /                                                      /       
 |   /                                                      /        
 |  /                                                      /         
 | /                                                      /          
 |/                                                      /           
 *------------------------------------------------------*            

Atomic positions and initial magnetic moments

Positions:
   0 K      0.000000    0.000000   10.000000    ( 0.0000,  0.0000,  0.0000)
   1 K      3.698168    2.615000   10.000000    ( 0.0000,  0.0000,  0.0000)
   2 K      3.698168    0.000000   13.698168    ( 0.0000,  0.0000,  0.0000)
   3 K      0.000000    2.615000   13.698168    ( 0.0000,  0.0000,  0.0000)
   4 K     -0.028983    0.000000   17.346053    ( 0.0000,  0.0000,  0.0000)
   5 K      3.698168    2.835248   17.184393    ( 0.0000,  0.0000,  0.0000)
   6 K      3.698168    0.000000   20.215997    ( 0.0000,  0.0000,  0.0000)
   7 K      0.102635    2.531033   21.279365    ( 0.0000,  0.0000,  0.0000)
   8 K      0.000000    5.230000   10.000000    ( 0.0000,  0.0000,  0.0000)
   9 K      3.698168    7.845000   10.000000    ( 0.0000,  0.0000,  0.0000)
  10 K      3.698168    5.230000   13.698168    ( 0.0000,  0.0000,  0.0000)
  11 K      0.000000    7.845000   13.698168    ( 0.0000,  0.0000,  0.0000)
  12 K     -0.030147    5.221905   17.453813    ( 0.0000,  0.0000,  0.0000)
  13 K      3.698168    7.845000   17.451906    ( 0.0000,  0.0000,  0.0000)
  14 K      3.698168    5.148165   21.216706    ( 0.0000,  0.0000,  0.0000)
  15 K      0.020305    7.845000   21.119136    ( 0.0000,  0.0000,  0.0000)
  16 K      0.000000   10.460000   10.000000    ( 0.0000,  0.0000,  0.0000)
  17 K      3.698168   13.075000   10.000000    ( 0.0000,  0.0000,  0.0000)
  18 K      3.698168   10.460000   13.698168    ( 0.0000,  0.0000,  0.0000)
  19 K      0.000000   13.075000   13.698168    ( 0.0000,  0.0000,  0.0000)
  20 K     -0.030147   10.468095   17.453813    ( 0.0000,  0.0000,  0.0000)
  21 K      3.698168   12.854752   17.184393    ( 0.0000,  0.0000,  0.0000)
  22 K      3.698168   10.541835   21.216706    ( 0.0000,  0.0000,  0.0000)
  23 K      0.102635   13.158967   21.279365    ( 0.0000,  0.0000,  0.0000)
  24 K      7.396337    0.000000   10.000000    ( 0.0000,  0.0000,  0.0000)
  25 K     11.094505    2.615000   10.000000    ( 0.0000,  0.0000,  0.0000)
  26 K     11.094505    0.000000   13.698168    ( 0.0000,  0.0000,  0.0000)
  27 K      7.396337    2.615000   13.698168    ( 0.0000,  0.0000,  0.0000)
  28 K      7.425320    0.000000   17.346053    ( 0.0000,  0.0000,  0.0000)
  29 K     11.110086    2.619177   17.416373    ( 0.0000,  0.0000,  0.0000)
  30 K     11.075588    0.000000   21.120456    ( 0.0000,  0.0000,  0.0000)
  31 K      7.293702    2.531033   21.279365    ( 0.0000,  0.0000,  0.0000)
  32 K      7.396337    5.230000   10.000000    ( 0.0000,  0.0000,  0.0000)
  33 K     11.094505    7.845000   10.000000    ( 0.0000,  0.0000,  0.0000)
  34 K     11.094505    5.230000   13.698168    ( 0.0000,  0.0000,  0.0000)
  35 K      7.396337    7.845000   13.698168    ( 0.0000,  0.0000,  0.0000)
  36 K      7.426484    5.221905   17.453813    ( 0.0000,  0.0000,  0.0000)
  37 K     11.100021    7.845000   17.414062    ( 0.0000,  0.0000,  0.0000)
  38 K     11.076152    5.217811   21.111007    ( 0.0000,  0.0000,  0.0000)
  39 K      7.376032    7.845000   21.119136    ( 0.0000,  0.0000,  0.0000)
  40 K      7.396337   10.460000   10.000000    ( 0.0000,  0.0000,  0.0000)
  41 K     11.094505   13.075000   10.000000    ( 0.0000,  0.0000,  0.0000)
  42 K     11.094505   10.460000   13.698168    ( 0.0000,  0.0000,  0.0000)
  43 K      7.396337   13.075000   13.698168    ( 0.0000,  0.0000,  0.0000)
  44 K      7.426484   10.468095   17.453813    ( 0.0000,  0.0000,  0.0000)
  45 K     11.110086   13.070823   17.416373    ( 0.0000,  0.0000,  0.0000)
  46 K     11.076152   10.472189   21.111007    ( 0.0000,  0.0000,  0.0000)
  47 K      7.293702   13.158967   21.279365    ( 0.0000,  0.0000,  0.0000)
  48 K     14.792674    0.000000   10.000000    ( 0.0000,  0.0000,  0.0000)
  49 K     18.490842    2.615000   10.000000    ( 0.0000,  0.0000,  0.0000)
  50 K     18.490842    0.000000   13.698168    ( 0.0000,  0.0000,  0.0000)
  51 K     14.792674    2.615000   13.698168    ( 0.0000,  0.0000,  0.0000)
  52 K     14.792674    0.000000   17.413860    ( 0.0000,  0.0000,  0.0000)
  53 K     18.475261    2.619177   17.416373    ( 0.0000,  0.0000,  0.0000)
  54 K     18.509760    0.000000   21.120456    ( 0.0000,  0.0000,  0.0000)
  55 K     14.792674    2.614903   21.114404    ( 0.0000,  0.0000,  0.0000)
  56 K     14.792674    5.230000   10.000000    ( 0.0000,  0.0000,  0.0000)
  57 K     18.490842    7.845000   10.000000    ( 0.0000,  0.0000,  0.0000)
  58 K     18.490842    5.230000   13.698168    ( 0.0000,  0.0000,  0.0000)
  59 K     14.792674    7.845000   13.698168    ( 0.0000,  0.0000,  0.0000)
  60 K     14.792674    5.232163   17.412282    ( 0.0000,  0.0000,  0.0000)
  61 K     18.485327    7.845000   17.414062    ( 0.0000,  0.0000,  0.0000)
  62 K     18.509196    5.217811   21.111007    ( 0.0000,  0.0000,  0.0000)
  63 K     14.792674    7.845000   21.119302    ( 0.0000,  0.0000,  0.0000)
  64 K     14.792674   10.460000   10.000000    ( 0.0000,  0.0000,  0.0000)
  65 K     18.490842   13.075000   10.000000    ( 0.0000,  0.0000,  0.0000)
  66 K     18.490842   10.460000   13.698168    ( 0.0000,  0.0000,  0.0000)
  67 K     14.792674   13.075000   13.698168    ( 0.0000,  0.0000,  0.0000)
  68 K     14.792674   10.457837   17.412282    ( 0.0000,  0.0000,  0.0000)
  69 K     18.475261   13.070823   17.416373    ( 0.0000,  0.0000,  0.0000)
  70 K     18.509196   10.472189   21.111007    ( 0.0000,  0.0000,  0.0000)
  71 K     14.792674   13.075097   21.114404    ( 0.0000,  0.0000,  0.0000)
  72 K      3.698168    0.000000   24.243093    ( 0.0000,  0.0000,  0.0000)

Unit cell:
           periodic     x           y           z      points  spacing
  1. axis:    yes   22.189011    0.000000    0.000000    90     0.2465
  2. axis:    yes    0.000000   15.690000    0.000000    63     0.2490
  3. axis:    no     0.000000    0.000000   31.094505   125     0.2488

  Lengths:  22.189011  15.690000  31.094505
  Angles:   90.000000  90.000000  90.000000

Effective grid spacing dv^(1/3) = 0.2481

     iter     time        total  log10-change:
                         energy   eigst   dens
iter:   1 04:15:49   -79.778616
iter:   2 04:21:21   -77.716542   -1.83  -1.32
iter:   3 04:26:34   -65.277453   -0.90  -1.34
iter:   4 04:31:41   -63.313270   -2.69  -1.54
iter:   5 04:36:46   -63.163933   -2.94  -1.71
iter:   6 04:41:55   -63.531038   -3.11  -1.78
iter:   7 04:47:10   -63.320909   -3.30  -1.84
iter:   8 04:52:06   -63.136616   -3.03  -2.11
iter:   9 04:57:20   -63.129691c  -4.50  -2.73
iter:  10 05:02:26   -63.127164c  -4.70  -2.79
iter:  11 05:07:44   -63.128102c  -4.57  -2.88
iter:  12 05:13:10   -63.127149c  -5.33c -3.09
iter:  13 05:18:36   -63.126700c  -5.29  -3.15
iter:  14 05:24:26   -63.127361c  -5.64c -3.19
iter:  15 05:29:38   -63.127565c  -6.28c -3.33
iter:  16 05:35:10   -63.127404c  -6.68c -3.47
iter:  17 05:40:38   -63.127191c  -6.43c -3.56
iter:  18 05:46:11   -63.127246c  -6.75c -3.69
iter:  19 05:51:32   -63.127224c  -6.80c -3.85
iter:  20 05:56:55   -63.127157c  -6.94c -3.90
iter:  21 06:02:15   -63.127183c  -7.22c -3.98
iter:  22 06:07:31   -63.127180c  -7.34c -4.18c

Converged after 22 iterations.

Dipole moment: (-18.983595, 0.000000, 0.392814) |e|*Ang

Energy contributions relative to reference atoms: (reference = -1195904.484944)

Kinetic:       -152.500538
Potential:     +179.961812
External:        +0.000000
XC:             -70.483394
Entropy (-ST):   -1.973883
Local:          -19.118118
SIC:             +0.000000
--------------------------
Free energy:    -64.114121
Extrapolated:   -63.127180

Showing only first 2 kpts
 Kpt  Band  Eigenvalues  Occupancy
  0   326     -0.76518    1.57185
  0   327     -0.75632    1.54129
  0   328     -0.67149    1.17986
  0   329     -0.62061    0.92754

  1   326     -0.70805    1.34929
  1   327     -0.62703    0.95955
  1   328     -0.61773    0.91324
  1   329     -0.61764    0.91281


Fermi level: -0.63513

No gap
No difference between direct/indirect transitions
Timing:                              incl.     excl.
-----------------------------------------------------------
Hamiltonian:                         4.343     0.063   0.0% |
 Atomic:                             1.214     0.004   0.0% |
  XC Correction:                     1.210     1.210   0.0% |
 Calculate atomic Hamiltonians:      2.103     2.103   0.0% |
 Communicate:                        0.000     0.000   0.0% |
 Initialize Hamiltonian:             0.004     0.004   0.0% |
 Poisson:                            0.086     0.086   0.0% |
 XC 3D grid:                         0.873     0.873   0.0% |
LCAO initialization:               901.026     0.017   0.0% |
 LCAO eigensolver:                   0.640     0.001   0.0% |
  Calculate projections:             0.049     0.049   0.0% |
  DenseAtomicCorrection:             0.147     0.147   0.0% |
  Distribute overlap matrix:         0.001     0.001   0.0% |
  Orbital Layouts:                   0.213     0.213   0.0% |
  Potential matrix:                  0.223     0.223   0.0% |
  Sum over cells:                    0.007     0.007   0.0% |
 LCAO to grid:                     899.336   899.336  11.4% |----|
 Set positions (LCAO WFS):           1.033     0.188   0.0% |
  Basic WFS set positions:           0.002     0.002   0.0% |
  Basis functions set positions:     0.000     0.000   0.0% |
  P tci:                             0.726     0.726   0.0% |
  ST tci:                            0.099     0.099   0.0% |
  mktci:                             0.019     0.019   0.0% |
PWDescriptor:                        0.220     0.220   0.0% |
SCF-cycle:                        6983.100     0.564   0.0% |
 Davidson:                        6000.965   992.621  12.5% |----|
  Apply H:                         720.679   700.484   8.9% |---|
   HMM T:                           20.195    20.195   0.3% |
  Subspace diag:                  1540.651     0.094   0.0% |
   calc_h_matrix:                 1240.032   202.127   2.6% ||
    Apply H:                      1037.905   699.377   8.8% |---|
     HMM T:                        338.528   338.528   4.3% |-|
   diagonalize:                      4.244     4.244   0.1% |
   rotate_psi:                     296.281   296.281   3.7% ||
  calc. matrices:                 2321.242   876.073  11.1% |---|
   Apply H:                       1445.169  1404.814  17.8% |------|
    HMM T:                          40.355    40.355   0.5% |
  diagonalize:                      63.638    63.638   0.8% |
  rotate_psi:                      362.133   362.133   4.6% |-|
 Density:                          831.124     0.001   0.0% |
  Atomic density matrices:           2.158     2.158   0.0% |
  Mix:                             297.950   297.950   3.8% |-|
  Multipole moments:                 0.102     0.102   0.0% |
  Pseudo density:                  530.914   530.588   6.7% |--|
   Symmetrize density:               0.326     0.326   0.0% |
 Hamiltonian:                      116.079     1.458   0.0% |
  Atomic:                           27.013     0.163   0.0% |
   XC Correction:                   26.850    26.850   0.3% |
  Calculate atomic Hamiltonians:    57.480    57.480   0.7% |
  Communicate:                       0.000     0.000   0.0% |
  Poisson:                           7.522     7.522   0.1% |
  XC 3D grid:                       22.606    22.606   0.3% |
 Orthonormalize:                    34.367     0.011   0.0% |
  calc_s_matrix:                     4.835     4.835   0.1% |
  inverse-cholesky:                  0.061     0.061   0.0% |
  projections:                      24.107    24.107   0.3% |
  rotate_psi_s:                      5.353     5.353   0.1% |
Set symmetry:                        0.001     0.001   0.0% |
Other:                              25.311    25.311   0.3% |
-----------------------------------------------------------
Total:                                      7914.000 100.0%

Memory usage: 6.20 GiB
Date: Wed Nov 26 06:07:31 2025
