
  ___ ___ ___ _ _ _  
 |   |   |_  | | | | 
 | | | | | . | | | | 
 |__ |  _|___|_____|  25.7.0
 |___|_|             

User:   tew@Mathuss-MacBook-Air-357.local
Date:   Tue Nov 25 08:29:21 2025
Arch:   arm64
Pid:    53368
CWD:    /Users/tew/Documents/Project/GitHub/chem-com
Python: 3.13.5
gpaw:   /Users/tew/Documents/Project/GitHub/chem-com/.venv/lib/python3.13/site-packages/gpaw
_gpaw:  /Users/tew/Documents/Project/GitHub/chem-com/.venv/lib/python3.13/site-packages/
        _gpaw.cpython-313-darwin.so
ase:    /Users/tew/Documents/Project/GitHub/chem-com/.venv/lib/python3.13/site-packages/ase (version 3.26.0)
numpy:  /Users/tew/Documents/Project/GitHub/chem-com/.venv/lib/python3.13/site-packages/numpy (version 2.3.5)
scipy:  /Users/tew/Documents/Project/GitHub/chem-com/.venv/lib/python3.13/site-packages/scipy (version 1.16.3)
libxc:  2.x.y
units:  Angstrom and eV
cores: 1
OpenMP: False
OMP_NUM_THREADS: 1

Input parameters:
  convergence: {density: 0.0001,
                eigenstates: 5e-06}
  kpts: [3 3 1]
  mode: {ecut: 600.0,
         name: pw}
  xc: PBE

System changes: positions, numbers, cell, pbc, initial_charges, initial_magmoms 

Initialize ...

species:
  Li:
    name: Lithium
    id: 830b4218f175192f93f959cfc0aad614
    Z: 3.0
    valence: 1
    core: 2
    charge: 0.0
    file: /Users/tew/Documents/Project/GitHub/chem-com/.venv/lib/python3.13/site-packages/gpaw_data/setups/Li.PBE.gz
    compensation charges: {type: gauss,
                           rc: 0.33,
                           lmax: 2}
    cutoffs: {filter: 1.91,
              core: 2.55}
    projectors:
      #              energy  rcut
      - 2s(1.00)    -2.874   1.058
      - 2p(0.00)    -1.090   1.058
      -  s          24.337   1.058
  
    # Using partial waves for Li as LCAO basis

Reference energy: -14803.510878  # eV

Spin-paired calculation

Convergence criteria:
 Maximum [total energy] change in last 3 cyles: 0.0005 eV / valence electron
 Maximum integral of absolute [dens]ity change: 0.0001 electrons / valence electron
 Maximum integral of absolute [eigenst]ate change: 5e-06 eV^2 / valence electron
 Maximum number of scf [iter]ations: 333
 (Square brackets indicate name in SCF output, whereas a 'c' in
 the SCF output indicates the quantity has converged.)

Symmetries present (total): 2

  ( 1  0  0)  ( 0  1  0)
  ( 0  1  0)  ( 1  0  0)
  ( 0  0  1)  ( 0  0  1)

9 k-points: 3 x 3 x 1 Monkhorst-Pack grid
4 k-points in the irreducible part of the Brillouin zone
       k-points in crystal coordinates                weights
   0:     0.00000000    0.00000000    0.00000000          1/9
   1:     0.33333333   -0.33333333    0.00000000          2/9
   2:     0.33333333    0.00000000    0.00000000          4/9
   3:     0.33333333    0.33333333    0.00000000          2/9

Wave functions: Plane wave expansion
  Cutoff energy: 600.000 eV
  Number of coefficients (min, max): 117810, 117930
  Pulay-stress correction: 0.000000 eV/Ang^3 (de/decut=0.000000)
  Using Numpy's FFT
  ScaLapack parameters: grid=1x1, blocksize=None
  Wavefunction extrapolation:
    Improved wavefunction reuse through dual PAW basis 

Occupation numbers: Fermi-Dirac:
  width: 0.1000  # eV
 

Eigensolver
   Davidson(niter=2) 

Densities:
  Coarse grid: 60*60*189 grid
  Fine grid: 120*120*378 grid
  Total Charge: 0.000000 

Density mixing:
  Method: separate
  Backend: pulay
  Linear mixing parameter: 0.05
  old densities: 5
  Damping of long wavelength oscillations: 50 

Hamiltonian:
  XC and Coulomb potentials evaluated on a 120*120*378 grid
  Using the PBE Exchange-Correlation functional
  External potential:
    NoExternalPotential
 

XC parameters: PBE with 2 nearest neighbor stencil

Memory estimate:
  Process memory now: 7411.14 MiB
  Calculator: 902.90 MiB
    Density: 311.48 MiB
      Arrays: 134.97 MiB
      Localized functions: 124.60 MiB
      Mixer: 51.91 MiB
    Hamiltonian: 90.79 MiB
      Arrays: 88.25 MiB
      XC: 0.00 MiB
      Poisson: 0.00 MiB
      vbar: 2.54 MiB
    Wavefunctions: 500.63 MiB
      Arrays psit_nG: 345.50 MiB
      Eigensolver: 95.72 MiB
      Projections: 1.07 MiB
      Projectors: 25.18 MiB
      PW-descriptor: 33.15 MiB

Total number of cores used: 1

Number of atoms: 73
Number of atomic orbitals: 292
Number of bands in calculation: 48
Number of valence electrons: 73
Bands to converge: occupied

... initialized

Initializing position-dependent things.

Density initialized from atomic densities
Creating initial wave functions:
  48 bands from LCAO basis set

       .-------------------------.  
      /|                         |  
     / |                         |  
    /  |                         |  
   /   |                         |  
  /    |                         |  
 *     |                         |  
 |     |                         |  
 |     |                         |  
 |     |                         |  
 |     |                         |  
 |     |                         |  
 |     |                         |  
 |     |   Li      Li       Li   |  
 |     |                         |  
 |    LiLi      LLi       Li     Li 
 |     |                         |  
 |   Li|     LLi      Li Li      |  
 |    Li  Li       Li      Li    |  
 |     |    Li  Li  Li       Li  Li 
 |     |Li       Li       Li     |  
 |   Li|      Li  Li  Li         |  
 |    Li  Li   Li  Li   Li  Li   |  
 |     |    Li      Li       Li  |  
 |     |Li       Li       Li     |  
 |   Li|      Li  Li  Li         |  
 |    Li  Li   Li  Li   Li  Li   |  
 | Li  |    Li      Li           |  
 |     |Li       Li       Li     |  
 Li    |  Li      Li             |  
 |   LLi      LLi     LiLi       |  
 |     |                         |  
 | Li  |    Li      Li           |  
 |     |                         |  
 Li    |  Li      Li             |  
 |     |                         |  
 |     |                         |  
 |     |                         |  
 |     |                         |  
 |     |                         |  
 |     .-------------------------.  
 |    /                         /   
 |   /                         /    
 |  /                         /     
 | /                         /      
 |/                         /       
 *-------------------------*        

Atomic positions and initial magnetic moments

Positions:
   0 Li     0.000000    0.000000   10.000000    ( 0.0000,  0.0000,  0.0000)
   1 Li     1.745000    1.745000   11.745000    ( 0.0000,  0.0000,  0.0000)
   2 Li     0.000000    0.000000   13.490000    ( 0.0000,  0.0000,  0.0000)
   3 Li     1.745000    1.745000   15.235000    ( 0.0000,  0.0000,  0.0000)
   4 Li    -0.027474   -0.027474   16.914363    ( 0.0000,  0.0000,  0.0000)
   5 Li     1.744998    1.744998   18.521758    ( 0.0000,  0.0000,  0.0000)
   6 Li    -0.125293   -0.125293   20.322972    ( 0.0000,  0.0000,  0.0000)
   7 Li     1.745009    1.745009   21.396961    ( 0.0000,  0.0000,  0.0000)
   8 Li     0.000000    3.490000   10.000000    ( 0.0000,  0.0000,  0.0000)
   9 Li     1.745000    5.235000   11.745000    ( 0.0000,  0.0000,  0.0000)
  10 Li     0.000000    3.490000   13.490000    ( 0.0000,  0.0000,  0.0000)
  11 Li     1.745000    5.235000   15.235000    ( 0.0000,  0.0000,  0.0000)
  12 Li    -0.027468    3.517462   16.914361    ( 0.0000,  0.0000,  0.0000)
  13 Li     1.744994    5.206698   18.642926    ( 0.0000,  0.0000,  0.0000)
  14 Li    -0.125295    3.615282   20.322964    ( 0.0000,  0.0000,  0.0000)
  15 Li     1.744991    4.842415   22.334383    ( 0.0000,  0.0000,  0.0000)
  16 Li     0.000000    6.980000   10.000000    ( 0.0000,  0.0000,  0.0000)
  17 Li     1.745000    8.725000   11.745000    ( 0.0000,  0.0000,  0.0000)
  18 Li     0.000000    6.980000   13.490000    ( 0.0000,  0.0000,  0.0000)
  19 Li     1.745000    8.725000   15.235000    ( 0.0000,  0.0000,  0.0000)
  20 Li     0.025936    6.980004   16.946447    ( 0.0000,  0.0000,  0.0000)
  21 Li     1.744993    8.753284   18.642935    ( 0.0000,  0.0000,  0.0000)
  22 Li     0.070614    6.980002   20.485685    ( 0.0000,  0.0000,  0.0000)
  23 Li     1.744990    9.117601   22.334388    ( 0.0000,  0.0000,  0.0000)
  24 Li     3.490000    0.000000   10.000000    ( 0.0000,  0.0000,  0.0000)
  25 Li     5.235000    1.745000   11.745000    ( 0.0000,  0.0000,  0.0000)
  26 Li     3.490000    0.000000   13.490000    ( 0.0000,  0.0000,  0.0000)
  27 Li     5.235000    1.745000   15.235000    ( 0.0000,  0.0000,  0.0000)
  28 Li     3.517462   -0.027468   16.914361    ( 0.0000,  0.0000,  0.0000)
  29 Li     5.206698    1.744994   18.642926    ( 0.0000,  0.0000,  0.0000)
  30 Li     3.615282   -0.125295   20.322964    ( 0.0000,  0.0000,  0.0000)
  31 Li     4.842415    1.744991   22.334383    ( 0.0000,  0.0000,  0.0000)
  32 Li     3.490000    3.490000   10.000000    ( 0.0000,  0.0000,  0.0000)
  33 Li     5.235000    5.235000   11.745000    ( 0.0000,  0.0000,  0.0000)
  34 Li     3.490000    3.490000   13.490000    ( 0.0000,  0.0000,  0.0000)
  35 Li     5.235000    5.235000   15.235000    ( 0.0000,  0.0000,  0.0000)
  36 Li     3.517458    3.517458   16.914364    ( 0.0000,  0.0000,  0.0000)
  37 Li     5.307269    5.307269   18.619679    ( 0.0000,  0.0000,  0.0000)
  38 Li     3.615285    3.615285   20.322959    ( 0.0000,  0.0000,  0.0000)
  39 Li     5.245324    5.245324   22.286398    ( 0.0000,  0.0000,  0.0000)
  40 Li     3.490000    6.980000   10.000000    ( 0.0000,  0.0000,  0.0000)
  41 Li     5.235000    8.725000   11.745000    ( 0.0000,  0.0000,  0.0000)
  42 Li     3.490000    6.980000   13.490000    ( 0.0000,  0.0000,  0.0000)
  43 Li     5.235000    8.725000   15.235000    ( 0.0000,  0.0000,  0.0000)
  44 Li     3.464070    6.980004   16.946464    ( 0.0000,  0.0000,  0.0000)
  45 Li     5.307286    8.652745   18.619676    ( 0.0000,  0.0000,  0.0000)
  46 Li     3.419382    6.980001   20.485685    ( 0.0000,  0.0000,  0.0000)
  47 Li     5.245323    8.714653   22.286400    ( 0.0000,  0.0000,  0.0000)
  48 Li     6.980000    0.000000   10.000000    ( 0.0000,  0.0000,  0.0000)
  49 Li     8.725000    1.745000   11.745000    ( 0.0000,  0.0000,  0.0000)
  50 Li     6.980000    0.000000   13.490000    ( 0.0000,  0.0000,  0.0000)
  51 Li     8.725000    1.745000   15.235000    ( 0.0000,  0.0000,  0.0000)
  52 Li     6.980004    0.025936   16.946447    ( 0.0000,  0.0000,  0.0000)
  53 Li     8.753284    1.744993   18.642935    ( 0.0000,  0.0000,  0.0000)
  54 Li     6.980002    0.070614   20.485685    ( 0.0000,  0.0000,  0.0000)
  55 Li     9.117601    1.744990   22.334388    ( 0.0000,  0.0000,  0.0000)
  56 Li     6.980000    3.490000   10.000000    ( 0.0000,  0.0000,  0.0000)
  57 Li     8.725000    5.235000   11.745000    ( 0.0000,  0.0000,  0.0000)
  58 Li     6.980000    3.490000   13.490000    ( 0.0000,  0.0000,  0.0000)
  59 Li     8.725000    5.235000   15.235000    ( 0.0000,  0.0000,  0.0000)
  60 Li     6.980004    3.464070   16.946464    ( 0.0000,  0.0000,  0.0000)
  61 Li     8.652745    5.307286   18.619676    ( 0.0000,  0.0000,  0.0000)
  62 Li     6.980001    3.419382   20.485685    ( 0.0000,  0.0000,  0.0000)
  63 Li     8.714653    5.245323   22.286400    ( 0.0000,  0.0000,  0.0000)
  64 Li     6.980000    6.980000   10.000000    ( 0.0000,  0.0000,  0.0000)
  65 Li     8.725000    8.725000   11.745000    ( 0.0000,  0.0000,  0.0000)
  66 Li     6.980000    6.980000   13.490000    ( 0.0000,  0.0000,  0.0000)
  67 Li     8.725000    8.725000   15.235000    ( 0.0000,  0.0000,  0.0000)
  68 Li     6.980006    6.980006   16.811156    ( 0.0000,  0.0000,  0.0000)
  69 Li     8.652727    8.652727   18.619672    ( 0.0000,  0.0000,  0.0000)
  70 Li     6.980001    6.980001   20.483290    ( 0.0000,  0.0000,  0.0000)
  71 Li     8.714659    8.714659   22.286404    ( 0.0000,  0.0000,  0.0000)
  72 Li     1.745001    1.745001   23.980812    ( 0.0000,  0.0000,  0.0000)

Unit cell:
           periodic     x           y           z      points  spacing
  1. axis:    yes   10.470000    0.000000    0.000000    60     0.1745
  2. axis:    yes    0.000000   10.470000    0.000000    60     0.1745
  3. axis:    no     0.000000    0.000000   32.215000   189     0.1704

  Lengths:  10.470000  10.470000  32.215000
  Angles:   90.000000  90.000000  90.000000

Effective grid spacing dv^(1/3) = 0.1731

     iter     time        total  log10-change:
                         energy   eigst   dens
iter:   1 08:30:50  -138.379416
iter:   2 08:31:09  -133.956699   -0.76  -0.65
iter:   3 08:31:27  -133.396498   -1.27  -0.84
iter:   4 08:31:46  -133.192934   -1.60  -0.89
iter:   5 08:32:06  -132.236825   -1.85  -0.93
iter:   6 08:32:26  -134.622475   -0.89  -1.10
iter:   7 08:32:45  -131.774799   -1.52  -0.78
iter:   8 08:33:04  -131.971028   -1.63  -1.28
iter:   9 08:33:24  -131.804497   -2.66  -1.33
iter:  10 08:33:42  -131.773099   -3.08  -1.50
iter:  11 08:34:01  -131.783003c  -2.86  -1.56
iter:  12 08:34:21  -131.765667c  -3.30  -1.65
iter:  13 08:34:40  -131.763886c  -3.77  -1.83
iter:  14 08:34:59  -131.760239c  -3.85  -1.98
iter:  15 08:35:18  -131.767092c  -3.64  -2.07
iter:  16 08:35:37  -131.756918c  -4.01  -2.08
iter:  17 08:35:56  -131.755942c  -4.67  -2.33
iter:  18 08:36:15  -131.756269c  -4.89  -2.53
iter:  19 08:36:34  -131.756656c  -5.03  -2.72
iter:  20 08:36:53  -131.756404c  -5.44c -2.84
iter:  21 08:37:13  -131.756325c  -5.57c -2.92
iter:  22 08:37:32  -131.756211c  -5.52c -3.04
iter:  23 08:37:51  -131.756252c  -5.70c -3.20
iter:  24 08:38:10  -131.756301c  -5.89c -3.27
iter:  25 08:38:29  -131.756344c  -6.02c -3.46
iter:  26 08:38:48  -131.756288c  -6.17c -3.64
iter:  27 08:39:07  -131.756228c  -5.96c -3.74
iter:  28 08:39:26  -131.756227c  -6.02c -3.79
iter:  29 08:39:45  -131.756220c  -6.15c -3.91
iter:  30 08:40:04  -131.756190c  -6.13c -4.00c

Converged after 30 iterations.

Dipole moment: (2.870116, 2.870116, 0.275947) |e|*Ang

Energy contributions relative to reference atoms: (reference = -14803.510878)

Kinetic:       +102.108757
Potential:      -92.148978
External:        +0.000000
XC:            -140.631870
Entropy (-ST):   -1.210392
Local:           -0.478903
SIC:             +0.000000
--------------------------
Free energy:   -132.361386
Extrapolated:  -131.756190

Showing only first 2 kpts
 Kpt  Band  Eigenvalues  Occupancy
  0    34     -1.39912    0.76913
  0    35     -1.39912    0.76912
  0    36     -1.36617    0.62021
  0    37     -1.31380    0.42052

  1    34     -1.51644    1.33772
  1    35     -1.50131    1.26906
  1    36     -1.49703    1.24910
  1    37     -1.43742    0.95641


Fermi level: -1.44614

No gap
No difference between direct/indirect transitions
Timing:                              incl.     excl.
-----------------------------------------------------------
Hamiltonian:                         2.326     0.006   0.0% |
 Atomic:                             0.394     0.001   0.0% |
  XC Correction:                     0.392     0.392   0.1% |
 Calculate atomic Hamiltonians:      1.401     1.401   0.2% |
 Communicate:                        0.000     0.000   0.0% |
 Initialize Hamiltonian:             0.001     0.001   0.0% |
 Poisson:                            0.007     0.007   0.0% |
 XC 3D grid:                         0.518     0.518   0.1% |
LCAO initialization:                67.893     0.003   0.0% |
 LCAO eigensolver:                   0.938     0.000   0.0% |
  Calculate projections:             0.004     0.004   0.0% |
  DenseAtomicCorrection:             0.057     0.057   0.0% |
  Distribute overlap matrix:         0.000     0.000   0.0% |
  Orbital Layouts:                   0.096     0.096   0.0% |
  Potential matrix:                  0.778     0.778   0.1% |
  Sum over cells:                    0.003     0.003   0.0% |
 LCAO to grid:                      66.374    66.374  10.3% |---|
 Set positions (LCAO WFS):           0.579     0.144   0.0% |
  Basic WFS set positions:           0.001     0.001   0.0% |
  Basis functions set positions:     0.000     0.000   0.0% |
  P tci:                             0.312     0.312   0.0% |
  ST tci:                            0.110     0.110   0.0% |
  mktci:                             0.011     0.011   0.0% |
PWDescriptor:                        0.048     0.048   0.0% |
SCF-cycle:                         568.017     0.017   0.0% |
 Davidson:                         426.328    75.893  11.8% |----|
  Apply H:                          76.094    75.392  11.7% |----|
   HMM T:                            0.702     0.702   0.1% |
  Subspace diag:                    86.178     0.008   0.0% |
   calc_h_matrix:                   80.048     4.411   0.7% |
    Apply H:                        75.637    74.950  11.6% |----|
     HMM T:                          0.687     0.687   0.1% |
   diagonalize:                      0.062     0.062   0.0% |
   rotate_psi:                       6.062     6.062   0.9% |
  calc. matrices:                  175.441    22.131   3.4% ||
   Apply H:                        153.311   151.903  23.6% |--------|
    HMM T:                           1.408     1.408   0.2% |
  diagonalize:                       0.445     0.445   0.1% |
  rotate_psi:                       12.276    12.276   1.9% ||
 Density:                           72.562     0.000   0.0% |
  Atomic density matrices:           0.073     0.073   0.0% |
  Mix:                              34.112    34.112   5.3% |-|
  Multipole moments:                 0.010     0.010   0.0% |
  Pseudo density:                   38.367    38.189   5.9% |-|
   Symmetrize density:               0.177     0.177   0.0% |
 Hamiltonian:                       68.365     0.177   0.0% |
  Atomic:                           11.817     0.042   0.0% |
   XC Correction:                   11.775    11.775   1.8% ||
  Calculate atomic Hamiltonians:    41.423    41.423   6.4% |--|
  Communicate:                       0.000     0.000   0.0% |
  Poisson:                           0.124     0.124   0.0% |
  XC 3D grid:                       14.824    14.824   2.3% ||
 Orthonormalize:                     0.745     0.000   0.0% |
  calc_s_matrix:                     0.083     0.083   0.0% |
  inverse-cholesky:                  0.001     0.001   0.0% |
  projections:                       0.551     0.551   0.1% |
  rotate_psi_s:                      0.110     0.110   0.0% |
Set symmetry:                        0.000     0.000   0.0% |
Other:                               5.187     5.187   0.8% |
-----------------------------------------------------------
Total:                                       643.472 100.0%

Memory usage: 7.24 GiB
Date: Tue Nov 25 08:40:04 2025
