
  ___ ___ ___ _ _ _  
 |   |   |_  | | | | 
 | | | | | . | | | | 
 |__ |  _|___|_____|  25.7.0
 |___|_|             

User:   tew@Mathuss-MacBook-Air-357.local
Date:   Mon Dec  1 23:12:05 2025
Arch:   arm64
Pid:    88530
CWD:    /Users/tew/Documents/Project/GitHub/chem-com
Python: 3.13.5
gpaw:   /Users/tew/Documents/Project/GitHub/chem-com/.venv/lib/python3.13/site-packages/gpaw
_gpaw:  /Users/tew/Documents/Project/GitHub/chem-com/.venv/lib/python3.13/site-packages/
        _gpaw.cpython-313-darwin.so
ase:    /Users/tew/Documents/Project/GitHub/chem-com/.venv/lib/python3.13/site-packages/ase (version 3.26.0)
numpy:  /Users/tew/Documents/Project/GitHub/chem-com/.venv/lib/python3.13/site-packages/numpy (version 2.2.6)
scipy:  /Users/tew/Documents/Project/GitHub/chem-com/.venv/lib/python3.13/site-packages/scipy (version 1.16.3)
libxc:  2.x.y
units:  Angstrom and eV
cores: 1
OpenMP: False
OMP_NUM_THREADS: 1

Input parameters:
  convergence: {density: 0.0001,
                eigenstates: 5e-06}
  kpts: [2 2 1]
  mode: {ecut: 400.0,
         name: pw}
  xc: PBE

System changes: positions, numbers, cell, pbc, initial_charges, initial_magmoms 

Initialize ...

species:
  Na:
    name: Sodium
    id: d7ecbc49209718622bcbe287195dca2a
    Z: 11.0
    valence: 7
    core: 4
    charge: 0.0
    file: /Users/tew/Documents/Project/GitHub/chem-com/.venv/lib/python3.13/site-packages/gpaw_data/setups/Na.PBE.gz
    compensation charges: {type: gauss,
                           rc: 0.37,
                           lmax: 2}
    cutoffs: {filter: 2.17,
              core: 2.59}
    projectors:
      #              energy  rcut
      - 3s(1.00)    -2.744   1.201
      - 2p(6.00)   -28.672   1.217
      - 3p(0.00)    -0.743   1.217
      -  s          24.468   1.201
      -  d           0.000   1.238
  
    # Using partial waves for Na as LCAO basis

Reference energy: -322558.566329  # eV

Spin-paired calculation

Convergence criteria:
 Maximum [total energy] change in last 3 cyles: 0.0005 eV / valence electron
 Maximum integral of absolute [dens]ity change: 0.0001 electrons / valence electron
 Maximum integral of absolute [eigenst]ate change: 5e-06 eV^2 / valence electron
 Maximum number of scf [iter]ations: 333
 (Square brackets indicate name in SCF output, whereas a 'c' in
 the SCF output indicates the quantity has converged.)

Symmetries present (total): 2

  ( 1  0  0)  ( 1  0  0)
  ( 0  1  0)  ( 0 -1  0)
  ( 0  0  1)  ( 0  0  1)

4 k-points: 2 x 2 x 1 Monkhorst-Pack grid
1 k-point in the irreducible part of the Brillouin zone
       k-points in crystal coordinates                weights
   0:     0.25000000    0.25000000    0.00000000          4/4

Wave functions: Plane wave expansion
  Cutoff energy: 400.000 eV
  Number of coefficients (min, max): 119867, 119867
  Pulay-stress correction: 0.000000 eV/Ang^3 (de/decut=0.000000)
  Using Numpy's FFT
  ScaLapack parameters: grid=1x1, blocksize=None
  Wavefunction extrapolation:
    Improved wavefunction reuse through dual PAW basis 

Occupation numbers: Fermi-Dirac:
  width: 0.1000  # eV
 

Eigensolver
   Davidson(niter=2) 

Densities:
  Coarse grid: 84*60*135 grid
  Fine grid: 168*120*270 grid
  Total Charge: 0.000000 

Density mixing:
  Method: separate
  Backend: pulay
  Linear mixing parameter: 0.05
  old densities: 5
  Damping of long wavelength oscillations: 50 

Hamiltonian:
  XC and Coulomb potentials evaluated on a 168*120*270 grid
  Using the PBE Exchange-Correlation functional
  External potential:
    NoExternalPotential
 

XC parameters: PBE with 2 nearest neighbor stencil

Memory estimate:
  Process memory now: 5830.31 MiB
  Calculator: 1611.11 MiB
    Density: 313.62 MiB
      Arrays: 134.97 MiB
      Localized functions: 126.74 MiB
      Mixer: 51.91 MiB
    Hamiltonian: 90.83 MiB
      Arrays: 88.25 MiB
      XC: 0.00 MiB
      Poisson: 0.00 MiB
      vbar: 2.59 MiB
    Wavefunctions: 1206.66 MiB
      Arrays psit_nG: 568.83 MiB
      Eigensolver: 592.74 MiB
      Projections: 4.50 MiB
      Projectors: 12.80 MiB
      PW-descriptor: 27.78 MiB

Total number of cores used: 1

Number of atoms: 73
Number of atomic orbitals: 511
Number of bands in calculation: 311
Number of valence electrons: 511
Bands to converge: occupied

... initialized

Initializing position-dependent things.

Density initialized from atomic densities
Creating initial wave functions:
  311 bands from LCAO basis set

         .-------------------------------------------.  
        /|                                           |  
       / |                                           |  
      /  |                                           |  
     /   |                                           |  
    /    |                                           |  
   /     |                                           |  
  /      |                                           |  
 *       |                                           |  
 |       |                                           |  
 |       |                                           |  
 |       |                                           |  
 |       |                                           |  
 |       |                                           |  
 |      Na            Na             Na              |  
 |       |    Na            Na             Na        |  
 |       |                                           |  
 |   Na Na          Na            Na                 |  
 |       | Na  Na         Na  Na        Na  Na       |  
 | Na    |       Na  Na         Na  Na            Na |  
 |       |  Na             Na             Na         |  
 |      Na        Na  NNa            NNa        Na   |  
 |       |                       Na                  |  
 |       |Na  Na        Na  Na         Na  Na        |  
 Na  Na  |      Na  Na        Na  Na                 |  
 |       | Na  Na         Na  Na        Na  Na       |  
 |    Na |           Na             Na               |  
 |Na     |       Na             Na                   |  
 |      Na  Na         Na  Na         Na  Na         |  
 |  Na   |        Na             Na                  |  
 |       |Na            Na             Na            |  
 |       |                                           |  
 Na      |      Na            Na                     |  
 |       |                                           |  
 |       |                                           |  
 |       |                                           |  
 |       .-------------------------------------------.  
 |      /                                           /   
 |     /                                           /    
 |    /                                           /     
 |   /                                           /      
 |  /                                           /       
 | /                                           /        
 |/                                           /         
 *-------------------------------------------*          

Atomic positions and initial magnetic moments

Positions:
   0 Na     0.000000    0.000000   10.000000    ( 0.0000,  0.0000,  0.0000)
   1 Na     2.991062    2.115000   10.000000    ( 0.0000,  0.0000,  0.0000)
   2 Na     2.991062    0.000000   12.991062    ( 0.0000,  0.0000,  0.0000)
   3 Na     5.982123    2.115000   12.991062    ( 0.0000,  0.0000,  0.0000)
   4 Na     0.049569    0.000000   15.904198    ( 0.0000,  0.0000,  0.0000)
   5 Na     2.991062    2.237839   15.744939    ( 0.0000,  0.0000,  0.0000)
   6 Na     2.991062   -0.000000   18.202392    ( 0.0000,  0.0000,  0.0000)
   7 Na     0.118110    1.979398   19.048576    ( 0.0000,  0.0000,  0.0000)
   8 Na     0.000000    4.230000   10.000000    ( 0.0000,  0.0000,  0.0000)
   9 Na     2.991062    6.345000   10.000000    ( 0.0000,  0.0000,  0.0000)
  10 Na     2.991062    4.230000   12.991062    ( 0.0000,  0.0000,  0.0000)
  11 Na     5.982123    6.345000   12.991062    ( 0.0000,  0.0000,  0.0000)
  12 Na    -0.043290    4.205887   16.004422    ( 0.0000,  0.0000,  0.0000)
  13 Na     2.991062    6.345000   16.000326    ( 0.0000,  0.0000,  0.0000)
  14 Na     2.991062    4.127084   18.907368    ( 0.0000,  0.0000,  0.0000)
  15 Na     0.038383    6.345000   18.865441    ( 0.0000,  0.0000,  0.0000)
  16 Na     0.000000    8.460000   10.000000    ( 0.0000,  0.0000,  0.0000)
  17 Na     2.991062   10.575000   10.000000    ( 0.0000,  0.0000,  0.0000)
  18 Na     2.991062    8.460000   12.991062    ( 0.0000,  0.0000,  0.0000)
  19 Na     5.982123   10.575000   12.991062    ( 0.0000,  0.0000,  0.0000)
  20 Na    -0.043290    8.484113   16.004422    ( 0.0000,  0.0000,  0.0000)
  21 Na     2.991062   10.452161   15.744939    ( 0.0000,  0.0000,  0.0000)
  22 Na     2.991062    8.562916   18.907368    ( 0.0000,  0.0000,  0.0000)
  23 Na     0.118110   10.710602   19.048576    ( 0.0000,  0.0000,  0.0000)
  24 Na     5.982123    0.000000   10.000000    ( 0.0000,  0.0000,  0.0000)
  25 Na     8.973185    2.115000   10.000000    ( 0.0000,  0.0000,  0.0000)
  26 Na     8.973185    0.000000   12.991062    ( 0.0000,  0.0000,  0.0000)
  27 Na    11.964247    2.115000   12.991062    ( 0.0000,  0.0000,  0.0000)
  28 Na     5.932555   -0.000000   15.904198    ( 0.0000,  0.0000,  0.0000)
  29 Na     8.978509    2.115823   15.944506    ( 0.0000,  0.0000,  0.0000)
  30 Na     8.947811   -0.000000   18.868449    ( 0.0000,  0.0000,  0.0000)
  31 Na     5.864013    1.979398   19.048576    ( 0.0000,  0.0000,  0.0000)
  32 Na     5.982123    4.230000   10.000000    ( 0.0000,  0.0000,  0.0000)
  33 Na     8.973185    6.345000   10.000000    ( 0.0000,  0.0000,  0.0000)
  34 Na     8.973185    4.230000   12.991062    ( 0.0000,  0.0000,  0.0000)
  35 Na    11.964247    6.345000   12.991062    ( 0.0000,  0.0000,  0.0000)
  36 Na     6.025413    4.205887   16.004422    ( 0.0000,  0.0000,  0.0000)
  37 Na     8.970023    6.345000   15.938311    ( 0.0000,  0.0000,  0.0000)
  38 Na     8.923808    4.197251   18.863979    ( 0.0000,  0.0000,  0.0000)
  39 Na     5.943741    6.345000   18.865441    ( 0.0000,  0.0000,  0.0000)
  40 Na     5.982123    8.460000   10.000000    ( 0.0000,  0.0000,  0.0000)
  41 Na     8.973185   10.575000   10.000000    ( 0.0000,  0.0000,  0.0000)
  42 Na     8.973185    8.460000   12.991062    ( 0.0000,  0.0000,  0.0000)
  43 Na    11.964247   10.575000   12.991062    ( 0.0000,  0.0000,  0.0000)
  44 Na     6.025413    8.484113   16.004422    ( 0.0000,  0.0000,  0.0000)
  45 Na     8.978509   10.574177   15.944506    ( 0.0000,  0.0000,  0.0000)
  46 Na     8.923808    8.492749   18.863979    ( 0.0000,  0.0000,  0.0000)
  47 Na     5.864013   10.710602   19.048576    ( 0.0000,  0.0000,  0.0000)
  48 Na    11.964247    0.000000   10.000000    ( 0.0000,  0.0000,  0.0000)
  49 Na    14.955308    2.115000   10.000000    ( 0.0000,  0.0000,  0.0000)
  50 Na    14.955308    0.000000   12.991062    ( 0.0000,  0.0000,  0.0000)
  51 Na    17.946370    2.115000   12.991062    ( 0.0000,  0.0000,  0.0000)
  52 Na    11.964247    0.000000   15.939598    ( 0.0000,  0.0000,  0.0000)
  53 Na    14.949985    2.115823   15.944506    ( 0.0000,  0.0000,  0.0000)
  54 Na    14.980683   -0.000000   18.868449    ( 0.0000,  0.0000,  0.0000)
  55 Na    11.964247    2.117116   18.865109    ( 0.0000,  0.0000,  0.0000)
  56 Na    11.964247    4.230000   10.000000    ( 0.0000,  0.0000,  0.0000)
  57 Na    14.955308    6.345000   10.000000    ( 0.0000,  0.0000,  0.0000)
  58 Na    14.955308    4.230000   12.991062    ( 0.0000,  0.0000,  0.0000)
  59 Na    17.946370    6.345000   12.991062    ( 0.0000,  0.0000,  0.0000)
  60 Na    11.964247    4.230437   15.938375    ( 0.0000,  0.0000,  0.0000)
  61 Na    14.958470    6.345000   15.938311    ( 0.0000,  0.0000,  0.0000)
  62 Na    15.004685    4.197251   18.863979    ( 0.0000,  0.0000,  0.0000)
  63 Na    11.964247    6.345000   18.871958    ( 0.0000,  0.0000,  0.0000)
  64 Na    11.964247    8.460000   10.000000    ( 0.0000,  0.0000,  0.0000)
  65 Na    14.955308   10.575000   10.000000    ( 0.0000,  0.0000,  0.0000)
  66 Na    14.955308    8.460000   12.991062    ( 0.0000,  0.0000,  0.0000)
  67 Na    17.946370   10.575000   12.991062    ( 0.0000,  0.0000,  0.0000)
  68 Na    11.964247    8.459563   15.938375    ( 0.0000,  0.0000,  0.0000)
  69 Na    14.949985   10.574177   15.944506    ( 0.0000,  0.0000,  0.0000)
  70 Na    15.004685    8.492749   18.863979    ( 0.0000,  0.0000,  0.0000)
  71 Na    11.964247   10.572884   18.865109    ( 0.0000,  0.0000,  0.0000)
  72 Na     2.991062    0.000000   21.339934    ( 0.0000,  0.0000,  0.0000)

Unit cell:
           periodic     x           y           z      points  spacing
  1. axis:    yes   17.946370    0.000000    0.000000    84     0.2136
  2. axis:    yes    0.000000   12.690000    0.000000    60     0.2115
  3. axis:    no     0.000000    0.000000   28.973185   135     0.2146

  Lengths:  17.946370  12.690000  28.973185
  Angles:   90.000000  90.000000  90.000000

Effective grid spacing dv^(1/3) = 0.2133

     iter     time        total  log10-change:
                         energy   eigst   dens
iter:   1 23:15:51   -91.036696
iter:   2 23:16:29   -90.591001   -1.33  -1.52
iter:   3 23:17:07   -90.247797   -1.92  -1.60
iter:   4 23:17:44   -90.010128   -2.25  -1.72
iter:   5 23:18:20   -90.145151c  -2.47  -1.95
iter:   6 23:19:04   -90.078421c  -2.98  -2.12
iter:   7 23:19:57   -90.047904c  -3.33  -2.32
iter:   8 23:20:46   -90.041349c  -3.77  -2.71
iter:   9 23:21:30   -90.030852c  -4.10  -2.85
iter:  10 23:22:15   -90.025321c  -4.43  -3.08
iter:  11 23:22:59   -90.022291c  -4.78  -3.20
iter:  12 23:23:43   -90.019205c  -4.85  -3.29
iter:  13 23:24:30   -90.018688c  -5.07  -3.49
iter:  14 23:25:16   -90.018662c  -5.61c -3.71
iter:  15 23:26:02   -90.018490c  -5.94c -3.78
iter:  16 23:26:52   -90.018461c  -6.16c -3.91
iter:  17 23:27:41   -90.018516c  -6.35c -4.01c

Converged after 17 iterations.

Dipole moment: (-7.904755, -0.000000, 0.283244) |e|*Ang

Energy contributions relative to reference atoms: (reference = -322558.566329)

Kinetic:        +85.157247
Potential:      -75.802665
External:        +0.000000
XC:             -96.391839
Entropy (-ST):   -1.344537
Local:           -2.308990
SIC:             +0.000000
--------------------------
Free energy:    -90.690784
Extrapolated:   -90.018516

 Band  Eigenvalues  Occupancy
    0    -27.18541    2.00000
    1    -27.16238    2.00000
    2    -27.16205    2.00000
    3    -26.68166    2.00000
    4    -26.67917    2.00000
    5    -26.67910    2.00000
    6    -26.67220    2.00000
    7    -26.67179    2.00000
    8    -26.67151    2.00000
    9    -26.67130    2.00000
   10    -26.67109    2.00000
   11    -26.67085    2.00000
   12    -26.67078    2.00000
   13    -26.67068    2.00000
   14    -26.67049    2.00000
   15    -26.67047    2.00000
   16    -26.67044    2.00000
   17    -26.67037    2.00000
   18    -26.66954    2.00000
   19    -26.66940    2.00000
   20    -26.66861    2.00000
   21    -26.66857    2.00000
   22    -26.66853    2.00000
   23    -26.66844    2.00000
   24    -26.66820    2.00000
   25    -26.66807    2.00000
   26    -26.66780    2.00000
   27    -26.66759    2.00000
   28    -26.66750    2.00000
   29    -26.66687    2.00000
   30    -26.66648    2.00000
   31    -26.66619    2.00000
   32    -26.66616    2.00000
   33    -26.66569    2.00000
   34    -26.66503    2.00000
   35    -26.66466    2.00000
   36    -26.66453    2.00000
   37    -26.66383    2.00000
   38    -26.66280    2.00000
   39    -26.66247    2.00000
   40    -26.66203    2.00000
   41    -26.66170    2.00000
   42    -26.66055    2.00000
   43    -26.66036    2.00000
   44    -26.65852    2.00000
   45    -26.65821    2.00000
   46    -26.65776    2.00000
   47    -26.65728    2.00000
   48    -26.65707    2.00000
   49    -26.65698    2.00000
   50    -26.65668    2.00000
   51    -26.65627    2.00000
   52    -26.65625    2.00000
   53    -26.65539    2.00000
   54    -26.65513    2.00000
   55    -26.65502    2.00000
   56    -26.65436    2.00000
   57    -26.65435    2.00000
   58    -26.65312    2.00000
   59    -26.65272    2.00000
   60    -26.65261    2.00000
   61    -26.65258    2.00000
   62    -26.65257    2.00000
   63    -26.65251    2.00000
   64    -26.65219    2.00000
   65    -26.65217    2.00000
   66    -26.65078    2.00000
   67    -26.65066    2.00000
   68    -26.65055    2.00000
   69    -26.65005    2.00000
   70    -26.64997    2.00000
   71    -26.64922    2.00000
   72    -26.64870    2.00000
   73    -26.64831    2.00000
   74    -26.64815    2.00000
   75    -26.64800    2.00000
   76    -26.64768    2.00000
   77    -26.64680    2.00000
   78    -26.64642    2.00000
   79    -26.64537    2.00000
   80    -26.64531    2.00000
   81    -26.64470    2.00000
   82    -26.64416    2.00000
   83    -26.64378    2.00000
   84    -26.64368    2.00000
   85    -26.64330    2.00000
   86    -26.64160    2.00000
   87    -26.63978    2.00000
   88    -26.63950    2.00000
   89    -26.63851    2.00000
   90    -26.63837    2.00000
   91    -26.63738    2.00000
   92    -26.63304    2.00000
   93    -26.63301    2.00000
   94    -26.63296    2.00000
   95    -26.63257    2.00000
   96    -26.63156    2.00000
   97    -26.63131    2.00000
   98    -26.63062    2.00000
   99    -26.63057    2.00000
  100    -26.62077    2.00000
  101    -26.62026    2.00000
  102    -26.61988    2.00000
  103    -26.61944    2.00000
  104    -26.61503    2.00000
  105    -26.61475    2.00000
  106    -26.61174    2.00000
  107    -26.61155    2.00000
  108    -26.45661    2.00000
  109    -26.45630    2.00000
  110    -26.45539    2.00000
  111    -26.45459    2.00000
  112    -26.44952    2.00000
  113    -26.44951    2.00000
  114    -26.44069    2.00000
  115    -26.43989    2.00000
  116    -26.43875    2.00000
  117    -26.43862    2.00000
  118    -26.43805    2.00000
  119    -26.43758    2.00000
  120    -26.43686    2.00000
  121    -26.43656    2.00000
  122    -26.43597    2.00000
  123    -26.43519    2.00000
  124    -26.43505    2.00000
  125    -26.43464    2.00000
  126    -26.43428    2.00000
  127    -26.43398    2.00000
  128    -26.43368    2.00000
  129    -26.43346    2.00000
  130    -26.43324    2.00000
  131    -26.43305    2.00000
  132    -26.43276    2.00000
  133    -26.43244    2.00000
  134    -26.43208    2.00000
  135    -26.43147    2.00000
  136    -26.43098    2.00000
  137    -26.43086    2.00000
  138    -26.42937    2.00000
  139    -26.42867    2.00000
  140    -26.42774    2.00000
  141    -26.42758    2.00000
  142    -26.42723    2.00000
  143    -26.42657    2.00000
  144    -26.42643    2.00000
  145    -26.42603    2.00000
  146    -26.42567    2.00000
  147    -26.42515    2.00000
  148    -26.42478    2.00000
  149    -26.42459    2.00000
  150    -26.42447    2.00000
  151    -26.42436    2.00000
  152    -26.42349    2.00000
  153    -26.42308    2.00000
  154    -26.42270    2.00000
  155    -26.42257    2.00000
  156    -26.42206    2.00000
  157    -26.42163    2.00000
  158    -26.42115    2.00000
  159    -26.42082    2.00000
  160    -26.42044    2.00000
  161    -26.42029    2.00000
  162    -26.42000    2.00000
  163    -26.41948    2.00000
  164    -26.41920    2.00000
  165    -26.41900    2.00000
  166    -26.41893    2.00000
  167    -26.41844    2.00000
  168    -26.41799    2.00000
  169    -26.41782    2.00000
  170    -26.41752    2.00000
  171    -26.41715    2.00000
  172    -26.41593    2.00000
  173    -26.41579    2.00000
  174    -26.41570    2.00000
  175    -26.41470    2.00000
  176    -26.41423    2.00000
  177    -26.41386    2.00000
  178    -26.41315    2.00000
  179    -26.41273    2.00000
  180    -26.41232    2.00000
  181    -26.41191    2.00000
  182    -26.41173    2.00000
  183    -26.41131    2.00000
  184    -26.41089    2.00000
  185    -26.41050    2.00000
  186    -26.41010    2.00000
  187    -26.40999    2.00000
  188    -26.40972    2.00000
  189    -26.40783    2.00000
  190    -26.40761    2.00000
  191    -26.40667    2.00000
  192    -26.40622    2.00000
  193    -26.40586    2.00000
  194    -26.40577    2.00000
  195    -26.40545    2.00000
  196    -26.40536    2.00000
  197    -26.40525    2.00000
  198    -26.40510    2.00000
  199    -26.40499    2.00000
  200    -26.40462    2.00000
  201    -26.40439    2.00000
  202    -26.40348    2.00000
  203    -26.40281    2.00000
  204    -26.40117    2.00000
  205    -26.39620    2.00000
  206    -26.39068    2.00000
  207    -26.39065    2.00000
  208    -26.38899    2.00000
  209    -26.38784    2.00000
  210    -26.38746    2.00000
  211    -26.38510    2.00000
  212    -26.38418    2.00000
  213    -26.38349    2.00000
  214    -26.38304    2.00000
  215    -26.38268    2.00000
  216    -26.38117    2.00000
  217    -26.38038    2.00000
  218    -26.37916    2.00000
  219     -4.46506    2.00000
  220     -4.22534    2.00000
  221     -3.98749    2.00000
  222     -3.91790    2.00000
  223     -3.75792    2.00000
  224     -3.73898    2.00000
  225     -3.67774    2.00000
  226     -3.44409    2.00000
  227     -3.27694    2.00000
  228     -3.22051    2.00000
  229     -3.19334    2.00000
  230     -3.04887    2.00000
  231     -3.03289    2.00000
  232     -3.01522    2.00000
  233     -2.80872    2.00000
  234     -2.77954    2.00000
  235     -2.73446    1.99999
  236     -2.57555    1.99996
  237     -2.54692    1.99995
  238     -2.50700    1.99992
  239     -2.49237    1.99991
  240     -2.34497    1.99962
  241     -2.32378    1.99953
  242     -2.28851    1.99933
  243     -2.26681    1.99916
  244     -2.11305    1.99611
  245     -2.04142    1.99206
  246     -1.92615    1.97507
  247     -1.81782    1.92811
  248     -1.80659    1.91990
  249     -1.66662    1.71068
  250     -1.66406    1.70427
  251     -1.65017    1.66754
  252     -1.64800    1.66148
  253     -1.59719    1.49406
  254     -1.57953    1.42442
  255     -1.56644    1.36931
  256     -1.43045    0.71572
  257     -1.39579    0.56535
  258     -1.36967    0.46565
  259     -1.19154    0.09726
  260     -1.15638    0.06943
  261     -1.13646    0.05725
  262     -1.13099    0.05428
  263     -1.11830    0.04797
  264     -1.09846    0.03951
  265     -0.99298    0.01394
  266     -0.98202    0.01250
  267     -0.93936    0.00818
  268     -0.90964    0.00608
  269     -0.83914    0.00301
  270     -0.76122    0.00138
  271     -0.70172    0.00076
  272     -0.66178    0.00051
  273     -0.58564    0.00024
  274     -0.55181    0.00017
  275     -0.54889    0.00017
  276     -0.47690    0.00008
  277     -0.44571    0.00006
  278     -0.41838    0.00004
  279     -0.36680    0.00003
  280     -0.34780    0.00002
  281     -0.33669    0.00002
  282     -0.26601    0.00001
  283     -0.25758    0.00001
  284     -0.24534    0.00001
  285     -0.11728    0.00000
  286     -0.09259    0.00000
  287     -0.07143    0.00000
  288     -0.04489    0.00000
  289      0.00260    0.00000
  290      0.12648    0.00000
  291      0.14840    0.00000
  292      0.17692    0.00000
  293      0.26985    0.00000
  294      0.28827    0.00000
  295      0.29673    0.00000
  296      0.33878    0.00000
  297      0.35813    0.00000
  298      0.39042    0.00000
  299      0.44202    0.00000
  300      0.46882    0.00000
  301      0.49873    0.00000
  302      0.52180    0.00000
  303      0.57876    0.00000
  304      0.60589    0.00000
  305      0.65452    0.00000
  306      0.71605    0.00000
  307      0.73260    0.00000
  308      0.81217    0.00000
  309      0.86195    0.00000
  310      0.88860    0.00000

Fermi level: -1.48891

Gap: 0.136 eV
Transition (v -> c):
  (s=0, k=0, n=255, [0.25, 0.25, 0.00]) -> (s=0, k=0, n=256, [0.25, 0.25, 0.00])
No difference between direct/indirect transitions
Timing:                              incl.     excl.
-----------------------------------------------------------
Hamiltonian:                         2.983     0.011   0.0% |
 Atomic:                             0.706     0.002   0.0% |
  XC Correction:                     0.704     0.704   0.1% |
 Calculate atomic Hamiltonians:      1.591     1.591   0.2% |
 Communicate:                        0.000     0.000   0.0% |
 Initialize Hamiltonian:             0.002     0.002   0.0% |
 Poisson:                            0.015     0.015   0.0% |
 XC 3D grid:                         0.658     0.658   0.1% |
LCAO initialization:               184.385     0.008   0.0% |
 LCAO eigensolver:                   0.919     0.000   0.0% |
  Calculate projections:             0.011     0.011   0.0% |
  DenseAtomicCorrection:             0.051     0.051   0.0% |
  Distribute overlap matrix:         0.000     0.000   0.0% |
  Orbital Layouts:                   0.096     0.096   0.0% |
  Potential matrix:                  0.756     0.756   0.1% |
  Sum over cells:                    0.005     0.005   0.0% |
 LCAO to grid:                     183.128   183.128  19.6% |-------|
 Set positions (LCAO WFS):           0.330     0.112   0.0% |
  Basic WFS set positions:           0.001     0.001   0.0% |
  Basis functions set positions:     0.000     0.000   0.0% |
  P tci:                             0.138     0.138   0.0% |
  ST tci:                            0.070     0.070   0.0% |
  mktci:                             0.009     0.009   0.0% |
PWDescriptor:                        0.024     0.024   0.0% |
SCF-cycle:                         741.746     0.028   0.0% |
 Davidson:                         617.820   115.275  12.3% |----|
  Apply H:                          88.219    87.066   9.3% |---|
   HMM T:                            1.153     1.153   0.1% |
  Subspace diag:                   120.702     0.002   0.0% |
   calc_h_matrix:                  101.595    14.970   1.6% ||
    Apply H:                        86.624    84.927   9.1% |---|
     HMM T:                          1.697     1.697   0.2% |
   diagonalize:                      0.466     0.466   0.0% |
   rotate_psi:                      18.640    18.640   2.0% ||
  calc. matrices:                  253.830    79.442   8.5% |--|
   Apply H:                        174.388   172.178  18.4% |------|
    HMM T:                           2.210     2.210   0.2% |
  diagonalize:                       6.017     6.017   0.6% |
  rotate_psi:                       33.777    33.777   3.6% ||
 Density:                           69.524     0.000   0.0% |
  Atomic density matrices:           0.075     0.075   0.0% |
  Mix:                              27.547    27.547   2.9% ||
  Multipole moments:                 0.008     0.008   0.0% |
  Pseudo density:                   41.893    41.770   4.5% |-|
   Symmetrize density:               0.123     0.123   0.0% |
 Hamiltonian:                       52.125     0.135   0.0% |
  Atomic:                           13.303     0.035   0.0% |
   XC Correction:                   13.269    13.269   1.4% ||
  Calculate atomic Hamiltonians:    28.296    28.296   3.0% ||
  Communicate:                       0.000     0.000   0.0% |
  Poisson:                           0.211     0.211   0.0% |
  XC 3D grid:                       10.180    10.180   1.1% |
 Orthonormalize:                     2.250     0.000   0.0% |
  calc_s_matrix:                     0.399     0.399   0.0% |
  inverse-cholesky:                  0.003     0.003   0.0% |
  projections:                       1.176     1.176   0.1% |
  rotate_psi_s:                      0.672     0.672   0.1% |
Set symmetry:                        0.000     0.000   0.0% |
Other:                               6.885     6.885   0.7% |
-----------------------------------------------------------
Total:                                       936.024 100.0%

Memory usage: 5.69 GiB
Date: Mon Dec  1 23:27:41 2025
