
  ___ ___ ___ _ _ _  
 |   |   |_  | | | | 
 | | | | | . | | | | 
 |__ |  _|___|_____|  25.7.0
 |___|_|             

User:   tew@Mathuss-MacBook-Air-357.local
Date:   Tue Nov 25 04:00:27 2025
Arch:   arm64
Pid:    53368
CWD:    /Users/tew/Documents/Project/GitHub/chem-com
Python: 3.13.5
gpaw:   /Users/tew/Documents/Project/GitHub/chem-com/.venv/lib/python3.13/site-packages/gpaw
_gpaw:  /Users/tew/Documents/Project/GitHub/chem-com/.venv/lib/python3.13/site-packages/
        _gpaw.cpython-313-darwin.so
ase:    /Users/tew/Documents/Project/GitHub/chem-com/.venv/lib/python3.13/site-packages/ase (version 3.26.0)
numpy:  /Users/tew/Documents/Project/GitHub/chem-com/.venv/lib/python3.13/site-packages/numpy (version 2.3.5)
scipy:  /Users/tew/Documents/Project/GitHub/chem-com/.venv/lib/python3.13/site-packages/scipy (version 1.16.3)
libxc:  2.x.y
units:  Angstrom and eV
cores: 1
OpenMP: False
OMP_NUM_THREADS: 1

Input parameters:
  convergence: {density: 0.0001,
                eigenstates: 5e-06}
  kpts: [4 4 1]
  mode: {ecut: 400.0,
         name: pw}
  xc: PBE

System changes: positions, numbers, cell, pbc, initial_charges, initial_magmoms 

Initialize ...

species:
  Li:
    name: Lithium
    id: 830b4218f175192f93f959cfc0aad614
    Z: 3.0
    valence: 1
    core: 2
    charge: 0.0
    file: /Users/tew/Documents/Project/GitHub/chem-com/.venv/lib/python3.13/site-packages/gpaw_data/setups/Li.PBE.gz
    compensation charges: {type: gauss,
                           rc: 0.33,
                           lmax: 2}
    cutoffs: {filter: 1.91,
              core: 2.55}
    projectors:
      #              energy  rcut
      - 2s(1.00)    -2.874   1.058
      - 2p(0.00)    -1.090   1.058
      -  s          24.337   1.058
  
    # Using partial waves for Li as LCAO basis

Reference energy: -14803.510878  # eV

Spin-paired calculation

Convergence criteria:
 Maximum [total energy] change in last 3 cyles: 0.0005 eV / valence electron
 Maximum integral of absolute [dens]ity change: 0.0001 electrons / valence electron
 Maximum integral of absolute [eigenst]ate change: 5e-06 eV^2 / valence electron
 Maximum number of scf [iter]ations: 333
 (Square brackets indicate name in SCF output, whereas a 'c' in
 the SCF output indicates the quantity has converged.)

Symmetries present (total): 2

  ( 1  0  0)  ( 1  0  0)
  ( 0  1  0)  ( 0 -1  0)
  ( 0  0  1)  ( 0  0  1)

16 k-points: 4 x 4 x 1 Monkhorst-Pack grid
4 k-points in the irreducible part of the Brillouin zone
       k-points in crystal coordinates                weights
   0:     0.12500000    0.12500000    0.00000000          4/16
   1:     0.12500000    0.37500000    0.00000000          4/16
   2:     0.37500000    0.12500000    0.00000000          4/16
   3:     0.37500000    0.37500000    0.00000000          4/16

Wave functions: Plane wave expansion
  Cutoff energy: 400.000 eV
  Number of coefficients (min, max): 77141, 77221
  Pulay-stress correction: 0.000000 eV/Ang^3 (de/decut=0.000000)
  Using Numpy's FFT
  ScaLapack parameters: grid=1x1, blocksize=None
  Wavefunction extrapolation:
    Improved wavefunction reuse through dual PAW basis 

Occupation numbers: Fermi-Dirac:
  width: 0.1000  # eV
 

Eigensolver
   Davidson(niter=2) 

Densities:
  Coarse grid: 70*49*128 grid
  Fine grid: 140*98*256 grid
  Total Charge: 0.000000 

Density mixing:
  Method: separate
  Backend: pulay
  Linear mixing parameter: 0.05
  old densities: 5
  Damping of long wavelength oscillations: 50 

Hamiltonian:
  XC and Coulomb potentials evaluated on a 140*98*256 grid
  Using the PBE Exchange-Correlation functional
  External potential:
    NoExternalPotential
 

XC parameters: PBE with 2 nearest neighbor stencil

Memory estimate:
  Process memory now: 3294.19 MiB
  Calculator: 588.85 MiB
    Density: 202.19 MiB
      Arrays: 87.09 MiB
      Localized functions: 81.61 MiB
      Mixer: 33.50 MiB
    Hamiltonian: 58.61 MiB
      Arrays: 56.94 MiB
      XC: 0.00 MiB
      Poisson: 0.00 MiB
      vbar: 1.67 MiB
    Wavefunctions: 328.05 MiB
      Arrays psit_nG: 226.23 MiB
      Eigensolver: 62.80 MiB
      Projections: 1.07 MiB
      Projectors: 16.48 MiB
      PW-descriptor: 21.46 MiB

Total number of cores used: 1

Number of atoms: 73
Number of atomic orbitals: 292
Number of bands in calculation: 48
Number of valence electrons: 73
Bands to converge: occupied

... initialized

Initializing position-dependent things.

Density initialized from atomic densities
Creating initial wave functions:
  48 bands from LCAO basis set

       .-----------------------------------.  
      /|                                   |  
     / |                                   |  
    /  |                                   |  
   /   |                                   |  
  /    |                                   |  
 *     |                                   |  
 |     |                                   |  
 |     |                                   |  
 |     |                                   |  
 |     |                                   |  
 |     |                                   |  
 |     |                                   |  
 |    Li          Li                       |  
 |     |   Li                 Li           |  
 |     |               Li          Li      |  
 |  Li Li       Li          Li             |  
 |Li   | Li LiLi Li  Li Li       Li Li   Li|  
 |     |  Li              Li Li            |  
 |     Li      Li  Li Li       Li Li   Li  |  
 |    Li          Li       Li Li           |  
 |     |Li Li       Li Li       Li Li      |  
 Li Li |     Li Li       Li Li             |  
 |     | Li Li       Li Li       Li Li     |  
 |Li Li|      Li Li       Li Li            |  
 |     Li Li       Li Li       Li Li       |  
 | Li  |       Li          Li              |  
 |     |Li          Li          Li         |  
 Li    |     Li          Li                |  
 |     |                                   |  
 |     |                                   |  
 |     |                                   |  
 |     |                                   |  
 |     |                                   |  
 |     .-----------------------------------.  
 |    /                                   /   
 |   /                                   /    
 |  /                                   /     
 | /                                   /      
 |/                                   /       
 *-----------------------------------*        

Atomic positions and initial magnetic moments

Positions:
   0 Li     0.000000    0.000000   10.000000    ( 0.0000,  0.0000,  0.0000)
   1 Li     2.467803    1.745000   10.000000    ( 0.0000,  0.0000,  0.0000)
   2 Li     2.467803    0.000000   12.467803    ( 0.0000,  0.0000,  0.0000)
   3 Li     0.000000    1.745000   12.467803    ( 0.0000,  0.0000,  0.0000)
   4 Li     0.027026    0.000000   14.859733    ( 0.0000,  0.0000,  0.0000)
   5 Li     2.467802    1.835552   14.730330    ( 0.0000,  0.0000,  0.0000)
   6 Li     2.467800    0.000000   16.720248    ( 0.0000,  0.0000,  0.0000)
   7 Li     0.130515    1.592995   17.431671    ( 0.0000,  0.0000,  0.0000)
   8 Li     0.000000    3.490000   10.000000    ( 0.0000,  0.0000,  0.0000)
   9 Li     2.467803    5.235000   10.000000    ( 0.0000,  0.0000,  0.0000)
  10 Li     2.467803    3.490000   12.467803    ( 0.0000,  0.0000,  0.0000)
  11 Li     0.000000    5.235000   12.467803    ( 0.0000,  0.0000,  0.0000)
  12 Li    -0.018360    3.427806   14.968943    ( 0.0000,  0.0000,  0.0000)
  13 Li     2.467801    5.235000   14.992803    ( 0.0000,  0.0000,  0.0000)
  14 Li     2.467800    3.345913   17.324220    ( 0.0000,  0.0000,  0.0000)
  15 Li     0.071353    5.235000   17.261301    ( 0.0000,  0.0000,  0.0000)
  16 Li     0.000000    6.980000   10.000000    ( 0.0000,  0.0000,  0.0000)
  17 Li     2.467803    8.725000   10.000000    ( 0.0000,  0.0000,  0.0000)
  18 Li     2.467803    6.980000   12.467803    ( 0.0000,  0.0000,  0.0000)
  19 Li     0.000000    8.725000   12.467803    ( 0.0000,  0.0000,  0.0000)
  20 Li    -0.018360    7.042194   14.968943    ( 0.0000,  0.0000,  0.0000)
  21 Li     2.467802    8.634448   14.730330    ( 0.0000,  0.0000,  0.0000)
  22 Li     2.467800    7.124087   17.324220    ( 0.0000,  0.0000,  0.0000)
  23 Li     0.130515    8.877005   17.431671    ( 0.0000,  0.0000,  0.0000)
  24 Li     4.935605    0.000000   10.000000    ( 0.0000,  0.0000,  0.0000)
  25 Li     7.403408    1.745000   10.000000    ( 0.0000,  0.0000,  0.0000)
  26 Li     7.403408    0.000000   12.467803    ( 0.0000,  0.0000,  0.0000)
  27 Li     4.935605    1.745000   12.467803    ( 0.0000,  0.0000,  0.0000)
  28 Li     4.908581   -0.000000   14.859733    ( 0.0000,  0.0000,  0.0000)
  29 Li     7.407952    1.733155   14.894146    ( 0.0000,  0.0000,  0.0000)
  30 Li     7.343077    0.000000   17.259968    ( 0.0000,  0.0000,  0.0000)
  31 Li     4.805087    1.592996   17.431670    ( 0.0000,  0.0000,  0.0000)
  32 Li     4.935605    3.490000   10.000000    ( 0.0000,  0.0000,  0.0000)
  33 Li     7.403408    5.235000   10.000000    ( 0.0000,  0.0000,  0.0000)
  34 Li     7.403408    3.490000   12.467803    ( 0.0000,  0.0000,  0.0000)
  35 Li     4.935605    5.235000   12.467803    ( 0.0000,  0.0000,  0.0000)
  36 Li     4.953965    3.427806   14.968943    ( 0.0000,  0.0000,  0.0000)
  37 Li     7.395513    5.235000   14.900339    ( 0.0000,  0.0000,  0.0000)
  38 Li     7.324769    3.445557   17.244331    ( 0.0000,  0.0000,  0.0000)
  39 Li     4.864248    5.235000   17.261301    ( 0.0000,  0.0000,  0.0000)
  40 Li     4.935605    6.980000   10.000000    ( 0.0000,  0.0000,  0.0000)
  41 Li     7.403408    8.725000   10.000000    ( 0.0000,  0.0000,  0.0000)
  42 Li     7.403408    6.980000   12.467803    ( 0.0000,  0.0000,  0.0000)
  43 Li     4.935605    8.725000   12.467803    ( 0.0000,  0.0000,  0.0000)
  44 Li     4.953965    7.042194   14.968943    ( 0.0000,  0.0000,  0.0000)
  45 Li     7.407952    8.736845   14.894146    ( 0.0000,  0.0000,  0.0000)
  46 Li     7.324769    7.024443   17.244331    ( 0.0000,  0.0000,  0.0000)
  47 Li     4.805087    8.877004   17.431670    ( 0.0000,  0.0000,  0.0000)
  48 Li     9.871211    0.000000   10.000000    ( 0.0000,  0.0000,  0.0000)
  49 Li    12.339013    1.745000   10.000000    ( 0.0000,  0.0000,  0.0000)
  50 Li    12.339013    0.000000   12.467803    ( 0.0000,  0.0000,  0.0000)
  51 Li     9.871211    1.745000   12.467803    ( 0.0000,  0.0000,  0.0000)
  52 Li     9.871212    0.000000   14.900257    ( 0.0000,  0.0000,  0.0000)
  53 Li    12.334473    1.733154   14.894145    ( 0.0000,  0.0000,  0.0000)
  54 Li    12.399345    0.000000   17.259968    ( 0.0000,  0.0000,  0.0000)
  55 Li     9.871212    1.735882   17.228811    ( 0.0000,  0.0000,  0.0000)
  56 Li     9.871211    3.490000   10.000000    ( 0.0000,  0.0000,  0.0000)
  57 Li    12.339013    5.235000   10.000000    ( 0.0000,  0.0000,  0.0000)
  58 Li    12.339013    3.490000   12.467803    ( 0.0000,  0.0000,  0.0000)
  59 Li     9.871211    5.235000   12.467803    ( 0.0000,  0.0000,  0.0000)
  60 Li     9.871212    3.485791   14.893574    ( 0.0000,  0.0000,  0.0000)
  61 Li    12.346911    5.235000   14.900337    ( 0.0000,  0.0000,  0.0000)
  62 Li    12.417655    3.445556   17.244332    ( 0.0000,  0.0000,  0.0000)
  63 Li     9.871212    5.235000   17.231554    ( 0.0000,  0.0000,  0.0000)
  64 Li     9.871211    6.980000   10.000000    ( 0.0000,  0.0000,  0.0000)
  65 Li    12.339013    8.725000   10.000000    ( 0.0000,  0.0000,  0.0000)
  66 Li    12.339013    6.980000   12.467803    ( 0.0000,  0.0000,  0.0000)
  67 Li     9.871211    8.725000   12.467803    ( 0.0000,  0.0000,  0.0000)
  68 Li     9.871212    6.984209   14.893574    ( 0.0000,  0.0000,  0.0000)
  69 Li    12.334473    8.736846   14.894145    ( 0.0000,  0.0000,  0.0000)
  70 Li    12.417655    7.024444   17.244332    ( 0.0000,  0.0000,  0.0000)
  71 Li     9.871212    8.734118   17.228811    ( 0.0000,  0.0000,  0.0000)
  72 Li     2.467805   -0.000000   19.322725    ( 0.0000,  0.0000,  0.0000)

Unit cell:
           periodic     x           y           z      points  spacing
  1. axis:    yes   14.806816    0.000000    0.000000    70     0.2115
  2. axis:    yes    0.000000   10.470000    0.000000    49     0.2137
  3. axis:    no     0.000000    0.000000   27.403408   128     0.2141

  Lengths:  14.806816  10.470000  27.403408
  Angles:   90.000000  90.000000  90.000000

Effective grid spacing dv^(1/3) = 0.2131

     iter     time        total  log10-change:
                         energy   eigst   dens
iter:   1 04:01:51  -136.264967
iter:   2 04:02:09  -132.033258   -0.87  -0.56
iter:   3 04:02:27  -130.240931   -0.95  -0.70
iter:   4 04:02:45  -131.378907   -1.24  -0.87
iter:   5 04:03:04  -130.314781   -1.93  -0.81
iter:   6 04:03:22  -129.191705   -1.39  -0.90
iter:   7 04:03:41  -129.126954   -2.35  -1.30
iter:   8 04:03:59  -129.164947   -2.38  -1.36
iter:   9 04:04:18  -129.120157   -2.59  -1.48
iter:  10 04:04:36  -129.106401   -2.96  -1.65
iter:  11 04:04:55  -129.105114c  -3.20  -1.89
iter:  12 04:05:14  -129.105177c  -3.23  -2.06
iter:  13 04:05:33  -129.104906c  -3.65  -2.21
iter:  14 04:05:51  -129.105083c  -3.87  -2.34
iter:  15 04:06:09  -129.105218c  -4.00  -2.42
iter:  16 04:06:27  -129.105322c  -4.16  -2.58
iter:  17 04:06:45  -129.105296c  -4.31  -2.67
iter:  18 04:07:03  -129.105221c  -4.53  -2.77
iter:  19 04:07:21  -129.105173c  -4.66  -2.96
iter:  20 04:07:39  -129.105172c  -4.88  -3.12
iter:  21 04:07:57  -129.105159c  -4.86  -3.17
iter:  22 04:08:15  -129.105106c  -4.82  -3.28
iter:  23 04:08:34  -129.105091c  -5.08  -3.35
iter:  24 04:08:52  -129.105062c  -5.27  -3.51
iter:  25 04:09:10  -129.105014c  -5.22  -3.59
iter:  26 04:09:28  -129.104982c  -5.45c -3.79
iter:  27 04:09:47  -129.104941c  -5.28  -3.85
iter:  28 04:10:06  -129.104904c  -5.38c -3.95
iter:  29 04:10:25  -129.104872c  -5.54c -4.05c

Converged after 29 iterations.

Dipole moment: (-6.708993, 0.000000, 0.342864) |e|*Ang

Energy contributions relative to reference atoms: (reference = -14803.510878)

Kinetic:       +112.713680
Potential:      -99.239107
External:        +0.000000
XC:            -141.501263
Entropy (-ST):   -1.201967
Local:           -0.477198
SIC:             +0.000000
--------------------------
Free energy:   -129.705855
Extrapolated:  -129.104872

Showing only first 2 kpts
 Kpt  Band  Eigenvalues  Occupancy
  0    34     -1.95500    1.54369
  0    35     -1.84678    1.06816
  0    36     -1.75966    0.64832
  0    37     -1.68177    0.36081

  1    34     -1.91529    1.38917
  1    35     -1.87931    1.22690
  1    36     -1.87623    1.21221
  1    37     -1.84889    1.07867


Fermi level: -1.83313

No gap
No difference between direct/indirect transitions
Timing:                              incl.     excl.
-----------------------------------------------------------
Hamiltonian:                         2.567     0.007   0.0% |
 Atomic:                             0.585     0.002   0.0% |
  XC Correction:                     0.583     0.583   0.1% |
 Calculate atomic Hamiltonians:      1.287     1.287   0.2% |
 Communicate:                        0.000     0.000   0.0% |
 Initialize Hamiltonian:             0.008     0.008   0.0% |
 Poisson:                            0.018     0.018   0.0% |
 XC 3D grid:                         0.662     0.662   0.1% |
LCAO initialization:                62.431     0.006   0.0% |
 LCAO eigensolver:                   0.819     0.000   0.0% |
  Calculate projections:             0.007     0.007   0.0% |
  DenseAtomicCorrection:             0.078     0.078   0.0% |
  Distribute overlap matrix:         0.001     0.001   0.0% |
  Orbital Layouts:                   0.130     0.130   0.0% |
  Potential matrix:                  0.597     0.597   0.1% |
  Sum over cells:                    0.006     0.006   0.0% |
 LCAO to grid:                      60.675    60.675  10.1% |---|
 Set positions (LCAO WFS):           0.931     0.231   0.0% |
  Basic WFS set positions:           0.002     0.002   0.0% |
  Basis functions set positions:     0.000     0.000   0.0% |
  P tci:                             0.527     0.527   0.1% |
  ST tci:                            0.155     0.155   0.0% |
  mktci:                             0.017     0.017   0.0% |
PWDescriptor:                        0.042     0.042   0.0% |
SCF-cycle:                         527.651     0.034   0.0% |
 Davidson:                         395.172    71.031  11.9% |----|
  Apply H:                          70.887    70.246  11.7% |----|
   HMM T:                            0.641     0.641   0.1% |
  Subspace diag:                    80.019     0.011   0.0% |
   calc_h_matrix:                   74.609     4.211   0.7% |
    Apply H:                        70.398    69.693  11.7% |----|
     HMM T:                          0.705     0.705   0.1% |
   diagonalize:                      0.077     0.077   0.0% |
   rotate_psi:                       5.322     5.322   0.9% |
  calc. matrices:                  161.927    20.121   3.4% ||
   Apply H:                        141.806   140.469  23.5% |--------|
    HMM T:                           1.337     1.337   0.2% |
  diagonalize:                       0.609     0.609   0.1% |
  rotate_psi:                       10.699    10.699   1.8% ||
 Density:                           65.935     0.000   0.0% |
  Atomic density matrices:           0.103     0.103   0.0% |
  Mix:                              31.275    31.275   5.2% |-|
  Multipole moments:                 0.014     0.014   0.0% |
  Pseudo density:                   34.541    34.386   5.8% |-|
   Symmetrize density:               0.155     0.155   0.0% |
 Hamiltonian:                       65.694     0.151   0.0% |
  Atomic:                           16.488     0.062   0.0% |
   XC Correction:                   16.426    16.426   2.7% ||
  Calculate atomic Hamiltonians:    35.998    35.998   6.0% |-|
  Communicate:                       0.000     0.000   0.0% |
  Poisson:                           0.127     0.127   0.0% |
  XC 3D grid:                       12.929    12.929   2.2% ||
 Orthonormalize:                     0.817     0.000   0.0% |
  calc_s_matrix:                     0.088     0.088   0.0% |
  inverse-cholesky:                  0.001     0.001   0.0% |
  projections:                       0.614     0.614   0.1% |
  rotate_psi_s:                      0.114     0.114   0.0% |
Set symmetry:                        0.001     0.001   0.0% |
Other:                               5.243     5.243   0.9% |
-----------------------------------------------------------
Total:                                       597.934 100.0%

Memory usage: 3.45 GiB
Date: Tue Nov 25 04:10:25 2025
