
  ___ ___ ___ _ _ _  
 |   |   |_  | | | | 
 | | | | | . | | | | 
 |__ |  _|___|_____|  25.7.0
 |___|_|             

User:   tew@Mathuss-MacBook-Air-357.local
Date:   Tue Nov 25 07:57:51 2025
Arch:   arm64
Pid:    53368
CWD:    /Users/tew/Documents/Project/GitHub/chem-com
Python: 3.13.5
gpaw:   /Users/tew/Documents/Project/GitHub/chem-com/.venv/lib/python3.13/site-packages/gpaw
_gpaw:  /Users/tew/Documents/Project/GitHub/chem-com/.venv/lib/python3.13/site-packages/
        _gpaw.cpython-313-darwin.so
ase:    /Users/tew/Documents/Project/GitHub/chem-com/.venv/lib/python3.13/site-packages/ase (version 3.26.0)
numpy:  /Users/tew/Documents/Project/GitHub/chem-com/.venv/lib/python3.13/site-packages/numpy (version 2.3.5)
scipy:  /Users/tew/Documents/Project/GitHub/chem-com/.venv/lib/python3.13/site-packages/scipy (version 1.16.3)
libxc:  2.x.y
units:  Angstrom and eV
cores: 1
OpenMP: False
OMP_NUM_THREADS: 1

Input parameters:
  convergence: {density: 0.0001,
                eigenstates: 5e-06}
  kpts: [2 2 1]
  mode: {ecut: 500.0,
         name: pw}
  xc: PBE

System changes: positions, numbers, cell, pbc, initial_charges, initial_magmoms 

Initialize ...

species:
  Li:
    name: Lithium
    id: 830b4218f175192f93f959cfc0aad614
    Z: 3.0
    valence: 1
    core: 2
    charge: 0.0
    file: /Users/tew/Documents/Project/GitHub/chem-com/.venv/lib/python3.13/site-packages/gpaw_data/setups/Li.PBE.gz
    compensation charges: {type: gauss,
                           rc: 0.33,
                           lmax: 2}
    cutoffs: {filter: 1.91,
              core: 2.55}
    projectors:
      #              energy  rcut
      - 2s(1.00)    -2.874   1.058
      - 2p(0.00)    -1.090   1.058
      -  s          24.337   1.058
  
    # Using partial waves for Li as LCAO basis

Reference energy: -14803.510878  # eV

Spin-paired calculation

Convergence criteria:
 Maximum [total energy] change in last 3 cyles: 0.0005 eV / valence electron
 Maximum integral of absolute [dens]ity change: 0.0001 electrons / valence electron
 Maximum integral of absolute [eigenst]ate change: 5e-06 eV^2 / valence electron
 Maximum number of scf [iter]ations: 333
 (Square brackets indicate name in SCF output, whereas a 'c' in
 the SCF output indicates the quantity has converged.)

Symmetries present (total): 2

  ( 1  0  0)  ( 0  1  0)
  ( 0  1  0)  ( 1  0  0)
  ( 0  0  1)  ( 0  0  1)

4 k-points: 2 x 2 x 1 Monkhorst-Pack grid
2 k-points in the irreducible part of the Brillouin zone
       k-points in crystal coordinates                weights
   0:     0.25000000   -0.25000000    0.00000000          2/4
   1:     0.25000000    0.25000000    0.00000000          2/4

Wave functions: Plane wave expansion
  Cutoff energy: 500.000 eV
  Number of coefficients (min, max): 89687, 89687
  Pulay-stress correction: 0.000000 eV/Ang^3 (de/decut=0.000000)
  Using Numpy's FFT
  ScaLapack parameters: grid=1x1, blocksize=None
  Wavefunction extrapolation:
    Improved wavefunction reuse through dual PAW basis 

Occupation numbers: Fermi-Dirac:
  width: 0.1000  # eV
 

Eigensolver
   Davidson(niter=2) 

Densities:
  Coarse grid: 54*54*168 grid
  Fine grid: 108*108*336 grid
  Total Charge: 0.000000 

Density mixing:
  Method: separate
  Backend: pulay
  Linear mixing parameter: 0.05
  old densities: 5
  Damping of long wavelength oscillations: 50 

Hamiltonian:
  XC and Coulomb potentials evaluated on a 108*108*336 grid
  Using the PBE Exchange-Correlation functional
  External potential:
    NoExternalPotential
 

XC parameters: PBE with 2 nearest neighbor stencil

Memory estimate:
  Process memory now: 7411.14 MiB
  Calculator: 530.62 MiB
    Density: 229.34 MiB
      Arrays: 97.18 MiB
      Localized functions: 94.79 MiB
      Mixer: 37.38 MiB
    Hamiltonian: 65.47 MiB
      Arrays: 63.54 MiB
      XC: 0.00 MiB
      Poisson: 0.00 MiB
      vbar: 1.93 MiB
    Wavefunctions: 235.80 MiB
      Arrays psit_nG: 131.38 MiB
      Eigensolver: 72.88 MiB
      Projections: 0.53 MiB
      Projectors: 9.58 MiB
      PW-descriptor: 21.42 MiB

Total number of cores used: 1

Number of atoms: 73
Number of atomic orbitals: 292
Number of bands in calculation: 48
Number of valence electrons: 73
Bands to converge: occupied

... initialized

Initializing position-dependent things.

Density initialized from atomic densities
Creating initial wave functions:
  48 bands from LCAO basis set

       .-------------------------.  
      /|                         |  
     / |                         |  
    /  |                         |  
   /   |                         |  
  /    |                         |  
 *     |                         |  
 |     |                         |  
 |     |                         |  
 |     |                         |  
 |     |                         |  
 |     |                         |  
 |     |                         |  
 |     |   Li      Li       Li   |  
 |     |                         |  
 |    LiLi      LLi       Li     Li 
 |     |                         |  
 |   Li|     LLi      Li Li      |  
 |    Li  Li       Li      Li    |  
 |     |    Li  Li  Li       Li  Li 
 |     |Li       Li       Li     |  
 |   Li|      Li  Li  Li         |  
 |    Li  Li   Li  Li   Li  Li   |  
 |     |    Li      Li       Li  |  
 |     |Li       Li       Li     |  
 |   Li|      Li  Li  Li         |  
 |    Li  Li   Li  Li   Li  Li   |  
 | Li  |    Li      Li           |  
 |     |Li       Li       Li     |  
 Li    |  Li      Li             |  
 |   LLi      LLi     LiLi       |  
 |     |                         |  
 | Li  |    Li      Li           |  
 |     |                         |  
 Li    |  Li      Li             |  
 |     |                         |  
 |     |                         |  
 |     |                         |  
 |     |                         |  
 |     |                         |  
 |     .-------------------------.  
 |    /                         /   
 |   /                         /    
 |  /                         /     
 | /                         /      
 |/                         /       
 *-------------------------*        

Atomic positions and initial magnetic moments

Positions:
   0 Li     0.000000    0.000000   10.000000    ( 0.0000,  0.0000,  0.0000)
   1 Li     1.745000    1.745000   11.745000    ( 0.0000,  0.0000,  0.0000)
   2 Li     0.000000    0.000000   13.490000    ( 0.0000,  0.0000,  0.0000)
   3 Li     1.745000    1.745000   15.235000    ( 0.0000,  0.0000,  0.0000)
   4 Li    -0.027474   -0.027474   16.914363    ( 0.0000,  0.0000,  0.0000)
   5 Li     1.744998    1.744998   18.521758    ( 0.0000,  0.0000,  0.0000)
   6 Li    -0.125293   -0.125293   20.322972    ( 0.0000,  0.0000,  0.0000)
   7 Li     1.745009    1.745009   21.396961    ( 0.0000,  0.0000,  0.0000)
   8 Li     0.000000    3.490000   10.000000    ( 0.0000,  0.0000,  0.0000)
   9 Li     1.745000    5.235000   11.745000    ( 0.0000,  0.0000,  0.0000)
  10 Li     0.000000    3.490000   13.490000    ( 0.0000,  0.0000,  0.0000)
  11 Li     1.745000    5.235000   15.235000    ( 0.0000,  0.0000,  0.0000)
  12 Li    -0.027468    3.517462   16.914361    ( 0.0000,  0.0000,  0.0000)
  13 Li     1.744994    5.206698   18.642926    ( 0.0000,  0.0000,  0.0000)
  14 Li    -0.125295    3.615282   20.322964    ( 0.0000,  0.0000,  0.0000)
  15 Li     1.744991    4.842415   22.334383    ( 0.0000,  0.0000,  0.0000)
  16 Li     0.000000    6.980000   10.000000    ( 0.0000,  0.0000,  0.0000)
  17 Li     1.745000    8.725000   11.745000    ( 0.0000,  0.0000,  0.0000)
  18 Li     0.000000    6.980000   13.490000    ( 0.0000,  0.0000,  0.0000)
  19 Li     1.745000    8.725000   15.235000    ( 0.0000,  0.0000,  0.0000)
  20 Li     0.025936    6.980004   16.946447    ( 0.0000,  0.0000,  0.0000)
  21 Li     1.744993    8.753284   18.642935    ( 0.0000,  0.0000,  0.0000)
  22 Li     0.070614    6.980002   20.485685    ( 0.0000,  0.0000,  0.0000)
  23 Li     1.744990    9.117601   22.334388    ( 0.0000,  0.0000,  0.0000)
  24 Li     3.490000    0.000000   10.000000    ( 0.0000,  0.0000,  0.0000)
  25 Li     5.235000    1.745000   11.745000    ( 0.0000,  0.0000,  0.0000)
  26 Li     3.490000    0.000000   13.490000    ( 0.0000,  0.0000,  0.0000)
  27 Li     5.235000    1.745000   15.235000    ( 0.0000,  0.0000,  0.0000)
  28 Li     3.517462   -0.027468   16.914361    ( 0.0000,  0.0000,  0.0000)
  29 Li     5.206698    1.744994   18.642926    ( 0.0000,  0.0000,  0.0000)
  30 Li     3.615282   -0.125295   20.322964    ( 0.0000,  0.0000,  0.0000)
  31 Li     4.842415    1.744991   22.334383    ( 0.0000,  0.0000,  0.0000)
  32 Li     3.490000    3.490000   10.000000    ( 0.0000,  0.0000,  0.0000)
  33 Li     5.235000    5.235000   11.745000    ( 0.0000,  0.0000,  0.0000)
  34 Li     3.490000    3.490000   13.490000    ( 0.0000,  0.0000,  0.0000)
  35 Li     5.235000    5.235000   15.235000    ( 0.0000,  0.0000,  0.0000)
  36 Li     3.517458    3.517458   16.914364    ( 0.0000,  0.0000,  0.0000)
  37 Li     5.307269    5.307269   18.619679    ( 0.0000,  0.0000,  0.0000)
  38 Li     3.615285    3.615285   20.322959    ( 0.0000,  0.0000,  0.0000)
  39 Li     5.245324    5.245324   22.286398    ( 0.0000,  0.0000,  0.0000)
  40 Li     3.490000    6.980000   10.000000    ( 0.0000,  0.0000,  0.0000)
  41 Li     5.235000    8.725000   11.745000    ( 0.0000,  0.0000,  0.0000)
  42 Li     3.490000    6.980000   13.490000    ( 0.0000,  0.0000,  0.0000)
  43 Li     5.235000    8.725000   15.235000    ( 0.0000,  0.0000,  0.0000)
  44 Li     3.464070    6.980004   16.946464    ( 0.0000,  0.0000,  0.0000)
  45 Li     5.307286    8.652745   18.619676    ( 0.0000,  0.0000,  0.0000)
  46 Li     3.419382    6.980001   20.485685    ( 0.0000,  0.0000,  0.0000)
  47 Li     5.245323    8.714653   22.286400    ( 0.0000,  0.0000,  0.0000)
  48 Li     6.980000    0.000000   10.000000    ( 0.0000,  0.0000,  0.0000)
  49 Li     8.725000    1.745000   11.745000    ( 0.0000,  0.0000,  0.0000)
  50 Li     6.980000    0.000000   13.490000    ( 0.0000,  0.0000,  0.0000)
  51 Li     8.725000    1.745000   15.235000    ( 0.0000,  0.0000,  0.0000)
  52 Li     6.980004    0.025936   16.946447    ( 0.0000,  0.0000,  0.0000)
  53 Li     8.753284    1.744993   18.642935    ( 0.0000,  0.0000,  0.0000)
  54 Li     6.980002    0.070614   20.485685    ( 0.0000,  0.0000,  0.0000)
  55 Li     9.117601    1.744990   22.334388    ( 0.0000,  0.0000,  0.0000)
  56 Li     6.980000    3.490000   10.000000    ( 0.0000,  0.0000,  0.0000)
  57 Li     8.725000    5.235000   11.745000    ( 0.0000,  0.0000,  0.0000)
  58 Li     6.980000    3.490000   13.490000    ( 0.0000,  0.0000,  0.0000)
  59 Li     8.725000    5.235000   15.235000    ( 0.0000,  0.0000,  0.0000)
  60 Li     6.980004    3.464070   16.946464    ( 0.0000,  0.0000,  0.0000)
  61 Li     8.652745    5.307286   18.619676    ( 0.0000,  0.0000,  0.0000)
  62 Li     6.980001    3.419382   20.485685    ( 0.0000,  0.0000,  0.0000)
  63 Li     8.714653    5.245323   22.286400    ( 0.0000,  0.0000,  0.0000)
  64 Li     6.980000    6.980000   10.000000    ( 0.0000,  0.0000,  0.0000)
  65 Li     8.725000    8.725000   11.745000    ( 0.0000,  0.0000,  0.0000)
  66 Li     6.980000    6.980000   13.490000    ( 0.0000,  0.0000,  0.0000)
  67 Li     8.725000    8.725000   15.235000    ( 0.0000,  0.0000,  0.0000)
  68 Li     6.980006    6.980006   16.811156    ( 0.0000,  0.0000,  0.0000)
  69 Li     8.652727    8.652727   18.619672    ( 0.0000,  0.0000,  0.0000)
  70 Li     6.980001    6.980001   20.483290    ( 0.0000,  0.0000,  0.0000)
  71 Li     8.714659    8.714659   22.286404    ( 0.0000,  0.0000,  0.0000)
  72 Li     1.745001    1.745001   23.980812    ( 0.0000,  0.0000,  0.0000)

Unit cell:
           periodic     x           y           z      points  spacing
  1. axis:    yes   10.470000    0.000000    0.000000    54     0.1939
  2. axis:    yes    0.000000   10.470000    0.000000    54     0.1939
  3. axis:    no     0.000000    0.000000   32.215000   168     0.1918

  Lengths:  10.470000  10.470000  32.215000
  Angles:   90.000000  90.000000  90.000000

Effective grid spacing dv^(1/3) = 0.1932

     iter     time        total  log10-change:
                         energy   eigst   dens
iter:   1 07:58:27  -137.686622
iter:   2 07:58:35  -133.293544   -0.73  -0.65
iter:   3 07:58:43  -132.877193   -1.22  -0.85
iter:   4 07:58:51  -132.930182   -1.54  -0.90
iter:   5 07:58:59  -131.951477   -1.74  -0.89
iter:   6 07:59:07  -132.304758   -1.33  -1.09
iter:   7 07:59:16  -131.591419   -2.17  -1.05
iter:   8 07:59:24  -131.661477   -1.55  -1.25
iter:   9 07:59:32  -131.441720   -2.58  -1.31
iter:  10 07:59:41  -131.442844   -2.73  -1.54
iter:  11 07:59:49  -131.442197c  -2.98  -1.59
iter:  12 07:59:57  -131.434665c  -3.17  -1.63
iter:  13 08:00:05  -131.466444c  -2.71  -1.71
iter:  14 08:00:14  -131.431806c  -3.47  -1.71
iter:  15 08:00:22  -131.428539   -3.27  -1.99
iter:  16 08:00:30  -131.427981c  -3.42  -2.26
iter:  17 08:00:39  -131.422013c  -3.81  -2.09
iter:  18 08:00:47  -131.423629c  -4.12  -2.58
iter:  19 08:00:55  -131.424428c  -4.39  -2.53
iter:  20 08:01:03  -131.421153c  -4.09  -2.45
iter:  21 08:01:11  -131.421399c  -5.00  -2.70
iter:  22 08:01:20  -131.422014c  -4.60  -2.86
iter:  23 08:01:28  -131.420888c  -4.66  -2.82
iter:  24 08:01:36  -131.420660c  -5.23  -2.92
iter:  25 08:01:44  -131.420791c  -5.03  -2.94
iter:  26 08:01:53  -131.421093c  -4.82  -3.08
iter:  27 08:02:01  -131.420471c  -5.19  -3.03
iter:  28 08:02:09  -131.420505c  -5.83c -3.39
iter:  29 08:02:18  -131.420668c  -5.51c -3.47
iter:  30 08:02:26  -131.420475c  -5.50c -3.47
iter:  31 08:02:34  -131.420412c  -5.44c -3.67
iter:  32 08:02:42  -131.420430c  -5.71c -3.66
iter:  33 08:02:51  -131.420468c  -5.57c -3.81
iter:  34 08:02:59  -131.420355c  -5.42c -3.78
iter:  35 08:03:07  -131.420343c  -6.13c -3.95
iter:  36 08:03:16  -131.420321c  -5.46c -4.03c

Converged after 36 iterations.

Dipole moment: (2.868162, 2.868162, 0.276977) |e|*Ang

Energy contributions relative to reference atoms: (reference = -14803.510878)

Kinetic:       +101.742569
Potential:      -91.581797
External:        +0.000000
XC:            -140.501744
Entropy (-ST):   -1.209863
Local:           -0.474418
SIC:             +0.000000
--------------------------
Free energy:   -132.025252
Extrapolated:  -131.420321

Showing all kpts
 Kpt  Band  Eigenvalues  Occupancy
  0    34     -1.58413    1.61189
  0    35     -1.56844    1.56048
  0    36     -1.38694    0.73267
  0    37     -1.34585    0.55419

  1    34     -1.58413    1.61189
  1    35     -1.56844    1.56048
  1    36     -1.38694    0.73267
  1    37     -1.34585    0.55419


Fermi level: -1.44174

Gap: 0.182 eV
Transition (v -> c):
  (s=0, k=0, n=35, [0.25, -0.25, 0.00]) -> (s=0, k=1, n=36, [0.25, 0.25, 0.00])
Direct/indirect transitions are different
Direct gap: 0.182 eV
Transition at: (s=0, k=0, n=35, [0.25, -0.25, 0.00])
Timing:                              incl.     excl.
-----------------------------------------------------------
Hamiltonian:                         1.840     0.004   0.0% |
 Atomic:                             0.398     0.001   0.0% |
  XC Correction:                     0.396     0.396   0.1% |
 Calculate atomic Hamiltonians:      1.079     1.079   0.3% |
 Communicate:                        0.000     0.000   0.0% |
 Initialize Hamiltonian:             0.001     0.001   0.0% |
 Poisson:                            0.003     0.003   0.0% |
 XC 3D grid:                         0.355     0.355   0.1% |
LCAO initialization:                25.103     0.003   0.0% |
 LCAO eigensolver:                   0.648     0.000   0.0% |
  Calculate projections:             0.002     0.002   0.0% |
  DenseAtomicCorrection:             0.029     0.029   0.0% |
  Distribute overlap matrix:         0.000     0.000   0.0% |
  Orbital Layouts:                   0.048     0.048   0.0% |
  Potential matrix:                  0.567     0.567   0.2% |
  Sum over cells:                    0.002     0.002   0.0% |
 LCAO to grid:                      24.056    24.056   7.4% |--|
 Set positions (LCAO WFS):           0.397     0.106   0.0% |
  Basic WFS set positions:           0.001     0.001   0.0% |
  Basis functions set positions:     0.000     0.000   0.0% |
  P tci:                             0.187     0.187   0.1% |
  ST tci:                            0.092     0.092   0.0% |
  mktci:                             0.011     0.011   0.0% |
PWDescriptor:                        0.017     0.017   0.0% |
SCF-cycle:                         294.013     0.016   0.0% |
 Davidson:                         181.601    34.703  10.7% |---|
  Apply H:                          31.477    31.157   9.6% |---|
   HMM T:                            0.320     0.320   0.1% |
  Subspace diag:                    35.719     0.004   0.0% |
   calc_h_matrix:                   32.768     2.107   0.6% |
    Apply H:                        30.661    30.344   9.4% |---|
     HMM T:                          0.318     0.318   0.1% |
   diagonalize:                      0.036     0.036   0.0% |
   rotate_psi:                       2.910     2.910   0.9% |
  calc. matrices:                   73.509    10.490   3.2% ||
   Apply H:                         63.019    62.376  19.2% |-------|
    HMM T:                           0.643     0.643   0.2% |
  diagonalize:                       0.270     0.270   0.1% |
  rotate_psi:                        5.923     5.923   1.8% ||
 Density:                           47.111     0.000   0.0% |
  Atomic density matrices:           0.064     0.064   0.0% |
  Mix:                              31.224    31.224   9.6% |---|
  Multipole moments:                 0.013     0.013   0.0% |
  Pseudo density:                   15.811    15.653   4.8% |-|
   Symmetrize density:               0.157     0.157   0.0% |
 Hamiltonian:                       65.001     0.157   0.0% |
  Atomic:                           14.041     0.050   0.0% |
   XC Correction:                   13.991    13.991   4.3% |-|
  Calculate atomic Hamiltonians:    37.884    37.884  11.7% |----|
  Communicate:                       0.000     0.000   0.0% |
  Poisson:                           0.112     0.112   0.0% |
  XC 3D grid:                       12.808    12.808   4.0% |-|
 Orthonormalize:                     0.283     0.000   0.0% |
  calc_s_matrix:                     0.032     0.032   0.0% |
  inverse-cholesky:                  0.000     0.000   0.0% |
  projections:                       0.208     0.208   0.1% |
  rotate_psi_s:                      0.044     0.044   0.0% |
Set symmetry:                        0.000     0.000   0.0% |
Other:                               3.184     3.184   1.0% |
-----------------------------------------------------------
Total:                                       324.157 100.0%

Memory usage: 7.24 GiB
Date: Tue Nov 25 08:03:16 2025
