
  ___ ___ ___ _ _ _  
 |   |   |_  | | | | 
 | | | | | . | | | | 
 |__ |  _|___|_____|  25.7.0
 |___|_|             

User:   tew@Mathuss-MacBook-Air-357.local
Date:   Wed Nov 26 09:19:59 2025
Arch:   arm64
Pid:    20322
CWD:    /Users/tew/Documents/Project/GitHub/chem-com
Python: 3.13.5
gpaw:   /Users/tew/Documents/Project/GitHub/chem-com/.venv/lib/python3.13/site-packages/gpaw
_gpaw:  /Users/tew/Documents/Project/GitHub/chem-com/.venv/lib/python3.13/site-packages/
        _gpaw.cpython-313-darwin.so
ase:    /Users/tew/Documents/Project/GitHub/chem-com/.venv/lib/python3.13/site-packages/ase (version 3.26.0)
numpy:  /Users/tew/Documents/Project/GitHub/chem-com/.venv/lib/python3.13/site-packages/numpy (version 2.3.5)
scipy:  /Users/tew/Documents/Project/GitHub/chem-com/.venv/lib/python3.13/site-packages/scipy (version 1.16.3)
libxc:  2.x.y
units:  Angstrom and eV
cores: 1
OpenMP: False
OMP_NUM_THREADS: 1

Input parameters:
  convergence: {density: 0.0001,
                eigenstates: 5e-06}
  kpts: [3 3 1]
  mode: {ecut: 400.0,
         name: pw}
  xc: PBE

System changes: positions, numbers, cell, pbc, initial_charges, initial_magmoms 

Initialize ...

species:
  K:
    name: Potassium
    id: 04190408da443a44668134082ce1c192
    Z: 19.0
    valence: 9
    core: 10
    charge: 0.0
    file: /Users/tew/Documents/Project/GitHub/chem-com/.venv/lib/python3.13/site-packages/gpaw_data/setups/K.PBE.gz
    compensation charges: {type: gauss,
                           rc: 0.35,
                           lmax: 2}
    cutoffs: {filter: 1.91,
              core: 1.27}
    projectors:
      #              energy  rcut
      - 3s(2.00)   -35.338   1.122
      - 4s(1.00)    -2.319   1.122
      - 3p(6.00)   -18.813   1.106
      -  p           8.398   1.106
      -  d           0.000   0.937
  
    # Using partial waves for K as LCAO basis

Reference energy: -1195904.484944  # eV

Spin-paired calculation

Convergence criteria:
 Maximum [total energy] change in last 3 cyles: 0.0005 eV / valence electron
 Maximum integral of absolute [dens]ity change: 0.0001 electrons / valence electron
 Maximum integral of absolute [eigenst]ate change: 5e-06 eV^2 / valence electron
 Maximum number of scf [iter]ations: 333
 (Square brackets indicate name in SCF output, whereas a 'c' in
 the SCF output indicates the quantity has converged.)

Symmetries present (total): 2

  ( 1  0  0)  ( 1  0  0)
  ( 0  1  0)  ( 0 -1  0)
  ( 0  0  1)  ( 0  0  1)

9 k-points: 3 x 3 x 1 Monkhorst-Pack grid
4 k-points in the irreducible part of the Brillouin zone
       k-points in crystal coordinates                weights
   0:     0.00000000    0.00000000    0.00000000          1/9
   1:     0.00000000    0.33333333    0.00000000          2/9
   2:     0.33333333    0.00000000    0.00000000          2/9
   3:     0.33333333    0.33333333    0.00000000          4/9

Wave functions: Plane wave expansion
  Cutoff energy: 400.000 eV
  Number of coefficients (min, max): 196603, 196779
  Pulay-stress correction: 0.000000 eV/Ang^3 (de/decut=0.000000)
  Using Numpy's FFT
  ScaLapack parameters: grid=1x1, blocksize=None
  Wavefunction extrapolation:
    Improved wavefunction reuse through dual PAW basis 

Occupation numbers: Fermi-Dirac:
  width: 0.1000  # eV
 

Eigensolver
   Davidson(niter=2) 

Densities:
  Coarse grid: 105*75*144 grid
  Fine grid: 210*150*288 grid
  Total Charge: 0.000000 

Density mixing:
  Method: separate
  Backend: pulay
  Linear mixing parameter: 0.05
  old densities: 5
  Damping of long wavelength oscillations: 50 

Hamiltonian:
  XC and Coulomb potentials evaluated on a 210*150*288 grid
  Using the PBE Exchange-Correlation functional
  External potential:
    NoExternalPotential
 

XC parameters: PBE with 2 nearest neighbor stencil

Memory estimate:
  Process memory now: 6348.70 MiB
  Calculator: 6346.28 MiB
    Density: 519.40 MiB
      Arrays: 224.95 MiB
      Localized functions: 207.94 MiB
      Mixer: 86.52 MiB
    Hamiltonian: 151.32 MiB
      Arrays: 147.08 MiB
      XC: 0.00 MiB
      Poisson: 0.00 MiB
      vbar: 4.24 MiB
    Wavefunctions: 5675.56 MiB
      Arrays psit_nG: 4383.81 MiB
      Eigensolver: 1131.31 MiB
      Projections: 21.14 MiB
      Projectors: 84.03 MiB
      PW-descriptor: 55.27 MiB

Total number of cores used: 1

Number of atoms: 73
Number of atomic orbitals: 365
Number of bands in calculation: 365
Number of valence electrons: 657
Bands to converge: occupied

... initialized

Initializing position-dependent things.

Density initialized from atomic densities
Creating initial wave functions:
  365 bands from LCAO basis set

           .------------------------------------------------------.  
          /|                                                      |  
         / |                                                      |  
        /  |                                                      |  
       /   |                                                      |  
      /    |                                                      |  
     /     |                                                      |  
    /      |                                                      |  
   /       |                                                      |  
  /        |                                                      |  
 *         |                                                      |  
 |         |                                                      |  
 |         |                                                      |  
 |         |                                                      |  
 |        K|               K                  K                   |  
 |         |     K                                                |  
 |         |                       K                  K           |  
 |    K    |            K                  K                      |  
 |        K|                         K                 K          |  
 |         | K    K             K                 K               |  
 | K       |         K    K                 K                  K  |  
 |         |                           K                          |  
 |         |   K            K     K            K    K             |  
 |       KK|           K    K            K    K            K      |  
 |         |                                                      |  
 |         |K    K            K    K            K    K            |  
 |    K    |            K                  K                      |  
 |         |       K                 KK                KK         |  
 |         | K                  K                 K               |  
 |      K  |              K                 K                     |  
 | K       |         K                 K                          |  
 |        K|   K             K   K             K    K             |  
 |  K      |           K                 K                        |  
 |         |                                                      |  
 |         |K                 K                  K                |  
 |         |                                                      |  
 K         |       K                  K                           |  
 |         |                                                      |  
 |         .------------------------------------------------------.  
 |        /                                                      /   
 |       /                                                      /    
 |      /                                                      /     
 |     /                                                      /      
 |    /                                                      /       
 |   /                                                      /        
 |  /                                                      /         
 | /                                                      /          
 |/                                                      /           
 *------------------------------------------------------*            

Atomic positions and initial magnetic moments

Positions:
   0 K      0.000000    0.000000   10.000000    ( 0.0000,  0.0000,  0.0000)
   1 K      3.698168    2.615000   10.000000    ( 0.0000,  0.0000,  0.0000)
   2 K      3.698168    0.000000   13.698168    ( 0.0000,  0.0000,  0.0000)
   3 K      0.000000    2.615000   13.698168    ( 0.0000,  0.0000,  0.0000)
   4 K     -0.028983    0.000000   17.346053    ( 0.0000,  0.0000,  0.0000)
   5 K      3.698168    2.835248   17.184393    ( 0.0000,  0.0000,  0.0000)
   6 K      3.698168    0.000000   20.215997    ( 0.0000,  0.0000,  0.0000)
   7 K      0.102635    2.531033   21.279365    ( 0.0000,  0.0000,  0.0000)
   8 K      0.000000    5.230000   10.000000    ( 0.0000,  0.0000,  0.0000)
   9 K      3.698168    7.845000   10.000000    ( 0.0000,  0.0000,  0.0000)
  10 K      3.698168    5.230000   13.698168    ( 0.0000,  0.0000,  0.0000)
  11 K      0.000000    7.845000   13.698168    ( 0.0000,  0.0000,  0.0000)
  12 K     -0.030147    5.221905   17.453813    ( 0.0000,  0.0000,  0.0000)
  13 K      3.698168    7.845000   17.451906    ( 0.0000,  0.0000,  0.0000)
  14 K      3.698168    5.148165   21.216706    ( 0.0000,  0.0000,  0.0000)
  15 K      0.020305    7.845000   21.119136    ( 0.0000,  0.0000,  0.0000)
  16 K      0.000000   10.460000   10.000000    ( 0.0000,  0.0000,  0.0000)
  17 K      3.698168   13.075000   10.000000    ( 0.0000,  0.0000,  0.0000)
  18 K      3.698168   10.460000   13.698168    ( 0.0000,  0.0000,  0.0000)
  19 K      0.000000   13.075000   13.698168    ( 0.0000,  0.0000,  0.0000)
  20 K     -0.030147   10.468095   17.453813    ( 0.0000,  0.0000,  0.0000)
  21 K      3.698168   12.854752   17.184393    ( 0.0000,  0.0000,  0.0000)
  22 K      3.698168   10.541835   21.216706    ( 0.0000,  0.0000,  0.0000)
  23 K      0.102635   13.158967   21.279365    ( 0.0000,  0.0000,  0.0000)
  24 K      7.396337    0.000000   10.000000    ( 0.0000,  0.0000,  0.0000)
  25 K     11.094505    2.615000   10.000000    ( 0.0000,  0.0000,  0.0000)
  26 K     11.094505    0.000000   13.698168    ( 0.0000,  0.0000,  0.0000)
  27 K      7.396337    2.615000   13.698168    ( 0.0000,  0.0000,  0.0000)
  28 K      7.425320    0.000000   17.346053    ( 0.0000,  0.0000,  0.0000)
  29 K     11.110086    2.619177   17.416373    ( 0.0000,  0.0000,  0.0000)
  30 K     11.075588    0.000000   21.120456    ( 0.0000,  0.0000,  0.0000)
  31 K      7.293702    2.531033   21.279365    ( 0.0000,  0.0000,  0.0000)
  32 K      7.396337    5.230000   10.000000    ( 0.0000,  0.0000,  0.0000)
  33 K     11.094505    7.845000   10.000000    ( 0.0000,  0.0000,  0.0000)
  34 K     11.094505    5.230000   13.698168    ( 0.0000,  0.0000,  0.0000)
  35 K      7.396337    7.845000   13.698168    ( 0.0000,  0.0000,  0.0000)
  36 K      7.426484    5.221905   17.453813    ( 0.0000,  0.0000,  0.0000)
  37 K     11.100021    7.845000   17.414062    ( 0.0000,  0.0000,  0.0000)
  38 K     11.076152    5.217811   21.111007    ( 0.0000,  0.0000,  0.0000)
  39 K      7.376032    7.845000   21.119136    ( 0.0000,  0.0000,  0.0000)
  40 K      7.396337   10.460000   10.000000    ( 0.0000,  0.0000,  0.0000)
  41 K     11.094505   13.075000   10.000000    ( 0.0000,  0.0000,  0.0000)
  42 K     11.094505   10.460000   13.698168    ( 0.0000,  0.0000,  0.0000)
  43 K      7.396337   13.075000   13.698168    ( 0.0000,  0.0000,  0.0000)
  44 K      7.426484   10.468095   17.453813    ( 0.0000,  0.0000,  0.0000)
  45 K     11.110086   13.070823   17.416373    ( 0.0000,  0.0000,  0.0000)
  46 K     11.076152   10.472189   21.111007    ( 0.0000,  0.0000,  0.0000)
  47 K      7.293702   13.158967   21.279365    ( 0.0000,  0.0000,  0.0000)
  48 K     14.792674    0.000000   10.000000    ( 0.0000,  0.0000,  0.0000)
  49 K     18.490842    2.615000   10.000000    ( 0.0000,  0.0000,  0.0000)
  50 K     18.490842    0.000000   13.698168    ( 0.0000,  0.0000,  0.0000)
  51 K     14.792674    2.615000   13.698168    ( 0.0000,  0.0000,  0.0000)
  52 K     14.792674    0.000000   17.413860    ( 0.0000,  0.0000,  0.0000)
  53 K     18.475261    2.619177   17.416373    ( 0.0000,  0.0000,  0.0000)
  54 K     18.509760    0.000000   21.120456    ( 0.0000,  0.0000,  0.0000)
  55 K     14.792674    2.614903   21.114404    ( 0.0000,  0.0000,  0.0000)
  56 K     14.792674    5.230000   10.000000    ( 0.0000,  0.0000,  0.0000)
  57 K     18.490842    7.845000   10.000000    ( 0.0000,  0.0000,  0.0000)
  58 K     18.490842    5.230000   13.698168    ( 0.0000,  0.0000,  0.0000)
  59 K     14.792674    7.845000   13.698168    ( 0.0000,  0.0000,  0.0000)
  60 K     14.792674    5.232163   17.412282    ( 0.0000,  0.0000,  0.0000)
  61 K     18.485327    7.845000   17.414062    ( 0.0000,  0.0000,  0.0000)
  62 K     18.509196    5.217811   21.111007    ( 0.0000,  0.0000,  0.0000)
  63 K     14.792674    7.845000   21.119302    ( 0.0000,  0.0000,  0.0000)
  64 K     14.792674   10.460000   10.000000    ( 0.0000,  0.0000,  0.0000)
  65 K     18.490842   13.075000   10.000000    ( 0.0000,  0.0000,  0.0000)
  66 K     18.490842   10.460000   13.698168    ( 0.0000,  0.0000,  0.0000)
  67 K     14.792674   13.075000   13.698168    ( 0.0000,  0.0000,  0.0000)
  68 K     14.792674   10.457837   17.412282    ( 0.0000,  0.0000,  0.0000)
  69 K     18.475261   13.070823   17.416373    ( 0.0000,  0.0000,  0.0000)
  70 K     18.509196   10.472189   21.111007    ( 0.0000,  0.0000,  0.0000)
  71 K     14.792674   13.075097   21.114404    ( 0.0000,  0.0000,  0.0000)
  72 K      3.698168    0.000000   24.243093    ( 0.0000,  0.0000,  0.0000)

Unit cell:
           periodic     x           y           z      points  spacing
  1. axis:    yes   22.189011    0.000000    0.000000   105     0.2113
  2. axis:    yes    0.000000   15.690000    0.000000    75     0.2092
  3. axis:    no     0.000000    0.000000   31.094505   144     0.2159

  Lengths:  22.189011  15.690000  31.094505
  Angles:   90.000000  90.000000  90.000000

Effective grid spacing dv^(1/3) = 0.2121

     iter     time        total  log10-change:
                         energy   eigst   dens
iter:   1 09:55:21   -96.403054
iter:   2 10:10:11   -94.556253   -1.73  -1.33
iter:   3 10:25:07   -81.269173   -0.96  -1.35
iter:   4 10:35:47   -80.493758   -2.36  -1.61
iter:   5 10:43:52   -80.410414   -2.78  -1.71
iter:   6 10:52:21   -80.575563c  -3.19  -1.75
iter:   7 11:01:26   -80.826833   -3.27  -1.81
iter:   8 11:10:14   -80.757811c  -2.82  -2.11
iter:   9 11:18:20   -80.644897c  -3.80  -2.27
iter:  10 11:27:08   -80.642671c  -4.69  -2.80
iter:  11 11:35:17   -80.643482c  -4.63  -2.86
iter:  12 11:43:54   -80.642212c  -4.92  -3.04
iter:  13 11:52:13   -80.642062c  -5.38c -3.11
iter:  14 12:00:35   -80.641663c  -5.77c -3.16
iter:  15 12:08:39   -80.641335c  -5.79c -3.32
iter:  16 12:16:36   -80.641110c  -6.40c -3.45
iter:  17 12:24:49   -80.641101c  -6.61c -3.57
iter:  18 12:32:45   -80.641157c  -6.14c -3.63
iter:  19 12:40:31   -80.641042c  -6.74c -3.71
iter:  20 12:48:18   -80.640988c  -6.96c -3.86
iter:  21 12:56:08   -80.641004c  -6.97c -4.08c

Converged after 21 iterations.

Dipole moment: (-19.004040, 0.000000, 0.389356) |e|*Ang

Energy contributions relative to reference atoms: (reference = -1195904.484944)

Kinetic:       -228.497990
Potential:     +267.930544
External:        +0.000000
XC:             -75.677520
Entropy (-ST):   -1.975362
Local:          -43.408356
SIC:             +0.000000
--------------------------
Free energy:    -81.628685
Extrapolated:   -80.641004

Showing only first 2 kpts
 Kpt  Band  Eigenvalues  Occupancy
  0   326     -0.76881    1.57158
  0   327     -0.75984    1.54063
  0   328     -0.67485    1.17817
  0   329     -0.62369    0.92445

  1   326     -0.71133    1.34741
  1   327     -0.63098    0.96077
  1   328     -0.62142    0.91314
  1   329     -0.62128    0.91247


Fermi level: -0.63883

No gap
No difference between direct/indirect transitions
Timing:                              incl.     excl.
-----------------------------------------------------------
Hamiltonian:                         8.569     0.095   0.0% |
 Atomic:                             1.566     0.005   0.0% |
  XC Correction:                     1.561     1.561   0.0% |
 Calculate atomic Hamiltonians:      3.844     3.844   0.0% |
 Communicate:                        0.000     0.000   0.0% |
 Initialize Hamiltonian:             0.014     0.014   0.0% |
 Poisson:                            0.656     0.656   0.0% |
 XC 3D grid:                         2.394     2.394   0.0% |
LCAO initialization:              1480.236     0.021   0.0% |
 LCAO eigensolver:                   1.441     0.001   0.0% |
  Calculate projections:             0.386     0.386   0.0% |
  DenseAtomicCorrection:             0.183     0.183   0.0% |
  Distribute overlap matrix:         0.001     0.001   0.0% |
  Orbital Layouts:                   0.297     0.297   0.0% |
  Potential matrix:                  0.508     0.508   0.0% |
  Sum over cells:                    0.064     0.064   0.0% |
 LCAO to grid:                    1477.212  1477.212  11.4% |----|
 Set positions (LCAO WFS):           1.562     0.301   0.0% |
  Basic WFS set positions:           0.003     0.003   0.0% |
  Basis functions set positions:     0.000     0.000   0.0% |
  P tci:                             1.117     1.117   0.0% |
  ST tci:                            0.105     0.105   0.0% |
  mktci:                             0.037     0.037   0.0% |
PWDescriptor:                        0.541     0.541   0.0% |
SCF-cycle:                       11442.279     0.756   0.0% |
 Davidson:                        9741.299  1501.204  11.6% |----|
  Apply H:                        1096.882  1060.242   8.2% |--|
   HMM T:                           36.640    36.640   0.3% |
  Subspace diag:                  2707.624     0.180   0.0% |
   calc_h_matrix:                 2150.827   319.457   2.5% ||
    Apply H:                      1831.370   997.535   7.7% |--|
     HMM T:                        833.835   833.835   6.4% |--|
   diagonalize:                      4.225     4.225   0.0% |
   rotate_psi:                     552.393   552.393   4.3% |-|
  calc. matrices:                 3685.237  1548.366  11.9% |----|
   Apply H:                       2136.872  2084.105  16.1% |-----|
    HMM T:                          52.766    52.766   0.4% |
  diagonalize:                      59.739    59.739   0.5% |
  rotate_psi:                      690.613   690.613   5.3% |-|
 Density:                         1455.943     0.006   0.0% |
  Atomic density matrices:           2.654     2.654   0.0% |
  Mix:                             502.877   502.877   3.9% |-|
  Multipole moments:                 0.087     0.087   0.0% |
  Pseudo density:                  950.319   949.938   7.3% |--|
   Symmetrize density:               0.381     0.381   0.0% |
 Hamiltonian:                      155.998     2.728   0.0% |
  Atomic:                           25.898     0.168   0.0% |
   XC Correction:                   25.730    25.730   0.2% |
  Calculate atomic Hamiltonians:    85.037    85.037   0.7% |
  Communicate:                       0.000     0.000   0.0% |
  Poisson:                          13.515    13.515   0.1% |
  XC 3D grid:                       28.820    28.820   0.2% |
 Orthonormalize:                    88.282     0.081   0.0% |
  calc_s_matrix:                     8.740     8.740   0.1% |
  inverse-cholesky:                  0.168     0.168   0.0% |
  projections:                      67.953    67.953   0.5% |
  rotate_psi_s:                     11.339    11.339   0.1% |
Set symmetry:                        0.001     0.001   0.0% |
Other:                              37.317    37.317   0.3% |
-----------------------------------------------------------
Total:                                     12968.944 100.0%

Memory usage: 7.00 GiB
Date: Wed Nov 26 12:56:08 2025
