
  ___ ___ ___ _ _ _  
 |   |   |_  | | | | 
 | | | | | . | | | | 
 |__ |  _|___|_____|  25.7.0
 |___|_|             

User:   tew@Mathuss-MacBook-Air-357.local
Date:   Mon Dec  1 21:55:08 2025
Arch:   arm64
Pid:    88530
CWD:    /Users/tew/Documents/Project/GitHub/chem-com
Python: 3.13.5
gpaw:   /Users/tew/Documents/Project/GitHub/chem-com/.venv/lib/python3.13/site-packages/gpaw
_gpaw:  /Users/tew/Documents/Project/GitHub/chem-com/.venv/lib/python3.13/site-packages/
        _gpaw.cpython-313-darwin.so
ase:    /Users/tew/Documents/Project/GitHub/chem-com/.venv/lib/python3.13/site-packages/ase (version 3.26.0)
numpy:  /Users/tew/Documents/Project/GitHub/chem-com/.venv/lib/python3.13/site-packages/numpy (version 2.2.6)
scipy:  /Users/tew/Documents/Project/GitHub/chem-com/.venv/lib/python3.13/site-packages/scipy (version 1.16.3)
libxc:  2.x.y
units:  Angstrom and eV
cores: 1
OpenMP: False
OMP_NUM_THREADS: 1

Input parameters:
  convergence: {density: 0.0001,
                eigenstates: 5e-06}
  kpts: [3 3 1]
  mode: {ecut: 300.0,
         name: pw}
  xc: PBE

System changes: positions, numbers, cell, pbc, initial_charges, initial_magmoms 

Initialize ...

species:
  Na:
    name: Sodium
    id: d7ecbc49209718622bcbe287195dca2a
    Z: 11.0
    valence: 7
    core: 4
    charge: 0.0
    file: /Users/tew/Documents/Project/GitHub/chem-com/.venv/lib/python3.13/site-packages/gpaw_data/setups/Na.PBE.gz
    compensation charges: {type: gauss,
                           rc: 0.37,
                           lmax: 2}
    cutoffs: {filter: 2.17,
              core: 2.59}
    projectors:
      #              energy  rcut
      - 3s(1.00)    -2.744   1.201
      - 2p(6.00)   -28.672   1.217
      - 3p(0.00)    -0.743   1.217
      -  s          24.468   1.201
      -  d           0.000   1.238
  
    # Using partial waves for Na as LCAO basis

Reference energy: -322558.566329  # eV

Spin-paired calculation

Convergence criteria:
 Maximum [total energy] change in last 3 cyles: 0.0005 eV / valence electron
 Maximum integral of absolute [dens]ity change: 0.0001 electrons / valence electron
 Maximum integral of absolute [eigenst]ate change: 5e-06 eV^2 / valence electron
 Maximum number of scf [iter]ations: 333
 (Square brackets indicate name in SCF output, whereas a 'c' in
 the SCF output indicates the quantity has converged.)

Symmetries present (total): 2

  ( 1  0  0)  ( 1  0  0)
  ( 0  1  0)  ( 0 -1  0)
  ( 0  0  1)  ( 0  0  1)

9 k-points: 3 x 3 x 1 Monkhorst-Pack grid
4 k-points in the irreducible part of the Brillouin zone
       k-points in crystal coordinates                weights
   0:     0.00000000    0.00000000    0.00000000          1/9
   1:     0.00000000    0.33333333    0.00000000          2/9
   2:     0.33333333    0.00000000    0.00000000          2/9
   3:     0.33333333    0.33333333    0.00000000          4/9

Wave functions: Plane wave expansion
  Cutoff energy: 300.000 eV
  Number of coefficients (min, max): 77809, 77876
  Pulay-stress correction: 0.000000 eV/Ang^3 (de/decut=0.000000)
  Using Numpy's FFT
  ScaLapack parameters: grid=1x1, blocksize=None
  Wavefunction extrapolation:
    Improved wavefunction reuse through dual PAW basis 

Occupation numbers: Fermi-Dirac:
  width: 0.1000  # eV
 

Eigensolver
   Davidson(niter=2) 

Densities:
  Coarse grid: 72*54*120 grid
  Fine grid: 144*108*240 grid
  Total Charge: 0.000000 

Density mixing:
  Method: separate
  Backend: pulay
  Linear mixing parameter: 0.05
  old densities: 5
  Damping of long wavelength oscillations: 50 

Hamiltonian:
  XC and Coulomb potentials evaluated on a 144*108*240 grid
  Using the PBE Exchange-Correlation functional
  External potential:
    NoExternalPotential
 

XC parameters: PBE with 2 nearest neighbor stencil

Memory estimate:
  Process memory now: 4133.75 MiB
  Calculator: 2214.98 MiB
    Density: 210.46 MiB
      Arrays: 92.55 MiB
      Localized functions: 82.32 MiB
      Mixer: 35.60 MiB
    Hamiltonian: 62.19 MiB
      Arrays: 60.51 MiB
      XC: 0.00 MiB
      Poisson: 0.00 MiB
      vbar: 1.68 MiB
    Wavefunctions: 1942.33 MiB
      Arrays psit_nG: 1478.24 MiB
      Eigensolver: 390.27 MiB
      Projections: 18.01 MiB
      Projectors: 33.26 MiB
      PW-descriptor: 22.55 MiB

Total number of cores used: 1

Number of atoms: 73
Number of atomic orbitals: 511
Number of bands in calculation: 311
Number of valence electrons: 511
Bands to converge: occupied

... initialized

Initializing position-dependent things.

Density initialized from atomic densities
Creating initial wave functions:
  311 bands from LCAO basis set

         .-------------------------------------------.  
        /|                                           |  
       / |                                           |  
      /  |                                           |  
     /   |                                           |  
    /    |                                           |  
   /     |                                           |  
  /      |                                           |  
 *       |                                           |  
 |       |                                           |  
 |       |                                           |  
 |       |                                           |  
 |       |                                           |  
 |       |                                           |  
 |      Na            Na             Na              |  
 |       |    Na            Na             Na        |  
 |       |                                           |  
 |   Na Na          Na            Na                 |  
 |       | Na  Na         Na  Na        Na  Na       |  
 | Na    |       Na  Na         Na  Na            Na |  
 |       |  Na             Na             Na         |  
 |      Na        Na  NNa            NNa        Na   |  
 |       |                       Na                  |  
 |       |Na  Na        Na  Na         Na  Na        |  
 Na  Na  |      Na  Na        Na  Na                 |  
 |       | Na  Na         Na  Na        Na  Na       |  
 |    Na |           Na             Na               |  
 |Na     |       Na             Na                   |  
 |      Na  Na         Na  Na         Na  Na         |  
 |  Na   |        Na             Na                  |  
 |       |Na            Na             Na            |  
 |       |                                           |  
 Na      |      Na            Na                     |  
 |       |                                           |  
 |       |                                           |  
 |       |                                           |  
 |       .-------------------------------------------.  
 |      /                                           /   
 |     /                                           /    
 |    /                                           /     
 |   /                                           /      
 |  /                                           /       
 | /                                           /        
 |/                                           /         
 *-------------------------------------------*          

Atomic positions and initial magnetic moments

Positions:
   0 Na     0.000000    0.000000   10.000000    ( 0.0000,  0.0000,  0.0000)
   1 Na     2.991062    2.115000   10.000000    ( 0.0000,  0.0000,  0.0000)
   2 Na     2.991062    0.000000   12.991062    ( 0.0000,  0.0000,  0.0000)
   3 Na     5.982123    2.115000   12.991062    ( 0.0000,  0.0000,  0.0000)
   4 Na     0.049569    0.000000   15.904198    ( 0.0000,  0.0000,  0.0000)
   5 Na     2.991062    2.237839   15.744939    ( 0.0000,  0.0000,  0.0000)
   6 Na     2.991062   -0.000000   18.202392    ( 0.0000,  0.0000,  0.0000)
   7 Na     0.118110    1.979398   19.048576    ( 0.0000,  0.0000,  0.0000)
   8 Na     0.000000    4.230000   10.000000    ( 0.0000,  0.0000,  0.0000)
   9 Na     2.991062    6.345000   10.000000    ( 0.0000,  0.0000,  0.0000)
  10 Na     2.991062    4.230000   12.991062    ( 0.0000,  0.0000,  0.0000)
  11 Na     5.982123    6.345000   12.991062    ( 0.0000,  0.0000,  0.0000)
  12 Na    -0.043290    4.205887   16.004422    ( 0.0000,  0.0000,  0.0000)
  13 Na     2.991062    6.345000   16.000326    ( 0.0000,  0.0000,  0.0000)
  14 Na     2.991062    4.127084   18.907368    ( 0.0000,  0.0000,  0.0000)
  15 Na     0.038383    6.345000   18.865441    ( 0.0000,  0.0000,  0.0000)
  16 Na     0.000000    8.460000   10.000000    ( 0.0000,  0.0000,  0.0000)
  17 Na     2.991062   10.575000   10.000000    ( 0.0000,  0.0000,  0.0000)
  18 Na     2.991062    8.460000   12.991062    ( 0.0000,  0.0000,  0.0000)
  19 Na     5.982123   10.575000   12.991062    ( 0.0000,  0.0000,  0.0000)
  20 Na    -0.043290    8.484113   16.004422    ( 0.0000,  0.0000,  0.0000)
  21 Na     2.991062   10.452161   15.744939    ( 0.0000,  0.0000,  0.0000)
  22 Na     2.991062    8.562916   18.907368    ( 0.0000,  0.0000,  0.0000)
  23 Na     0.118110   10.710602   19.048576    ( 0.0000,  0.0000,  0.0000)
  24 Na     5.982123    0.000000   10.000000    ( 0.0000,  0.0000,  0.0000)
  25 Na     8.973185    2.115000   10.000000    ( 0.0000,  0.0000,  0.0000)
  26 Na     8.973185    0.000000   12.991062    ( 0.0000,  0.0000,  0.0000)
  27 Na    11.964247    2.115000   12.991062    ( 0.0000,  0.0000,  0.0000)
  28 Na     5.932555   -0.000000   15.904198    ( 0.0000,  0.0000,  0.0000)
  29 Na     8.978509    2.115823   15.944506    ( 0.0000,  0.0000,  0.0000)
  30 Na     8.947811   -0.000000   18.868449    ( 0.0000,  0.0000,  0.0000)
  31 Na     5.864013    1.979398   19.048576    ( 0.0000,  0.0000,  0.0000)
  32 Na     5.982123    4.230000   10.000000    ( 0.0000,  0.0000,  0.0000)
  33 Na     8.973185    6.345000   10.000000    ( 0.0000,  0.0000,  0.0000)
  34 Na     8.973185    4.230000   12.991062    ( 0.0000,  0.0000,  0.0000)
  35 Na    11.964247    6.345000   12.991062    ( 0.0000,  0.0000,  0.0000)
  36 Na     6.025413    4.205887   16.004422    ( 0.0000,  0.0000,  0.0000)
  37 Na     8.970023    6.345000   15.938311    ( 0.0000,  0.0000,  0.0000)
  38 Na     8.923808    4.197251   18.863979    ( 0.0000,  0.0000,  0.0000)
  39 Na     5.943741    6.345000   18.865441    ( 0.0000,  0.0000,  0.0000)
  40 Na     5.982123    8.460000   10.000000    ( 0.0000,  0.0000,  0.0000)
  41 Na     8.973185   10.575000   10.000000    ( 0.0000,  0.0000,  0.0000)
  42 Na     8.973185    8.460000   12.991062    ( 0.0000,  0.0000,  0.0000)
  43 Na    11.964247   10.575000   12.991062    ( 0.0000,  0.0000,  0.0000)
  44 Na     6.025413    8.484113   16.004422    ( 0.0000,  0.0000,  0.0000)
  45 Na     8.978509   10.574177   15.944506    ( 0.0000,  0.0000,  0.0000)
  46 Na     8.923808    8.492749   18.863979    ( 0.0000,  0.0000,  0.0000)
  47 Na     5.864013   10.710602   19.048576    ( 0.0000,  0.0000,  0.0000)
  48 Na    11.964247    0.000000   10.000000    ( 0.0000,  0.0000,  0.0000)
  49 Na    14.955308    2.115000   10.000000    ( 0.0000,  0.0000,  0.0000)
  50 Na    14.955308    0.000000   12.991062    ( 0.0000,  0.0000,  0.0000)
  51 Na    17.946370    2.115000   12.991062    ( 0.0000,  0.0000,  0.0000)
  52 Na    11.964247    0.000000   15.939598    ( 0.0000,  0.0000,  0.0000)
  53 Na    14.949985    2.115823   15.944506    ( 0.0000,  0.0000,  0.0000)
  54 Na    14.980683   -0.000000   18.868449    ( 0.0000,  0.0000,  0.0000)
  55 Na    11.964247    2.117116   18.865109    ( 0.0000,  0.0000,  0.0000)
  56 Na    11.964247    4.230000   10.000000    ( 0.0000,  0.0000,  0.0000)
  57 Na    14.955308    6.345000   10.000000    ( 0.0000,  0.0000,  0.0000)
  58 Na    14.955308    4.230000   12.991062    ( 0.0000,  0.0000,  0.0000)
  59 Na    17.946370    6.345000   12.991062    ( 0.0000,  0.0000,  0.0000)
  60 Na    11.964247    4.230437   15.938375    ( 0.0000,  0.0000,  0.0000)
  61 Na    14.958470    6.345000   15.938311    ( 0.0000,  0.0000,  0.0000)
  62 Na    15.004685    4.197251   18.863979    ( 0.0000,  0.0000,  0.0000)
  63 Na    11.964247    6.345000   18.871958    ( 0.0000,  0.0000,  0.0000)
  64 Na    11.964247    8.460000   10.000000    ( 0.0000,  0.0000,  0.0000)
  65 Na    14.955308   10.575000   10.000000    ( 0.0000,  0.0000,  0.0000)
  66 Na    14.955308    8.460000   12.991062    ( 0.0000,  0.0000,  0.0000)
  67 Na    17.946370   10.575000   12.991062    ( 0.0000,  0.0000,  0.0000)
  68 Na    11.964247    8.459563   15.938375    ( 0.0000,  0.0000,  0.0000)
  69 Na    14.949985   10.574177   15.944506    ( 0.0000,  0.0000,  0.0000)
  70 Na    15.004685    8.492749   18.863979    ( 0.0000,  0.0000,  0.0000)
  71 Na    11.964247   10.572884   18.865109    ( 0.0000,  0.0000,  0.0000)
  72 Na     2.991062    0.000000   21.339934    ( 0.0000,  0.0000,  0.0000)

Unit cell:
           periodic     x           y           z      points  spacing
  1. axis:    yes   17.946370    0.000000    0.000000    72     0.2493
  2. axis:    yes    0.000000   12.690000    0.000000    54     0.2350
  3. axis:    no     0.000000    0.000000   28.973185   120     0.2414

  Lengths:  17.946370  12.690000  28.973185
  Angles:   90.000000  90.000000  90.000000

Effective grid spacing dv^(1/3) = 0.2418

     iter     time        total  log10-change:
                         energy   eigst   dens
iter:   1 22:06:43   -90.039007
iter:   2 22:08:51   -89.589676   -1.71  -1.53
iter:   3 22:11:04   -89.226183   -2.24  -1.60
iter:   4 22:13:24   -88.956857   -2.54  -1.73
iter:   5 22:15:26   -89.077327   -2.77  -1.97
iter:   6 22:17:18   -88.984930c  -3.29  -2.11
iter:   7 22:18:55   -88.972604c  -3.70  -2.45
iter:   8 22:20:27   -88.962047c  -4.11  -2.79
iter:   9 22:22:03   -88.956240c  -4.47  -2.95
iter:  10 22:23:39   -88.949193c  -4.66  -3.08
iter:  11 22:25:12   -88.946066c  -4.93  -3.23
iter:  12 22:26:48   -88.944134c  -5.02  -3.35
iter:  13 22:28:30   -88.943709c  -5.37c -3.52
iter:  14 22:30:03   -88.943485c  -5.80c -3.64
iter:  15 22:31:37   -88.943372c  -6.07c -3.73
iter:  16 22:33:12   -88.943293c  -6.28c -3.83
iter:  17 22:34:58   -88.943380c  -6.53c -3.99
iter:  18 22:36:30   -88.943402c  -6.81c -4.18c

Converged after 18 iterations.

Dipole moment: (-7.904672, -0.000000, 0.282079) |e|*Ang

Energy contributions relative to reference atoms: (reference = -322558.566329)

Kinetic:        +70.692381
Potential:      -63.702100
External:        +0.000000
XC:             -94.120261
Entropy (-ST):   -1.251532
Local:           -1.187657
SIC:             +0.000000
--------------------------
Free energy:    -89.569168
Extrapolated:   -88.943402

Showing only first 2 kpts
 Kpt  Band  Eigenvalues  Occupancy
  0   253     -1.69143    1.77766
  0   254     -1.67770    1.74903
  0   255     -1.51304    1.14642
  0   256     -1.42707    0.72488

  1   253     -1.57199    1.41546
  1   254     -1.50821    1.12271
  1   255     -1.48927    1.02863
  1   256     -1.45219    0.84449


Fermi level: -1.48355

No gap
No difference between direct/indirect transitions
Timing:                              incl.     excl.
-----------------------------------------------------------
Hamiltonian:                         2.570     0.007   0.0% |
 Atomic:                             0.824     0.002   0.0% |
  XC Correction:                     0.822     0.822   0.0% |
 Calculate atomic Hamiltonians:      1.168     1.168   0.0% |
 Communicate:                        0.000     0.000   0.0% |
 Initialize Hamiltonian:             0.001     0.001   0.0% |
 Poisson:                            0.016     0.016   0.0% |
 XC 3D grid:                         0.554     0.554   0.0% |
LCAO initialization:               579.106     0.012   0.0% |
 LCAO eigensolver:                   1.395     0.001   0.0% |
  Calculate projections:             0.055     0.055   0.0% |
  DenseAtomicCorrection:             0.251     0.251   0.0% |
  Distribute overlap matrix:         0.002     0.002   0.0% |
  Orbital Layouts:                   0.470     0.470   0.0% |
  Potential matrix:                  0.600     0.600   0.0% |
  Sum over cells:                    0.016     0.016   0.0% |
 LCAO to grid:                     576.723   576.723  23.2% |--------|
 Set positions (LCAO WFS):           0.977     0.309   0.0% |
  Basic WFS set positions:           0.001     0.001   0.0% |
  Basis functions set positions:     0.000     0.000   0.0% |
  P tci:                             0.547     0.547   0.0% |
  ST tci:                            0.108     0.108   0.0% |
  mktci:                             0.011     0.011   0.0% |
PWDescriptor:                        0.049     0.049   0.0% |
SCF-cycle:                        1895.391     0.034   0.0% |
 Davidson:                        1702.695   309.312  12.5% |----|
  Apply H:                         235.461   232.817   9.4% |---|
   HMM T:                            2.644     2.644   0.1% |
  Subspace diag:                   345.934     0.013   0.0% |
   calc_h_matrix:                  292.081    46.721   1.9% ||
    Apply H:                       245.360   236.896   9.5% |---|
     HMM T:                          8.464     8.464   0.3% |
   diagonalize:                      1.946     1.946   0.1% |
   rotate_psi:                      51.894    51.894   2.1% ||
  calc. matrices:                  693.441   215.714   8.7% |--|
   Apply H:                        477.726   471.839  19.0% |-------|
    HMM T:                           5.887     5.887   0.2% |
  diagonalize:                      26.558    26.558   1.1% |
  rotate_psi:                       91.989    91.989   3.7% ||
 Density:                          143.084     0.000   0.0% |
  Atomic density matrices:           0.283     0.283   0.0% |
  Mix:                              21.848    21.848   0.9% |
  Multipole moments:                 0.009     0.009   0.0% |
  Pseudo density:                  120.943   120.850   4.9% |-|
   Symmetrize density:               0.093     0.093   0.0% |
 Hamiltonian:                       41.126     0.111   0.0% |
  Atomic:                           14.214     0.036   0.0% |
   XC Correction:                   14.178    14.178   0.6% |
  Calculate atomic Hamiltonians:    18.751    18.751   0.8% |
  Communicate:                       0.000     0.000   0.0% |
  Poisson:                           0.184     0.184   0.0% |
  XC 3D grid:                        7.866     7.866   0.3% |
 Orthonormalize:                     8.453     0.001   0.0% |
  calc_s_matrix:                     1.882     1.882   0.1% |
  inverse-cholesky:                  0.020     0.020   0.0% |
  projections:                       4.433     4.433   0.2% |
  rotate_psi_s:                      2.117     2.117   0.1% |
Set symmetry:                        0.001     0.001   0.0% |
Other:                               5.352     5.352   0.2% |
-----------------------------------------------------------
Total:                                      2482.468 100.0%

Memory usage: 5.37 GiB
Date: Mon Dec  1 22:36:30 2025
