
  ___ ___ ___ _ _ _  
 |   |   |_  | | | | 
 | | | | | . | | | | 
 |__ |  _|___|_____|  25.7.0
 |___|_|             

User:   tew@Mathuss-MacBook-Air-357.local
Date:   Tue Nov 25 04:36:23 2025
Arch:   arm64
Pid:    53368
CWD:    /Users/tew/Documents/Project/GitHub/chem-com
Python: 3.13.5
gpaw:   /Users/tew/Documents/Project/GitHub/chem-com/.venv/lib/python3.13/site-packages/gpaw
_gpaw:  /Users/tew/Documents/Project/GitHub/chem-com/.venv/lib/python3.13/site-packages/
        _gpaw.cpython-313-darwin.so
ase:    /Users/tew/Documents/Project/GitHub/chem-com/.venv/lib/python3.13/site-packages/ase (version 3.26.0)
numpy:  /Users/tew/Documents/Project/GitHub/chem-com/.venv/lib/python3.13/site-packages/numpy (version 2.3.5)
scipy:  /Users/tew/Documents/Project/GitHub/chem-com/.venv/lib/python3.13/site-packages/scipy (version 1.16.3)
libxc:  2.x.y
units:  Angstrom and eV
cores: 1
OpenMP: False
OMP_NUM_THREADS: 1

Input parameters:
  convergence: {density: 0.0001,
                eigenstates: 5e-06}
  kpts: [2 2 1]
  mode: {ecut: 600.0,
         name: pw}
  xc: PBE

System changes: positions, numbers, cell, pbc, initial_charges, initial_magmoms 

Initialize ...

species:
  Li:
    name: Lithium
    id: 830b4218f175192f93f959cfc0aad614
    Z: 3.0
    valence: 1
    core: 2
    charge: 0.0
    file: /Users/tew/Documents/Project/GitHub/chem-com/.venv/lib/python3.13/site-packages/gpaw_data/setups/Li.PBE.gz
    compensation charges: {type: gauss,
                           rc: 0.33,
                           lmax: 2}
    cutoffs: {filter: 1.91,
              core: 2.55}
    projectors:
      #              energy  rcut
      - 2s(1.00)    -2.874   1.058
      - 2p(0.00)    -1.090   1.058
      -  s          24.337   1.058
  
    # Using partial waves for Li as LCAO basis

Reference energy: -14803.510878  # eV

Spin-paired calculation

Convergence criteria:
 Maximum [total energy] change in last 3 cyles: 0.0005 eV / valence electron
 Maximum integral of absolute [dens]ity change: 0.0001 electrons / valence electron
 Maximum integral of absolute [eigenst]ate change: 5e-06 eV^2 / valence electron
 Maximum number of scf [iter]ations: 333
 (Square brackets indicate name in SCF output, whereas a 'c' in
 the SCF output indicates the quantity has converged.)

Symmetries present (total): 2

  ( 1  0  0)  ( 1  0  0)
  ( 0  1  0)  ( 0 -1  0)
  ( 0  0  1)  ( 0  0  1)

4 k-points: 2 x 2 x 1 Monkhorst-Pack grid
1 k-point in the irreducible part of the Brillouin zone
       k-points in crystal coordinates                weights
   0:     0.25000000    0.25000000    0.00000000          4/4

Wave functions: Plane wave expansion
  Cutoff energy: 600.000 eV
  Number of coefficients (min, max): 141790, 141790
  Pulay-stress correction: 0.000000 eV/Ang^3 (de/decut=0.000000)
  Using Numpy's FFT
  ScaLapack parameters: grid=1x1, blocksize=None
  Wavefunction extrapolation:
    Improved wavefunction reuse through dual PAW basis 

Occupation numbers: Fermi-Dirac:
  width: 0.1000  # eV
 

Eigensolver
   Davidson(niter=2) 

Densities:
  Coarse grid: 84*60*160 grid
  Fine grid: 168*120*320 grid
  Total Charge: 0.000000 

Density mixing:
  Method: separate
  Backend: pulay
  Linear mixing parameter: 0.05
  old densities: 5
  Damping of long wavelength oscillations: 50 

Hamiltonian:
  XC and Coulomb potentials evaluated on a 168*120*320 grid
  Using the PBE Exchange-Correlation functional
  External potential:
    NoExternalPotential
 

XC parameters: PBE with 2 nearest neighbor stencil

Memory estimate:
  Process memory now: 4979.89 MiB
  Calculator: 738.68 MiB
    Density: 371.40 MiB
      Arrays: 159.96 MiB
      Localized functions: 149.91 MiB
      Mixer: 61.52 MiB
    Hamiltonian: 107.65 MiB
      Arrays: 104.59 MiB
      XC: 0.00 MiB
      Poisson: 0.00 MiB
      vbar: 3.06 MiB
    Wavefunctions: 259.64 MiB
      Arrays psit_nG: 103.85 MiB
      Eigensolver: 115.02 MiB
      Projections: 0.27 MiB
      Projectors: 7.57 MiB
      PW-descriptor: 32.93 MiB

Total number of cores used: 1

Number of atoms: 73
Number of atomic orbitals: 292
Number of bands in calculation: 48
Number of valence electrons: 73
Bands to converge: occupied

... initialized

Initializing position-dependent things.

Density initialized from atomic densities
Creating initial wave functions:
  48 bands from LCAO basis set

       .-----------------------------------.  
      /|                                   |  
     / |                                   |  
    /  |                                   |  
   /   |                                   |  
  /    |                                   |  
 *     |                                   |  
 |     |                                   |  
 |     |                                   |  
 |     |                                   |  
 |     |                                   |  
 |     |                                   |  
 |     |                                   |  
 |    Li          Li                       |  
 |     |   Li                 Li           |  
 |     |               Li          Li      |  
 |  Li Li       Li          Li             |  
 |Li   | Li LiLi Li  Li Li       Li Li   Li|  
 |     |  Li              Li Li            |  
 |     Li      Li  Li Li       Li Li   Li  |  
 |    Li          Li       Li Li           |  
 |     |Li Li       Li Li       Li Li      |  
 Li Li |     Li Li       Li Li             |  
 |     | Li Li       Li Li       Li Li     |  
 |Li Li|      Li Li       Li Li            |  
 |     Li Li       Li Li       Li Li       |  
 | Li  |       Li          Li              |  
 |     |Li          Li          Li         |  
 Li    |     Li          Li                |  
 |     |                                   |  
 |     |                                   |  
 |     |                                   |  
 |     |                                   |  
 |     |                                   |  
 |     .-----------------------------------.  
 |    /                                   /   
 |   /                                   /    
 |  /                                   /     
 | /                                   /      
 |/                                   /       
 *-----------------------------------*        

Atomic positions and initial magnetic moments

Positions:
   0 Li     0.000000    0.000000   10.000000    ( 0.0000,  0.0000,  0.0000)
   1 Li     2.467803    1.745000   10.000000    ( 0.0000,  0.0000,  0.0000)
   2 Li     2.467803    0.000000   12.467803    ( 0.0000,  0.0000,  0.0000)
   3 Li     0.000000    1.745000   12.467803    ( 0.0000,  0.0000,  0.0000)
   4 Li     0.027026    0.000000   14.859733    ( 0.0000,  0.0000,  0.0000)
   5 Li     2.467802    1.835552   14.730330    ( 0.0000,  0.0000,  0.0000)
   6 Li     2.467800    0.000000   16.720248    ( 0.0000,  0.0000,  0.0000)
   7 Li     0.130515    1.592995   17.431671    ( 0.0000,  0.0000,  0.0000)
   8 Li     0.000000    3.490000   10.000000    ( 0.0000,  0.0000,  0.0000)
   9 Li     2.467803    5.235000   10.000000    ( 0.0000,  0.0000,  0.0000)
  10 Li     2.467803    3.490000   12.467803    ( 0.0000,  0.0000,  0.0000)
  11 Li     0.000000    5.235000   12.467803    ( 0.0000,  0.0000,  0.0000)
  12 Li    -0.018360    3.427806   14.968943    ( 0.0000,  0.0000,  0.0000)
  13 Li     2.467801    5.235000   14.992803    ( 0.0000,  0.0000,  0.0000)
  14 Li     2.467800    3.345913   17.324220    ( 0.0000,  0.0000,  0.0000)
  15 Li     0.071353    5.235000   17.261301    ( 0.0000,  0.0000,  0.0000)
  16 Li     0.000000    6.980000   10.000000    ( 0.0000,  0.0000,  0.0000)
  17 Li     2.467803    8.725000   10.000000    ( 0.0000,  0.0000,  0.0000)
  18 Li     2.467803    6.980000   12.467803    ( 0.0000,  0.0000,  0.0000)
  19 Li     0.000000    8.725000   12.467803    ( 0.0000,  0.0000,  0.0000)
  20 Li    -0.018360    7.042194   14.968943    ( 0.0000,  0.0000,  0.0000)
  21 Li     2.467802    8.634448   14.730330    ( 0.0000,  0.0000,  0.0000)
  22 Li     2.467800    7.124087   17.324220    ( 0.0000,  0.0000,  0.0000)
  23 Li     0.130515    8.877005   17.431671    ( 0.0000,  0.0000,  0.0000)
  24 Li     4.935605    0.000000   10.000000    ( 0.0000,  0.0000,  0.0000)
  25 Li     7.403408    1.745000   10.000000    ( 0.0000,  0.0000,  0.0000)
  26 Li     7.403408    0.000000   12.467803    ( 0.0000,  0.0000,  0.0000)
  27 Li     4.935605    1.745000   12.467803    ( 0.0000,  0.0000,  0.0000)
  28 Li     4.908581   -0.000000   14.859733    ( 0.0000,  0.0000,  0.0000)
  29 Li     7.407952    1.733155   14.894146    ( 0.0000,  0.0000,  0.0000)
  30 Li     7.343077    0.000000   17.259968    ( 0.0000,  0.0000,  0.0000)
  31 Li     4.805087    1.592996   17.431670    ( 0.0000,  0.0000,  0.0000)
  32 Li     4.935605    3.490000   10.000000    ( 0.0000,  0.0000,  0.0000)
  33 Li     7.403408    5.235000   10.000000    ( 0.0000,  0.0000,  0.0000)
  34 Li     7.403408    3.490000   12.467803    ( 0.0000,  0.0000,  0.0000)
  35 Li     4.935605    5.235000   12.467803    ( 0.0000,  0.0000,  0.0000)
  36 Li     4.953965    3.427806   14.968943    ( 0.0000,  0.0000,  0.0000)
  37 Li     7.395513    5.235000   14.900339    ( 0.0000,  0.0000,  0.0000)
  38 Li     7.324769    3.445557   17.244331    ( 0.0000,  0.0000,  0.0000)
  39 Li     4.864248    5.235000   17.261301    ( 0.0000,  0.0000,  0.0000)
  40 Li     4.935605    6.980000   10.000000    ( 0.0000,  0.0000,  0.0000)
  41 Li     7.403408    8.725000   10.000000    ( 0.0000,  0.0000,  0.0000)
  42 Li     7.403408    6.980000   12.467803    ( 0.0000,  0.0000,  0.0000)
  43 Li     4.935605    8.725000   12.467803    ( 0.0000,  0.0000,  0.0000)
  44 Li     4.953965    7.042194   14.968943    ( 0.0000,  0.0000,  0.0000)
  45 Li     7.407952    8.736845   14.894146    ( 0.0000,  0.0000,  0.0000)
  46 Li     7.324769    7.024443   17.244331    ( 0.0000,  0.0000,  0.0000)
  47 Li     4.805087    8.877004   17.431670    ( 0.0000,  0.0000,  0.0000)
  48 Li     9.871211    0.000000   10.000000    ( 0.0000,  0.0000,  0.0000)
  49 Li    12.339013    1.745000   10.000000    ( 0.0000,  0.0000,  0.0000)
  50 Li    12.339013    0.000000   12.467803    ( 0.0000,  0.0000,  0.0000)
  51 Li     9.871211    1.745000   12.467803    ( 0.0000,  0.0000,  0.0000)
  52 Li     9.871212    0.000000   14.900257    ( 0.0000,  0.0000,  0.0000)
  53 Li    12.334473    1.733154   14.894145    ( 0.0000,  0.0000,  0.0000)
  54 Li    12.399345    0.000000   17.259968    ( 0.0000,  0.0000,  0.0000)
  55 Li     9.871212    1.735882   17.228811    ( 0.0000,  0.0000,  0.0000)
  56 Li     9.871211    3.490000   10.000000    ( 0.0000,  0.0000,  0.0000)
  57 Li    12.339013    5.235000   10.000000    ( 0.0000,  0.0000,  0.0000)
  58 Li    12.339013    3.490000   12.467803    ( 0.0000,  0.0000,  0.0000)
  59 Li     9.871211    5.235000   12.467803    ( 0.0000,  0.0000,  0.0000)
  60 Li     9.871212    3.485791   14.893574    ( 0.0000,  0.0000,  0.0000)
  61 Li    12.346911    5.235000   14.900337    ( 0.0000,  0.0000,  0.0000)
  62 Li    12.417655    3.445556   17.244332    ( 0.0000,  0.0000,  0.0000)
  63 Li     9.871212    5.235000   17.231554    ( 0.0000,  0.0000,  0.0000)
  64 Li     9.871211    6.980000   10.000000    ( 0.0000,  0.0000,  0.0000)
  65 Li    12.339013    8.725000   10.000000    ( 0.0000,  0.0000,  0.0000)
  66 Li    12.339013    6.980000   12.467803    ( 0.0000,  0.0000,  0.0000)
  67 Li     9.871211    8.725000   12.467803    ( 0.0000,  0.0000,  0.0000)
  68 Li     9.871212    6.984209   14.893574    ( 0.0000,  0.0000,  0.0000)
  69 Li    12.334473    8.736846   14.894145    ( 0.0000,  0.0000,  0.0000)
  70 Li    12.417655    7.024444   17.244332    ( 0.0000,  0.0000,  0.0000)
  71 Li     9.871212    8.734118   17.228811    ( 0.0000,  0.0000,  0.0000)
  72 Li     2.467805   -0.000000   19.322725    ( 0.0000,  0.0000,  0.0000)

Unit cell:
           periodic     x           y           z      points  spacing
  1. axis:    yes   14.806816    0.000000    0.000000    84     0.1763
  2. axis:    yes    0.000000   10.470000    0.000000    60     0.1745
  3. axis:    no     0.000000    0.000000   27.403408   160     0.1713

  Lengths:  14.806816  10.470000  27.403408
  Angles:   90.000000  90.000000  90.000000

Effective grid spacing dv^(1/3) = 0.1740

     iter     time        total  log10-change:
                         energy   eigst   dens
iter:   1 04:37:01  -136.123531
iter:   2 04:37:10  -131.553243   -0.86  -0.55
iter:   3 04:37:19  -129.774086   -0.94  -0.70
iter:   4 04:37:28  -130.120248   -1.46  -0.88
iter:   5 04:37:38  -129.357933   -1.88  -0.88
iter:   6 04:37:47  -128.733138   -1.82  -1.01
iter:   7 04:37:56  -128.924199   -1.79  -1.30
iter:   8 04:38:06  -128.756976   -1.93  -1.20
iter:   9 04:38:15  -128.719679   -2.70  -1.40
iter:  10 04:38:25  -128.756170   -2.16  -1.54
iter:  11 04:38:34  -128.662775   -2.66  -1.47
iter:  12 04:38:43  -128.662674   -3.33  -2.01
iter:  13 04:38:53  -128.661571c  -3.47  -2.15
iter:  14 04:39:02  -128.660700c  -3.72  -2.17
iter:  15 04:39:12  -128.659985c  -4.14  -2.37
iter:  16 04:39:21  -128.659411c  -4.17  -2.45
iter:  17 04:39:31  -128.659761c  -4.25  -2.58
iter:  18 04:39:40  -128.660228c  -4.45  -2.77
iter:  19 04:39:49  -128.659216c  -4.52  -2.80
iter:  20 04:39:59  -128.659502c  -4.80  -2.94
iter:  21 04:40:08  -128.659634c  -4.95  -3.21
iter:  22 04:40:18  -128.659345c  -5.02  -3.28
iter:  23 04:40:27  -128.659240c  -5.29  -3.39
iter:  24 04:40:37  -128.659369c  -5.20  -3.46
iter:  25 04:40:46  -128.659269c  -5.38c -3.63
iter:  26 04:40:55  -128.659216c  -5.50c -3.73
iter:  27 04:41:05  -128.659221c  -5.44c -3.83
iter:  28 04:41:14  -128.659160c  -5.52c -3.91
iter:  29 04:41:24  -128.659145c  -5.66c -3.97
iter:  30 04:41:33  -128.659149c  -5.72c -4.03c

Converged after 30 iterations.

Dipole moment: (-6.744875, 0.000000, 0.351941) |e|*Ang

Energy contributions relative to reference atoms: (reference = -14803.510878)

Kinetic:       +113.325188
Potential:      -99.336416
External:        +0.000000
XC:            -141.480332
Entropy (-ST):   -1.387105
Local:           -0.474037
SIC:             +0.000000
--------------------------
Free energy:   -129.352701
Extrapolated:  -128.659149

 Band  Eigenvalues  Occupancy
    0     -5.09971    2.00000
    1     -4.84162    2.00000
    2     -4.58362    2.00000
    3     -4.51685    2.00000
    4     -4.33069    2.00000
    5     -4.32078    2.00000
    6     -4.25389    2.00000
    7     -4.00185    2.00000
    8     -3.81363    2.00000
    9     -3.75081    2.00000
   10     -3.72974    2.00000
   11     -3.55638    2.00000
   12     -3.53585    2.00000
   13     -3.47427    2.00000
   14     -3.29238    2.00000
   15     -3.23927    2.00000
   16     -3.19615    2.00000
   17     -3.04240    1.99999
   18     -2.97217    1.99998
   19     -2.95247    1.99997
   20     -2.93647    1.99997
   21     -2.80045    1.99988
   22     -2.74358    1.99980
   23     -2.69609    1.99967
   24     -2.64941    1.99948
   25     -2.56242    1.99876
   26     -2.47218    1.99694
   27     -2.32033    1.98610
   28     -2.27527    1.97827
   29     -2.16405    1.93537
   30     -2.06141    1.82948
   31     -2.03173    1.77713
   32     -1.97318    1.63236
   33     -1.95624    1.57876
   34     -1.93998    1.52216
   35     -1.89202    1.32705
   36     -1.81778    0.96831
   37     -1.76040    0.69175
   38     -1.74048    0.60461
   39     -1.68524    0.39919
   40     -1.66345    0.33411
   41     -1.56137    0.13479
   42     -1.51727    0.08886
   43     -1.47714    0.06037
   44     -1.46954    0.05607
   45     -1.44020    0.04212
   46     -1.42804    0.03739
   47     -1.37099    0.02130

Fermi level: -1.82412

Gap: 0.074 eV
Transition (v -> c):
  (s=0, k=0, n=35, [0.25, 0.25, 0.00]) -> (s=0, k=0, n=36, [0.25, 0.25, 0.00])
No difference between direct/indirect transitions
Timing:                              incl.     excl.
-----------------------------------------------------------
Hamiltonian:                         3.165     0.010   0.0% |
 Atomic:                             0.460     0.002   0.0% |
  XC Correction:                     0.458     0.458   0.1% |
 Calculate atomic Hamiltonians:      1.880     1.880   0.6% |
 Communicate:                        0.000     0.000   0.0% |
 Initialize Hamiltonian:             0.013     0.013   0.0% |
 Poisson:                            0.054     0.054   0.0% |
 XC 3D grid:                         0.748     0.748   0.2% |
LCAO initialization:                22.002     0.005   0.0% |
 LCAO eigensolver:                   0.921     0.000   0.0% |
  Calculate projections:             0.001     0.001   0.0% |
  DenseAtomicCorrection:             0.015     0.015   0.0% |
  Distribute overlap matrix:         0.000     0.000   0.0% |
  Orbital Layouts:                   0.026     0.026   0.0% |
  Potential matrix:                  0.877     0.877   0.3% |
  Sum over cells:                    0.001     0.001   0.0% |
 LCAO to grid:                      20.720    20.720   6.7% |--|
 Set positions (LCAO WFS):           0.356     0.096   0.0% |
  Basic WFS set positions:           0.001     0.001   0.0% |
  Basis functions set positions:     0.000     0.000   0.0% |
  P tci:                             0.162     0.162   0.1% |
  ST tci:                            0.083     0.083   0.0% |
  mktci:                             0.014     0.014   0.0% |
PWDescriptor:                        0.028     0.028   0.0% |
SCF-cycle:                         276.956     0.016   0.0% |
 Davidson:                         136.696    24.262   7.8% |--|
  Apply H:                          24.615    24.397   7.9% |--|
   HMM T:                            0.218     0.218   0.1% |
  Subspace diag:                    27.558     0.002   0.0% |
   calc_h_matrix:                   25.574     1.416   0.5% |
    Apply H:                        24.158    23.944   7.7% |--|
     HMM T:                          0.213     0.213   0.1% |
   diagonalize:                      0.015     0.015   0.0% |
   rotate_psi:                       1.967     1.967   0.6% |
  calc. matrices:                   56.192     7.096   2.3% ||
   Apply H:                         49.096    48.651  15.7% |-----|
    HMM T:                           0.445     0.445   0.1% |
  diagonalize:                       0.120     0.120   0.0% |
  rotate_psi:                        3.949     3.949   1.3% ||
 Density:                           55.859     0.000   0.0% |
  Atomic density matrices:           0.044     0.044   0.0% |
  Mix:                              43.526    43.526  14.0% |-----|
  Multipole moments:                 0.011     0.011   0.0% |
  Pseudo density:                   12.278    12.053   3.9% |-|
   Symmetrize density:               0.225     0.225   0.1% |
 Hamiltonian:                       84.099     0.212   0.1% |
  Atomic:                           12.741     0.045   0.0% |
   XC Correction:                   12.696    12.696   4.1% |-|
  Calculate atomic Hamiltonians:    52.611    52.611  17.0% |------|
  Communicate:                       0.000     0.000   0.0% |
  Poisson:                           0.157     0.157   0.1% |
  XC 3D grid:                       18.379    18.379   5.9% |-|
 Orthonormalize:                     0.287     0.000   0.0% |
  calc_s_matrix:                     0.033     0.033   0.0% |
  inverse-cholesky:                  0.000     0.000   0.0% |
  projections:                       0.213     0.213   0.1% |
  rotate_psi_s:                      0.041     0.041   0.0% |
Set symmetry:                        0.000     0.000   0.0% |
Other:                               7.784     7.784   2.5% ||
-----------------------------------------------------------
Total:                                       309.935 100.0%

Memory usage: 4.86 GiB
Date: Tue Nov 25 04:41:33 2025
