
  ___ ___ ___ _ _ _  
 |   |   |_  | | | | 
 | | | | | . | | | | 
 |__ |  _|___|_____|  25.7.0
 |___|_|             

User:   tew@Mathuss-MacBook-Air-357.local
Date:   Tue Nov 25 03:34:04 2025
Arch:   arm64
Pid:    53368
CWD:    /Users/tew/Documents/Project/GitHub/chem-com
Python: 3.13.5
gpaw:   /Users/tew/Documents/Project/GitHub/chem-com/.venv/lib/python3.13/site-packages/gpaw
_gpaw:  /Users/tew/Documents/Project/GitHub/chem-com/.venv/lib/python3.13/site-packages/
        _gpaw.cpython-313-darwin.so
ase:    /Users/tew/Documents/Project/GitHub/chem-com/.venv/lib/python3.13/site-packages/ase (version 3.26.0)
numpy:  /Users/tew/Documents/Project/GitHub/chem-com/.venv/lib/python3.13/site-packages/numpy (version 2.3.5)
scipy:  /Users/tew/Documents/Project/GitHub/chem-com/.venv/lib/python3.13/site-packages/scipy (version 1.16.3)
libxc:  2.x.y
units:  Angstrom and eV
cores: 1
OpenMP: False
OMP_NUM_THREADS: 1

Input parameters:
  convergence: {density: 0.0001,
                eigenstates: 5e-06}
  kpts: [4 4 1]
  mode: {ecut: 300.0,
         name: pw}
  xc: PBE

System changes: positions, numbers, cell, pbc, initial_charges, initial_magmoms 

Initialize ...

species:
  Li:
    name: Lithium
    id: 830b4218f175192f93f959cfc0aad614
    Z: 3.0
    valence: 1
    core: 2
    charge: 0.0
    file: /Users/tew/Documents/Project/GitHub/chem-com/.venv/lib/python3.13/site-packages/gpaw_data/setups/Li.PBE.gz
    compensation charges: {type: gauss,
                           rc: 0.33,
                           lmax: 2}
    cutoffs: {filter: 1.91,
              core: 2.55}
    projectors:
      #              energy  rcut
      - 2s(1.00)    -2.874   1.058
      - 2p(0.00)    -1.090   1.058
      -  s          24.337   1.058
  
    # Using partial waves for Li as LCAO basis

Reference energy: -14803.510878  # eV

Spin-paired calculation

Convergence criteria:
 Maximum [total energy] change in last 3 cyles: 0.0005 eV / valence electron
 Maximum integral of absolute [dens]ity change: 0.0001 electrons / valence electron
 Maximum integral of absolute [eigenst]ate change: 5e-06 eV^2 / valence electron
 Maximum number of scf [iter]ations: 333
 (Square brackets indicate name in SCF output, whereas a 'c' in
 the SCF output indicates the quantity has converged.)

Symmetries present (total): 2

  ( 1  0  0)  ( 1  0  0)
  ( 0  1  0)  ( 0 -1  0)
  ( 0  0  1)  ( 0  0  1)

16 k-points: 4 x 4 x 1 Monkhorst-Pack grid
4 k-points in the irreducible part of the Brillouin zone
       k-points in crystal coordinates                weights
   0:     0.12500000    0.12500000    0.00000000          4/16
   1:     0.12500000    0.37500000    0.00000000          4/16
   2:     0.37500000    0.12500000    0.00000000          4/16
   3:     0.37500000    0.37500000    0.00000000          4/16

Wave functions: Plane wave expansion
  Cutoff energy: 300.000 eV
  Number of coefficients (min, max): 50079, 50160
  Pulay-stress correction: 0.000000 eV/Ang^3 (de/decut=0.000000)
  Using Numpy's FFT
  ScaLapack parameters: grid=1x1, blocksize=None
  Wavefunction extrapolation:
    Improved wavefunction reuse through dual PAW basis 

Occupation numbers: Fermi-Dirac:
  width: 0.1000  # eV
 

Eigensolver
   Davidson(niter=2) 

Densities:
  Coarse grid: 60*42*112 grid
  Fine grid: 120*84*224 grid
  Total Charge: 0.000000 

Density mixing:
  Method: separate
  Backend: pulay
  Linear mixing parameter: 0.05
  old densities: 5
  Damping of long wavelength oscillations: 50 

Hamiltonian:
  XC and Coulomb potentials evaluated on a 120*84*224 grid
  Using the PBE Exchange-Correlation functional
  External potential:
    NoExternalPotential
 

XC parameters: PBE with 2 nearest neighbor stencil

Memory estimate:
  Process memory now: 2820.31 MiB
  Calculator: 381.69 MiB
    Density: 130.53 MiB
      Arrays: 55.99 MiB
      Localized functions: 53.01 MiB
      Mixer: 21.53 MiB
    Hamiltonian: 37.69 MiB
      Arrays: 36.61 MiB
      XC: 0.00 MiB
      Poisson: 0.00 MiB
      vbar: 1.08 MiB
    Wavefunctions: 213.48 MiB
      Arrays psit_nG: 146.95 MiB
      Eigensolver: 40.92 MiB
      Projections: 1.07 MiB
      Projectors: 10.71 MiB
      PW-descriptor: 13.83 MiB

Total number of cores used: 1

Number of atoms: 73
Number of atomic orbitals: 292
Number of bands in calculation: 48
Number of valence electrons: 73
Bands to converge: occupied

... initialized

Initializing position-dependent things.

Density initialized from atomic densities
Creating initial wave functions:
  48 bands from LCAO basis set

       .-----------------------------------.  
      /|                                   |  
     / |                                   |  
    /  |                                   |  
   /   |                                   |  
  /    |                                   |  
 *     |                                   |  
 |     |                                   |  
 |     |                                   |  
 |     |                                   |  
 |     |                                   |  
 |     |                                   |  
 |     |                                   |  
 |    Li          Li                       |  
 |     |   Li                 Li           |  
 |     |               Li          Li      |  
 |  Li Li       Li          Li             |  
 |Li   | Li LiLi Li  Li Li       Li Li   Li|  
 |     |  Li              Li Li            |  
 |     Li      Li  Li Li       Li Li   Li  |  
 |    Li          Li       Li Li           |  
 |     |Li Li       Li Li       Li Li      |  
 Li Li |     Li Li       Li Li             |  
 |     | Li Li       Li Li       Li Li     |  
 |Li Li|      Li Li       Li Li            |  
 |     Li Li       Li Li       Li Li       |  
 | Li  |       Li          Li              |  
 |     |Li          Li          Li         |  
 Li    |     Li          Li                |  
 |     |                                   |  
 |     |                                   |  
 |     |                                   |  
 |     |                                   |  
 |     |                                   |  
 |     .-----------------------------------.  
 |    /                                   /   
 |   /                                   /    
 |  /                                   /     
 | /                                   /      
 |/                                   /       
 *-----------------------------------*        

Atomic positions and initial magnetic moments

Positions:
   0 Li     0.000000    0.000000   10.000000    ( 0.0000,  0.0000,  0.0000)
   1 Li     2.467803    1.745000   10.000000    ( 0.0000,  0.0000,  0.0000)
   2 Li     2.467803    0.000000   12.467803    ( 0.0000,  0.0000,  0.0000)
   3 Li     0.000000    1.745000   12.467803    ( 0.0000,  0.0000,  0.0000)
   4 Li     0.027026    0.000000   14.859733    ( 0.0000,  0.0000,  0.0000)
   5 Li     2.467802    1.835552   14.730330    ( 0.0000,  0.0000,  0.0000)
   6 Li     2.467800    0.000000   16.720248    ( 0.0000,  0.0000,  0.0000)
   7 Li     0.130515    1.592995   17.431671    ( 0.0000,  0.0000,  0.0000)
   8 Li     0.000000    3.490000   10.000000    ( 0.0000,  0.0000,  0.0000)
   9 Li     2.467803    5.235000   10.000000    ( 0.0000,  0.0000,  0.0000)
  10 Li     2.467803    3.490000   12.467803    ( 0.0000,  0.0000,  0.0000)
  11 Li     0.000000    5.235000   12.467803    ( 0.0000,  0.0000,  0.0000)
  12 Li    -0.018360    3.427806   14.968943    ( 0.0000,  0.0000,  0.0000)
  13 Li     2.467801    5.235000   14.992803    ( 0.0000,  0.0000,  0.0000)
  14 Li     2.467800    3.345913   17.324220    ( 0.0000,  0.0000,  0.0000)
  15 Li     0.071353    5.235000   17.261301    ( 0.0000,  0.0000,  0.0000)
  16 Li     0.000000    6.980000   10.000000    ( 0.0000,  0.0000,  0.0000)
  17 Li     2.467803    8.725000   10.000000    ( 0.0000,  0.0000,  0.0000)
  18 Li     2.467803    6.980000   12.467803    ( 0.0000,  0.0000,  0.0000)
  19 Li     0.000000    8.725000   12.467803    ( 0.0000,  0.0000,  0.0000)
  20 Li    -0.018360    7.042194   14.968943    ( 0.0000,  0.0000,  0.0000)
  21 Li     2.467802    8.634448   14.730330    ( 0.0000,  0.0000,  0.0000)
  22 Li     2.467800    7.124087   17.324220    ( 0.0000,  0.0000,  0.0000)
  23 Li     0.130515    8.877005   17.431671    ( 0.0000,  0.0000,  0.0000)
  24 Li     4.935605    0.000000   10.000000    ( 0.0000,  0.0000,  0.0000)
  25 Li     7.403408    1.745000   10.000000    ( 0.0000,  0.0000,  0.0000)
  26 Li     7.403408    0.000000   12.467803    ( 0.0000,  0.0000,  0.0000)
  27 Li     4.935605    1.745000   12.467803    ( 0.0000,  0.0000,  0.0000)
  28 Li     4.908581   -0.000000   14.859733    ( 0.0000,  0.0000,  0.0000)
  29 Li     7.407952    1.733155   14.894146    ( 0.0000,  0.0000,  0.0000)
  30 Li     7.343077    0.000000   17.259968    ( 0.0000,  0.0000,  0.0000)
  31 Li     4.805087    1.592996   17.431670    ( 0.0000,  0.0000,  0.0000)
  32 Li     4.935605    3.490000   10.000000    ( 0.0000,  0.0000,  0.0000)
  33 Li     7.403408    5.235000   10.000000    ( 0.0000,  0.0000,  0.0000)
  34 Li     7.403408    3.490000   12.467803    ( 0.0000,  0.0000,  0.0000)
  35 Li     4.935605    5.235000   12.467803    ( 0.0000,  0.0000,  0.0000)
  36 Li     4.953965    3.427806   14.968943    ( 0.0000,  0.0000,  0.0000)
  37 Li     7.395513    5.235000   14.900339    ( 0.0000,  0.0000,  0.0000)
  38 Li     7.324769    3.445557   17.244331    ( 0.0000,  0.0000,  0.0000)
  39 Li     4.864248    5.235000   17.261301    ( 0.0000,  0.0000,  0.0000)
  40 Li     4.935605    6.980000   10.000000    ( 0.0000,  0.0000,  0.0000)
  41 Li     7.403408    8.725000   10.000000    ( 0.0000,  0.0000,  0.0000)
  42 Li     7.403408    6.980000   12.467803    ( 0.0000,  0.0000,  0.0000)
  43 Li     4.935605    8.725000   12.467803    ( 0.0000,  0.0000,  0.0000)
  44 Li     4.953965    7.042194   14.968943    ( 0.0000,  0.0000,  0.0000)
  45 Li     7.407952    8.736845   14.894146    ( 0.0000,  0.0000,  0.0000)
  46 Li     7.324769    7.024443   17.244331    ( 0.0000,  0.0000,  0.0000)
  47 Li     4.805087    8.877004   17.431670    ( 0.0000,  0.0000,  0.0000)
  48 Li     9.871211    0.000000   10.000000    ( 0.0000,  0.0000,  0.0000)
  49 Li    12.339013    1.745000   10.000000    ( 0.0000,  0.0000,  0.0000)
  50 Li    12.339013    0.000000   12.467803    ( 0.0000,  0.0000,  0.0000)
  51 Li     9.871211    1.745000   12.467803    ( 0.0000,  0.0000,  0.0000)
  52 Li     9.871212    0.000000   14.900257    ( 0.0000,  0.0000,  0.0000)
  53 Li    12.334473    1.733154   14.894145    ( 0.0000,  0.0000,  0.0000)
  54 Li    12.399345    0.000000   17.259968    ( 0.0000,  0.0000,  0.0000)
  55 Li     9.871212    1.735882   17.228811    ( 0.0000,  0.0000,  0.0000)
  56 Li     9.871211    3.490000   10.000000    ( 0.0000,  0.0000,  0.0000)
  57 Li    12.339013    5.235000   10.000000    ( 0.0000,  0.0000,  0.0000)
  58 Li    12.339013    3.490000   12.467803    ( 0.0000,  0.0000,  0.0000)
  59 Li     9.871211    5.235000   12.467803    ( 0.0000,  0.0000,  0.0000)
  60 Li     9.871212    3.485791   14.893574    ( 0.0000,  0.0000,  0.0000)
  61 Li    12.346911    5.235000   14.900337    ( 0.0000,  0.0000,  0.0000)
  62 Li    12.417655    3.445556   17.244332    ( 0.0000,  0.0000,  0.0000)
  63 Li     9.871212    5.235000   17.231554    ( 0.0000,  0.0000,  0.0000)
  64 Li     9.871211    6.980000   10.000000    ( 0.0000,  0.0000,  0.0000)
  65 Li    12.339013    8.725000   10.000000    ( 0.0000,  0.0000,  0.0000)
  66 Li    12.339013    6.980000   12.467803    ( 0.0000,  0.0000,  0.0000)
  67 Li     9.871211    8.725000   12.467803    ( 0.0000,  0.0000,  0.0000)
  68 Li     9.871212    6.984209   14.893574    ( 0.0000,  0.0000,  0.0000)
  69 Li    12.334473    8.736846   14.894145    ( 0.0000,  0.0000,  0.0000)
  70 Li    12.417655    7.024444   17.244332    ( 0.0000,  0.0000,  0.0000)
  71 Li     9.871212    8.734118   17.228811    ( 0.0000,  0.0000,  0.0000)
  72 Li     2.467805   -0.000000   19.322725    ( 0.0000,  0.0000,  0.0000)

Unit cell:
           periodic     x           y           z      points  spacing
  1. axis:    yes   14.806816    0.000000    0.000000    60     0.2468
  2. axis:    yes    0.000000   10.470000    0.000000    42     0.2493
  3. axis:    no     0.000000    0.000000   27.403408   112     0.2447

  Lengths:  14.806816  10.470000  27.403408
  Angles:   90.000000  90.000000  90.000000

Effective grid spacing dv^(1/3) = 0.2469

     iter     time        total  log10-change:
                         energy   eigst   dens
iter:   1 03:35:05  -136.258127
iter:   2 03:35:16  -132.025990   -0.88  -0.56
iter:   3 03:35:30  -130.233616   -0.95  -0.70
iter:   4 03:35:44  -131.369779   -1.25  -0.87
iter:   5 03:35:57  -130.308865   -1.94  -0.81
iter:   6 03:36:11  -129.184478   -1.40  -0.90
iter:   7 03:36:24  -129.120044   -2.37  -1.30
iter:   8 03:36:36  -129.156955   -2.40  -1.36
iter:   9 03:36:47  -129.113336   -2.59  -1.48
iter:  10 03:36:58  -129.100092   -2.96  -1.64
iter:  11 03:37:09  -129.098160c  -3.22  -1.87
iter:  12 03:37:21  -129.098063c  -3.21  -2.05
iter:  13 03:37:32  -129.097483c  -3.65  -2.20
iter:  14 03:37:45  -129.097627c  -3.90  -2.33
iter:  15 03:37:57  -129.097754c  -4.02  -2.41
iter:  16 03:38:08  -129.097866c  -4.19  -2.59
iter:  17 03:38:21  -129.097852c  -4.32  -2.68
iter:  18 03:38:33  -129.097783c  -4.54  -2.78
iter:  19 03:38:44  -129.097747c  -4.67  -3.01
iter:  20 03:38:57  -129.097749c  -4.88  -3.18
iter:  21 03:39:09  -129.097745c  -4.85  -3.23
iter:  22 03:39:22  -129.097673c  -4.76  -3.34
iter:  23 03:39:33  -129.097648c  -5.02  -3.41
iter:  24 03:39:46  -129.097613c  -5.18  -3.49
iter:  25 03:39:59  -129.097574c  -5.29  -3.61
iter:  26 03:40:11  -129.097531c  -5.25  -3.72
iter:  27 03:40:23  -129.097494c  -5.35c -3.85
iter:  28 03:40:36  -129.097462c  -5.45c -3.98
iter:  29 03:40:49  -129.097431c  -5.48c -4.16c

Converged after 29 iterations.

Dipole moment: (-6.709533, 0.000000, 0.343110) |e|*Ang

Energy contributions relative to reference atoms: (reference = -14803.510878)

Kinetic:       +112.795829
Potential:      -99.318978
External:        +0.000000
XC:            -141.508631
Entropy (-ST):   -1.202105
Local:           -0.464598
SIC:             +0.000000
--------------------------
Free energy:   -129.698484
Extrapolated:  -129.097431

Showing only first 2 kpts
 Kpt  Band  Eigenvalues  Occupancy
  0    34     -1.95493    1.54366
  0    35     -1.84669    1.06803
  0    36     -1.75958    0.64828
  0    37     -1.68168    0.36075

  1    34     -1.91521    1.38908
  1    35     -1.87924    1.22687
  1    36     -1.87616    1.21219
  1    37     -1.84882    1.07862


Fermi level: -1.83306

No gap
No difference between direct/indirect transitions
Timing:                              incl.     excl.
-----------------------------------------------------------
Hamiltonian:                         2.283     0.006   0.0% |
 Atomic:                             0.801     0.003   0.0% |
  XC Correction:                     0.798     0.798   0.2% |
 Calculate atomic Hamiltonians:      1.017     1.017   0.3% |
 Communicate:                        0.000     0.000   0.0% |
 Initialize Hamiltonian:             0.008     0.008   0.0% |
 Poisson:                            0.009     0.009   0.0% |
 XC 3D grid:                         0.441     0.441   0.1% |
LCAO initialization:                44.770     0.006   0.0% |
 LCAO eigensolver:                   0.895     0.001   0.0% |
  Calculate projections:             0.008     0.008   0.0% |
  DenseAtomicCorrection:             0.106     0.106   0.0% |
  Distribute overlap matrix:         0.001     0.001   0.0% |
  Orbital Layouts:                   0.175     0.175   0.0% |
  Potential matrix:                  0.596     0.596   0.1% |
  Sum over cells:                    0.007     0.007   0.0% |
 LCAO to grid:                      42.748    42.748  10.5% |---|
 Set positions (LCAO WFS):           1.121     0.239   0.1% |
  Basic WFS set positions:           0.002     0.002   0.0% |
  Basis functions set positions:     0.000     0.000   0.0% |
  P tci:                             0.629     0.629   0.2% |
  ST tci:                            0.226     0.226   0.1% |
  mktci:                             0.025     0.025   0.0% |
PWDescriptor:                        0.044     0.044   0.0% |
SCF-cycle:                         353.881     0.034   0.0% |
 Davidson:                         258.161    49.168  12.1% |----|
  Apply H:                          44.963    44.508  11.0% |---|
   HMM T:                            0.455     0.455   0.1% |
  Subspace diag:                    51.810     0.011   0.0% |
   calc_h_matrix:                   48.058     2.865   0.7% |
    Apply H:                        45.192    44.644  11.0% |---|
     HMM T:                          0.548     0.548   0.1% |
   diagonalize:                      0.083     0.083   0.0% |
   rotate_psi:                       3.658     3.658   0.9% |
  calc. matrices:                  104.302    13.938   3.4% ||
   Apply H:                         90.364    89.428  22.1% |--------|
    HMM T:                           0.937     0.937   0.2% |
  diagonalize:                       0.648     0.648   0.2% |
  rotate_psi:                        7.270     7.270   1.8% ||
 Density:                           43.854     0.000   0.0% |
  Atomic density matrices:           0.110     0.110   0.0% |
  Mix:                              21.942    21.942   5.4% |-|
  Multipole moments:                 0.017     0.017   0.0% |
  Pseudo density:                   21.784    21.671   5.3% |-|
   Symmetrize density:               0.113     0.113   0.0% |
 Hamiltonian:                       51.272     0.116   0.0% |
  Atomic:                           17.580     0.063   0.0% |
   XC Correction:                   17.517    17.517   4.3% |-|
  Calculate atomic Hamiltonians:    24.467    24.467   6.0% |-|
  Communicate:                       0.000     0.000   0.0% |
  Poisson:                           0.097     0.097   0.0% |
  XC 3D grid:                        9.012     9.012   2.2% ||
 Orthonormalize:                     0.560     0.000   0.0% |
  calc_s_matrix:                     0.059     0.059   0.0% |
  inverse-cholesky:                  0.001     0.001   0.0% |
  projections:                       0.414     0.414   0.1% |
  rotate_psi_s:                      0.085     0.085   0.0% |
Set symmetry:                        0.001     0.001   0.0% |
Other:                               4.231     4.231   1.0% |
-----------------------------------------------------------
Total:                                       405.209 100.0%

Memory usage: 2.75 GiB
Date: Tue Nov 25 03:40:49 2025
