
  ___ ___ ___ _ _ _  
 |   |   |_  | | | | 
 | | | | | . | | | | 
 |__ |  _|___|_____|  25.7.0
 |___|_|             

User:   tew@Mathuss-MacBook-Air-357.local
Date:   Tue Nov 25 04:41:33 2025
Arch:   arm64
Pid:    53368
CWD:    /Users/tew/Documents/Project/GitHub/chem-com
Python: 3.13.5
gpaw:   /Users/tew/Documents/Project/GitHub/chem-com/.venv/lib/python3.13/site-packages/gpaw
_gpaw:  /Users/tew/Documents/Project/GitHub/chem-com/.venv/lib/python3.13/site-packages/
        _gpaw.cpython-313-darwin.so
ase:    /Users/tew/Documents/Project/GitHub/chem-com/.venv/lib/python3.13/site-packages/ase (version 3.26.0)
numpy:  /Users/tew/Documents/Project/GitHub/chem-com/.venv/lib/python3.13/site-packages/numpy (version 2.3.5)
scipy:  /Users/tew/Documents/Project/GitHub/chem-com/.venv/lib/python3.13/site-packages/scipy (version 1.16.3)
libxc:  2.x.y
units:  Angstrom and eV
cores: 1
OpenMP: False
OMP_NUM_THREADS: 1

Input parameters:
  convergence: {density: 0.0001,
                eigenstates: 5e-06}
  kpts: [3 3 1]
  mode: {ecut: 600.0,
         name: pw}
  xc: PBE

System changes: positions, numbers, cell, pbc, initial_charges, initial_magmoms 

Initialize ...

species:
  Li:
    name: Lithium
    id: 830b4218f175192f93f959cfc0aad614
    Z: 3.0
    valence: 1
    core: 2
    charge: 0.0
    file: /Users/tew/Documents/Project/GitHub/chem-com/.venv/lib/python3.13/site-packages/gpaw_data/setups/Li.PBE.gz
    compensation charges: {type: gauss,
                           rc: 0.33,
                           lmax: 2}
    cutoffs: {filter: 1.91,
              core: 2.55}
    projectors:
      #              energy  rcut
      - 2s(1.00)    -2.874   1.058
      - 2p(0.00)    -1.090   1.058
      -  s          24.337   1.058
  
    # Using partial waves for Li as LCAO basis

Reference energy: -14803.510878  # eV

Spin-paired calculation

Convergence criteria:
 Maximum [total energy] change in last 3 cyles: 0.0005 eV / valence electron
 Maximum integral of absolute [dens]ity change: 0.0001 electrons / valence electron
 Maximum integral of absolute [eigenst]ate change: 5e-06 eV^2 / valence electron
 Maximum number of scf [iter]ations: 333
 (Square brackets indicate name in SCF output, whereas a 'c' in
 the SCF output indicates the quantity has converged.)

Symmetries present (total): 2

  ( 1  0  0)  ( 1  0  0)
  ( 0  1  0)  ( 0 -1  0)
  ( 0  0  1)  ( 0  0  1)

9 k-points: 3 x 3 x 1 Monkhorst-Pack grid
4 k-points in the irreducible part of the Brillouin zone
       k-points in crystal coordinates                weights
   0:     0.00000000    0.00000000    0.00000000          1/9
   1:     0.00000000    0.33333333    0.00000000          2/9
   2:     0.33333333    0.00000000    0.00000000          2/9
   3:     0.33333333    0.33333333    0.00000000          4/9

Wave functions: Plane wave expansion
  Cutoff energy: 600.000 eV
  Number of coefficients (min, max): 141727, 141888
  Pulay-stress correction: 0.000000 eV/Ang^3 (de/decut=0.000000)
  Using Numpy's FFT
  ScaLapack parameters: grid=1x1, blocksize=None
  Wavefunction extrapolation:
    Improved wavefunction reuse through dual PAW basis 

Occupation numbers: Fermi-Dirac:
  width: 0.1000  # eV
 

Eigensolver
   Davidson(niter=2) 

Densities:
  Coarse grid: 84*60*160 grid
  Fine grid: 168*120*320 grid
  Total Charge: 0.000000 

Density mixing:
  Method: separate
  Backend: pulay
  Linear mixing parameter: 0.05
  old densities: 5
  Damping of long wavelength oscillations: 50 

Hamiltonian:
  XC and Coulomb potentials evaluated on a 168*120*320 grid
  Using the PBE Exchange-Correlation functional
  External potential:
    NoExternalPotential
 

XC parameters: PBE with 2 nearest neighbor stencil

Memory estimate:
  Process memory now: 4979.89 MiB
  Calculator: 1080.61 MiB
    Density: 371.40 MiB
      Arrays: 159.96 MiB
      Localized functions: 149.91 MiB
      Mixer: 61.52 MiB
    Hamiltonian: 107.65 MiB
      Arrays: 104.59 MiB
      XC: 0.00 MiB
      Poisson: 0.00 MiB
      vbar: 3.06 MiB
    Wavefunctions: 601.57 MiB
      Arrays psit_nG: 415.69 MiB
      Eigensolver: 115.10 MiB
      Projections: 1.07 MiB
      Projectors: 30.29 MiB
      PW-descriptor: 39.42 MiB

Total number of cores used: 1

Number of atoms: 73
Number of atomic orbitals: 292
Number of bands in calculation: 48
Number of valence electrons: 73
Bands to converge: occupied

... initialized

Initializing position-dependent things.

Density initialized from atomic densities
Creating initial wave functions:
  48 bands from LCAO basis set

       .-----------------------------------.  
      /|                                   |  
     / |                                   |  
    /  |                                   |  
   /   |                                   |  
  /    |                                   |  
 *     |                                   |  
 |     |                                   |  
 |     |                                   |  
 |     |                                   |  
 |     |                                   |  
 |     |                                   |  
 |     |                                   |  
 |    Li          Li                       |  
 |     |   Li                 Li           |  
 |     |               Li          Li      |  
 |  Li Li       Li          Li             |  
 |Li   | Li LiLi Li  Li Li       Li Li   Li|  
 |     |  Li              Li Li            |  
 |     Li      Li  Li Li       Li Li   Li  |  
 |    Li          Li       Li Li           |  
 |     |Li Li       Li Li       Li Li      |  
 Li Li |     Li Li       Li Li             |  
 |     | Li Li       Li Li       Li Li     |  
 |Li Li|      Li Li       Li Li            |  
 |     Li Li       Li Li       Li Li       |  
 | Li  |       Li          Li              |  
 |     |Li          Li          Li         |  
 Li    |     Li          Li                |  
 |     |                                   |  
 |     |                                   |  
 |     |                                   |  
 |     |                                   |  
 |     |                                   |  
 |     .-----------------------------------.  
 |    /                                   /   
 |   /                                   /    
 |  /                                   /     
 | /                                   /      
 |/                                   /       
 *-----------------------------------*        

Atomic positions and initial magnetic moments

Positions:
   0 Li     0.000000    0.000000   10.000000    ( 0.0000,  0.0000,  0.0000)
   1 Li     2.467803    1.745000   10.000000    ( 0.0000,  0.0000,  0.0000)
   2 Li     2.467803    0.000000   12.467803    ( 0.0000,  0.0000,  0.0000)
   3 Li     0.000000    1.745000   12.467803    ( 0.0000,  0.0000,  0.0000)
   4 Li     0.027026    0.000000   14.859733    ( 0.0000,  0.0000,  0.0000)
   5 Li     2.467802    1.835552   14.730330    ( 0.0000,  0.0000,  0.0000)
   6 Li     2.467800    0.000000   16.720248    ( 0.0000,  0.0000,  0.0000)
   7 Li     0.130515    1.592995   17.431671    ( 0.0000,  0.0000,  0.0000)
   8 Li     0.000000    3.490000   10.000000    ( 0.0000,  0.0000,  0.0000)
   9 Li     2.467803    5.235000   10.000000    ( 0.0000,  0.0000,  0.0000)
  10 Li     2.467803    3.490000   12.467803    ( 0.0000,  0.0000,  0.0000)
  11 Li     0.000000    5.235000   12.467803    ( 0.0000,  0.0000,  0.0000)
  12 Li    -0.018360    3.427806   14.968943    ( 0.0000,  0.0000,  0.0000)
  13 Li     2.467801    5.235000   14.992803    ( 0.0000,  0.0000,  0.0000)
  14 Li     2.467800    3.345913   17.324220    ( 0.0000,  0.0000,  0.0000)
  15 Li     0.071353    5.235000   17.261301    ( 0.0000,  0.0000,  0.0000)
  16 Li     0.000000    6.980000   10.000000    ( 0.0000,  0.0000,  0.0000)
  17 Li     2.467803    8.725000   10.000000    ( 0.0000,  0.0000,  0.0000)
  18 Li     2.467803    6.980000   12.467803    ( 0.0000,  0.0000,  0.0000)
  19 Li     0.000000    8.725000   12.467803    ( 0.0000,  0.0000,  0.0000)
  20 Li    -0.018360    7.042194   14.968943    ( 0.0000,  0.0000,  0.0000)
  21 Li     2.467802    8.634448   14.730330    ( 0.0000,  0.0000,  0.0000)
  22 Li     2.467800    7.124087   17.324220    ( 0.0000,  0.0000,  0.0000)
  23 Li     0.130515    8.877005   17.431671    ( 0.0000,  0.0000,  0.0000)
  24 Li     4.935605    0.000000   10.000000    ( 0.0000,  0.0000,  0.0000)
  25 Li     7.403408    1.745000   10.000000    ( 0.0000,  0.0000,  0.0000)
  26 Li     7.403408    0.000000   12.467803    ( 0.0000,  0.0000,  0.0000)
  27 Li     4.935605    1.745000   12.467803    ( 0.0000,  0.0000,  0.0000)
  28 Li     4.908581   -0.000000   14.859733    ( 0.0000,  0.0000,  0.0000)
  29 Li     7.407952    1.733155   14.894146    ( 0.0000,  0.0000,  0.0000)
  30 Li     7.343077    0.000000   17.259968    ( 0.0000,  0.0000,  0.0000)
  31 Li     4.805087    1.592996   17.431670    ( 0.0000,  0.0000,  0.0000)
  32 Li     4.935605    3.490000   10.000000    ( 0.0000,  0.0000,  0.0000)
  33 Li     7.403408    5.235000   10.000000    ( 0.0000,  0.0000,  0.0000)
  34 Li     7.403408    3.490000   12.467803    ( 0.0000,  0.0000,  0.0000)
  35 Li     4.935605    5.235000   12.467803    ( 0.0000,  0.0000,  0.0000)
  36 Li     4.953965    3.427806   14.968943    ( 0.0000,  0.0000,  0.0000)
  37 Li     7.395513    5.235000   14.900339    ( 0.0000,  0.0000,  0.0000)
  38 Li     7.324769    3.445557   17.244331    ( 0.0000,  0.0000,  0.0000)
  39 Li     4.864248    5.235000   17.261301    ( 0.0000,  0.0000,  0.0000)
  40 Li     4.935605    6.980000   10.000000    ( 0.0000,  0.0000,  0.0000)
  41 Li     7.403408    8.725000   10.000000    ( 0.0000,  0.0000,  0.0000)
  42 Li     7.403408    6.980000   12.467803    ( 0.0000,  0.0000,  0.0000)
  43 Li     4.935605    8.725000   12.467803    ( 0.0000,  0.0000,  0.0000)
  44 Li     4.953965    7.042194   14.968943    ( 0.0000,  0.0000,  0.0000)
  45 Li     7.407952    8.736845   14.894146    ( 0.0000,  0.0000,  0.0000)
  46 Li     7.324769    7.024443   17.244331    ( 0.0000,  0.0000,  0.0000)
  47 Li     4.805087    8.877004   17.431670    ( 0.0000,  0.0000,  0.0000)
  48 Li     9.871211    0.000000   10.000000    ( 0.0000,  0.0000,  0.0000)
  49 Li    12.339013    1.745000   10.000000    ( 0.0000,  0.0000,  0.0000)
  50 Li    12.339013    0.000000   12.467803    ( 0.0000,  0.0000,  0.0000)
  51 Li     9.871211    1.745000   12.467803    ( 0.0000,  0.0000,  0.0000)
  52 Li     9.871212    0.000000   14.900257    ( 0.0000,  0.0000,  0.0000)
  53 Li    12.334473    1.733154   14.894145    ( 0.0000,  0.0000,  0.0000)
  54 Li    12.399345    0.000000   17.259968    ( 0.0000,  0.0000,  0.0000)
  55 Li     9.871212    1.735882   17.228811    ( 0.0000,  0.0000,  0.0000)
  56 Li     9.871211    3.490000   10.000000    ( 0.0000,  0.0000,  0.0000)
  57 Li    12.339013    5.235000   10.000000    ( 0.0000,  0.0000,  0.0000)
  58 Li    12.339013    3.490000   12.467803    ( 0.0000,  0.0000,  0.0000)
  59 Li     9.871211    5.235000   12.467803    ( 0.0000,  0.0000,  0.0000)
  60 Li     9.871212    3.485791   14.893574    ( 0.0000,  0.0000,  0.0000)
  61 Li    12.346911    5.235000   14.900337    ( 0.0000,  0.0000,  0.0000)
  62 Li    12.417655    3.445556   17.244332    ( 0.0000,  0.0000,  0.0000)
  63 Li     9.871212    5.235000   17.231554    ( 0.0000,  0.0000,  0.0000)
  64 Li     9.871211    6.980000   10.000000    ( 0.0000,  0.0000,  0.0000)
  65 Li    12.339013    8.725000   10.000000    ( 0.0000,  0.0000,  0.0000)
  66 Li    12.339013    6.980000   12.467803    ( 0.0000,  0.0000,  0.0000)
  67 Li     9.871211    8.725000   12.467803    ( 0.0000,  0.0000,  0.0000)
  68 Li     9.871212    6.984209   14.893574    ( 0.0000,  0.0000,  0.0000)
  69 Li    12.334473    8.736846   14.894145    ( 0.0000,  0.0000,  0.0000)
  70 Li    12.417655    7.024444   17.244332    ( 0.0000,  0.0000,  0.0000)
  71 Li     9.871212    8.734118   17.228811    ( 0.0000,  0.0000,  0.0000)
  72 Li     2.467805   -0.000000   19.322725    ( 0.0000,  0.0000,  0.0000)

Unit cell:
           periodic     x           y           z      points  spacing
  1. axis:    yes   14.806816    0.000000    0.000000    84     0.1763
  2. axis:    yes    0.000000   10.470000    0.000000    60     0.1745
  3. axis:    no     0.000000    0.000000   27.403408   160     0.1713

  Lengths:  14.806816  10.470000  27.403408
  Angles:   90.000000  90.000000  90.000000

Effective grid spacing dv^(1/3) = 0.1740

     iter     time        total  log10-change:
                         energy   eigst   dens
iter:   1 04:43:22  -136.360153
iter:   2 04:43:46  -132.027506   -0.87  -0.56
iter:   3 04:44:10  -130.174603   -0.90  -0.70
iter:   4 04:44:35  -131.546068   -1.20  -0.87
iter:   5 04:44:59  -130.602641   -1.90  -0.80
iter:   6 04:45:23  -129.105303   -1.47  -0.87
iter:   7 04:45:47  -129.113838   -2.14  -1.32
iter:   8 04:46:11  -129.127812c  -2.32  -1.35
iter:   9 04:46:35  -129.090303   -2.78  -1.46
iter:  10 04:47:00  -129.099803   -2.39  -1.61
iter:  11 04:47:24  -129.067781c  -2.81  -1.65
iter:  12 04:47:48  -129.067149c  -3.35  -2.05
iter:  13 04:48:13  -129.066733c  -3.45  -2.20
iter:  14 04:48:37  -129.067572c  -3.72  -2.29
iter:  15 04:49:01  -129.067395c  -3.90  -2.36
iter:  16 04:49:25  -129.067712c  -3.93  -2.46
iter:  17 04:49:49  -129.068039c  -4.10  -2.60
iter:  18 04:50:13  -129.068389c  -4.28  -2.78
iter:  19 04:50:38  -129.068070c  -4.37  -2.90
iter:  20 04:51:01  -129.068087c  -4.67  -3.01
iter:  21 04:51:26  -129.068123c  -4.61  -3.16
iter:  22 04:51:49  -129.068030c  -4.81  -3.24
iter:  23 04:52:14  -129.067938c  -4.86  -3.32
iter:  24 04:52:38  -129.067900c  -4.95  -3.55
iter:  25 04:53:02  -129.067809c  -4.83  -3.62
iter:  26 04:53:26  -129.067717c  -4.92  -3.72
iter:  27 04:53:50  -129.067658c  -5.01  -3.86
iter:  28 04:54:14  -129.067608c  -4.86  -3.93
iter:  29 04:54:38  -129.067553c  -5.13  -4.04c
iter:  30 04:55:02  -129.067507c  -5.25  -4.08c
iter:  31 04:55:27  -129.067454c  -5.09  -4.06c
iter:  32 04:55:51  -129.067403c  -5.18  -3.97
iter:  33 04:56:14  -129.067363c  -5.16  -4.06c
iter:  34 04:56:39  -129.067331c  -5.43c -4.08c

Converged after 34 iterations.

Dipole moment: (-6.713923, 0.000000, 0.345648) |e|*Ang

Energy contributions relative to reference atoms: (reference = -14803.510878)

Kinetic:       +112.799584
Potential:      -99.305700
External:        +0.000000
XC:            -141.477890
Entropy (-ST):   -1.225549
Local:           -0.470551
SIC:             +0.000000
--------------------------
Free energy:   -129.680105
Extrapolated:  -129.067331

Showing only first 2 kpts
 Kpt  Band  Eigenvalues  Occupancy
  0    34     -2.04757    1.79811
  0    35     -2.04134    1.78650
  0    36     -1.79805    0.84696
  0    37     -1.69670    0.42098

  1    34     -1.88016    1.25082
  1    35     -1.85291    1.11947
  1    36     -1.84175    1.06419
  1    37     -1.74144    0.58859


Fermi level: -1.82890

No gap
No difference between direct/indirect transitions
Timing:                              incl.     excl.
-----------------------------------------------------------
Hamiltonian:                         2.901     0.010   0.0% |
 Atomic:                             0.420     0.002   0.0% |
  XC Correction:                     0.418     0.418   0.0% |
 Calculate atomic Hamiltonians:      1.777     1.777   0.2% |
 Communicate:                        0.000     0.000   0.0% |
 Initialize Hamiltonian:             0.006     0.006   0.0% |
 Poisson:                            0.016     0.016   0.0% |
 XC 3D grid:                         0.673     0.673   0.1% |
LCAO initialization:                80.594     0.003   0.0% |
 LCAO eigensolver:                   0.959     0.000   0.0% |
  Calculate projections:             0.004     0.004   0.0% |
  DenseAtomicCorrection:             0.059     0.059   0.0% |
  Distribute overlap matrix:         0.000     0.000   0.0% |
  Orbital Layouts:                   0.098     0.098   0.0% |
  Potential matrix:                  0.791     0.791   0.1% |
  Sum over cells:                    0.006     0.006   0.0% |
 LCAO to grid:                      79.031    79.031   8.7% |--|
 Set positions (LCAO WFS):           0.600     0.147   0.0% |
  Basic WFS set positions:           0.001     0.001   0.0% |
  Basis functions set positions:     0.000     0.000   0.0% |
  P tci:                             0.334     0.334   0.0% |
  ST tci:                            0.107     0.107   0.0% |
  mktci:                             0.012     0.012   0.0% |
PWDescriptor:                        0.060     0.060   0.0% |
SCF-cycle:                         814.592     0.028   0.0% |
 Davidson:                         615.480   109.070  12.0% |----|
  Apply H:                         110.290   109.311  12.1% |----|
   HMM T:                            0.979     0.979   0.1% |
  Subspace diag:                   124.923     0.009   0.0% |
   calc_h_matrix:                  116.240     6.439   0.7% |
    Apply H:                       109.801   108.825  12.0% |----|
     HMM T:                          0.976     0.976   0.1% |
   diagonalize:                      0.072     0.072   0.0% |
   rotate_psi:                       8.601     8.601   0.9% |
  calc. matrices:                  253.274    32.279   3.6% ||
   Apply H:                        220.995   219.006  24.2% |---------|
    HMM T:                           1.989     1.989   0.2% |
  diagonalize:                       0.533     0.533   0.1% |
  rotate_psi:                       17.390    17.390   1.9% ||
 Density:                          103.238     0.000   0.0% |
  Atomic density matrices:           0.087     0.087   0.0% |
  Mix:                              48.523    48.523   5.4% |-|
  Multipole moments:                 0.012     0.012   0.0% |
  Pseudo density:                   54.616    54.365   6.0% |-|
   Symmetrize density:               0.250     0.250   0.0% |
 Hamiltonian:                       94.751     0.238   0.0% |
  Atomic:                           14.584     0.052   0.0% |
   XC Correction:                   14.532    14.532   1.6% ||
  Calculate atomic Hamiltonians:    59.296    59.296   6.5% |--|
  Communicate:                       0.000     0.000   0.0% |
  Poisson:                           0.175     0.175   0.0% |
  XC 3D grid:                       20.458    20.458   2.3% ||
 Orthonormalize:                     1.094     0.000   0.0% |
  calc_s_matrix:                     0.115     0.115   0.0% |
  inverse-cholesky:                  0.001     0.001   0.0% |
  projections:                       0.839     0.839   0.1% |
  rotate_psi_s:                      0.139     0.139   0.0% |
Set symmetry:                        0.000     0.000   0.0% |
Other:                               7.587     7.587   0.8% |
-----------------------------------------------------------
Total:                                       905.735 100.0%

Memory usage: 6.03 GiB
Date: Tue Nov 25 04:56:39 2025
