
  ___ ___ ___ _ _ _  
 |   |   |_  | | | | 
 | | | | | . | | | | 
 |__ |  _|___|_____|  25.7.0
 |___|_|             

User:   tew@Mathuss-MacBook-Air-357.local
Date:   Wed Nov 26 12:56:08 2025
Arch:   arm64
Pid:    20322
CWD:    /Users/tew/Documents/Project/GitHub/chem-com
Python: 3.13.5
gpaw:   /Users/tew/Documents/Project/GitHub/chem-com/.venv/lib/python3.13/site-packages/gpaw
_gpaw:  /Users/tew/Documents/Project/GitHub/chem-com/.venv/lib/python3.13/site-packages/
        _gpaw.cpython-313-darwin.so
ase:    /Users/tew/Documents/Project/GitHub/chem-com/.venv/lib/python3.13/site-packages/ase (version 3.26.0)
numpy:  /Users/tew/Documents/Project/GitHub/chem-com/.venv/lib/python3.13/site-packages/numpy (version 2.3.5)
scipy:  /Users/tew/Documents/Project/GitHub/chem-com/.venv/lib/python3.13/site-packages/scipy (version 1.16.3)
libxc:  2.x.y
units:  Angstrom and eV
cores: 1
OpenMP: False
OMP_NUM_THREADS: 1

Input parameters:
  convergence: {density: 0.0001,
                eigenstates: 5e-06}
  kpts: [4 4 1]
  mode: {ecut: 400.0,
         name: pw}
  xc: PBE

System changes: positions, numbers, cell, pbc, initial_charges, initial_magmoms 

Initialize ...

species:
  K:
    name: Potassium
    id: 04190408da443a44668134082ce1c192
    Z: 19.0
    valence: 9
    core: 10
    charge: 0.0
    file: /Users/tew/Documents/Project/GitHub/chem-com/.venv/lib/python3.13/site-packages/gpaw_data/setups/K.PBE.gz
    compensation charges: {type: gauss,
                           rc: 0.35,
                           lmax: 2}
    cutoffs: {filter: 1.91,
              core: 1.27}
    projectors:
      #              energy  rcut
      - 3s(2.00)   -35.338   1.122
      - 4s(1.00)    -2.319   1.122
      - 3p(6.00)   -18.813   1.106
      -  p           8.398   1.106
      -  d           0.000   0.937
  
    # Using partial waves for K as LCAO basis

Reference energy: -1195904.484944  # eV

Spin-paired calculation

Convergence criteria:
 Maximum [total energy] change in last 3 cyles: 0.0005 eV / valence electron
 Maximum integral of absolute [dens]ity change: 0.0001 electrons / valence electron
 Maximum integral of absolute [eigenst]ate change: 5e-06 eV^2 / valence electron
 Maximum number of scf [iter]ations: 333
 (Square brackets indicate name in SCF output, whereas a 'c' in
 the SCF output indicates the quantity has converged.)

Symmetries present (total): 2

  ( 1  0  0)  ( 1  0  0)
  ( 0  1  0)  ( 0 -1  0)
  ( 0  0  1)  ( 0  0  1)

16 k-points: 4 x 4 x 1 Monkhorst-Pack grid
4 k-points in the irreducible part of the Brillouin zone
       k-points in crystal coordinates                weights
   0:     0.12500000    0.12500000    0.00000000          4/16
   1:     0.12500000    0.37500000    0.00000000          4/16
   2:     0.37500000    0.12500000    0.00000000          4/16
   3:     0.37500000    0.37500000    0.00000000          4/16

Wave functions: Plane wave expansion
  Cutoff energy: 400.000 eV
  Number of coefficients (min, max): 196610, 196709
  Pulay-stress correction: 0.000000 eV/Ang^3 (de/decut=0.000000)
  Using Numpy's FFT
  ScaLapack parameters: grid=1x1, blocksize=None
  Wavefunction extrapolation:
    Improved wavefunction reuse through dual PAW basis 

Occupation numbers: Fermi-Dirac:
  width: 0.1000  # eV
 

Eigensolver
   Davidson(niter=2) 

Densities:
  Coarse grid: 105*75*144 grid
  Fine grid: 210*150*288 grid
  Total Charge: 0.000000 

Density mixing:
  Method: separate
  Backend: pulay
  Linear mixing parameter: 0.05
  old densities: 5
  Damping of long wavelength oscillations: 50 

Hamiltonian:
  XC and Coulomb potentials evaluated on a 210*150*288 grid
  Using the PBE Exchange-Correlation functional
  External potential:
    NoExternalPotential
 

XC parameters: PBE with 2 nearest neighbor stencil

Memory estimate:
  Process memory now: 7170.00 MiB
  Calculator: 6344.31 MiB
    Density: 519.40 MiB
      Arrays: 224.95 MiB
      Localized functions: 207.94 MiB
      Mixer: 86.52 MiB
    Hamiltonian: 151.32 MiB
      Arrays: 147.08 MiB
      XC: 0.00 MiB
      Poisson: 0.00 MiB
      vbar: 4.24 MiB
    Wavefunctions: 5673.59 MiB
      Arrays psit_nG: 4382.25 MiB
      Eigensolver: 1130.91 MiB
      Projections: 21.14 MiB
      Projectors: 84.02 MiB
      PW-descriptor: 55.26 MiB

Total number of cores used: 1

Number of atoms: 73
Number of atomic orbitals: 365
Number of bands in calculation: 365
Number of valence electrons: 657
Bands to converge: occupied

... initialized

Initializing position-dependent things.

Density initialized from atomic densities
Creating initial wave functions:
  365 bands from LCAO basis set

           .------------------------------------------------------.  
          /|                                                      |  
         / |                                                      |  
        /  |                                                      |  
       /   |                                                      |  
      /    |                                                      |  
     /     |                                                      |  
    /      |                                                      |  
   /       |                                                      |  
  /        |                                                      |  
 *         |                                                      |  
 |         |                                                      |  
 |         |                                                      |  
 |         |                                                      |  
 |        K|               K                  K                   |  
 |         |     K                                                |  
 |         |                       K                  K           |  
 |    K    |            K                  K                      |  
 |        K|                         K                 K          |  
 |         | K    K             K                 K               |  
 | K       |         K    K                 K                  K  |  
 |         |                           K                          |  
 |         |   K            K     K            K    K             |  
 |       KK|           K    K            K    K            K      |  
 |         |                                                      |  
 |         |K    K            K    K            K    K            |  
 |    K    |            K                  K                      |  
 |         |       K                 KK                KK         |  
 |         | K                  K                 K               |  
 |      K  |              K                 K                     |  
 | K       |         K                 K                          |  
 |        K|   K             K   K             K    K             |  
 |  K      |           K                 K                        |  
 |         |                                                      |  
 |         |K                 K                  K                |  
 |         |                                                      |  
 K         |       K                  K                           |  
 |         |                                                      |  
 |         .------------------------------------------------------.  
 |        /                                                      /   
 |       /                                                      /    
 |      /                                                      /     
 |     /                                                      /      
 |    /                                                      /       
 |   /                                                      /        
 |  /                                                      /         
 | /                                                      /          
 |/                                                      /           
 *------------------------------------------------------*            

Atomic positions and initial magnetic moments

Positions:
   0 K      0.000000    0.000000   10.000000    ( 0.0000,  0.0000,  0.0000)
   1 K      3.698168    2.615000   10.000000    ( 0.0000,  0.0000,  0.0000)
   2 K      3.698168    0.000000   13.698168    ( 0.0000,  0.0000,  0.0000)
   3 K      0.000000    2.615000   13.698168    ( 0.0000,  0.0000,  0.0000)
   4 K     -0.028983    0.000000   17.346053    ( 0.0000,  0.0000,  0.0000)
   5 K      3.698168    2.835248   17.184393    ( 0.0000,  0.0000,  0.0000)
   6 K      3.698168    0.000000   20.215997    ( 0.0000,  0.0000,  0.0000)
   7 K      0.102635    2.531033   21.279365    ( 0.0000,  0.0000,  0.0000)
   8 K      0.000000    5.230000   10.000000    ( 0.0000,  0.0000,  0.0000)
   9 K      3.698168    7.845000   10.000000    ( 0.0000,  0.0000,  0.0000)
  10 K      3.698168    5.230000   13.698168    ( 0.0000,  0.0000,  0.0000)
  11 K      0.000000    7.845000   13.698168    ( 0.0000,  0.0000,  0.0000)
  12 K     -0.030147    5.221905   17.453813    ( 0.0000,  0.0000,  0.0000)
  13 K      3.698168    7.845000   17.451906    ( 0.0000,  0.0000,  0.0000)
  14 K      3.698168    5.148165   21.216706    ( 0.0000,  0.0000,  0.0000)
  15 K      0.020305    7.845000   21.119136    ( 0.0000,  0.0000,  0.0000)
  16 K      0.000000   10.460000   10.000000    ( 0.0000,  0.0000,  0.0000)
  17 K      3.698168   13.075000   10.000000    ( 0.0000,  0.0000,  0.0000)
  18 K      3.698168   10.460000   13.698168    ( 0.0000,  0.0000,  0.0000)
  19 K      0.000000   13.075000   13.698168    ( 0.0000,  0.0000,  0.0000)
  20 K     -0.030147   10.468095   17.453813    ( 0.0000,  0.0000,  0.0000)
  21 K      3.698168   12.854752   17.184393    ( 0.0000,  0.0000,  0.0000)
  22 K      3.698168   10.541835   21.216706    ( 0.0000,  0.0000,  0.0000)
  23 K      0.102635   13.158967   21.279365    ( 0.0000,  0.0000,  0.0000)
  24 K      7.396337    0.000000   10.000000    ( 0.0000,  0.0000,  0.0000)
  25 K     11.094505    2.615000   10.000000    ( 0.0000,  0.0000,  0.0000)
  26 K     11.094505    0.000000   13.698168    ( 0.0000,  0.0000,  0.0000)
  27 K      7.396337    2.615000   13.698168    ( 0.0000,  0.0000,  0.0000)
  28 K      7.425320    0.000000   17.346053    ( 0.0000,  0.0000,  0.0000)
  29 K     11.110086    2.619177   17.416373    ( 0.0000,  0.0000,  0.0000)
  30 K     11.075588    0.000000   21.120456    ( 0.0000,  0.0000,  0.0000)
  31 K      7.293702    2.531033   21.279365    ( 0.0000,  0.0000,  0.0000)
  32 K      7.396337    5.230000   10.000000    ( 0.0000,  0.0000,  0.0000)
  33 K     11.094505    7.845000   10.000000    ( 0.0000,  0.0000,  0.0000)
  34 K     11.094505    5.230000   13.698168    ( 0.0000,  0.0000,  0.0000)
  35 K      7.396337    7.845000   13.698168    ( 0.0000,  0.0000,  0.0000)
  36 K      7.426484    5.221905   17.453813    ( 0.0000,  0.0000,  0.0000)
  37 K     11.100021    7.845000   17.414062    ( 0.0000,  0.0000,  0.0000)
  38 K     11.076152    5.217811   21.111007    ( 0.0000,  0.0000,  0.0000)
  39 K      7.376032    7.845000   21.119136    ( 0.0000,  0.0000,  0.0000)
  40 K      7.396337   10.460000   10.000000    ( 0.0000,  0.0000,  0.0000)
  41 K     11.094505   13.075000   10.000000    ( 0.0000,  0.0000,  0.0000)
  42 K     11.094505   10.460000   13.698168    ( 0.0000,  0.0000,  0.0000)
  43 K      7.396337   13.075000   13.698168    ( 0.0000,  0.0000,  0.0000)
  44 K      7.426484   10.468095   17.453813    ( 0.0000,  0.0000,  0.0000)
  45 K     11.110086   13.070823   17.416373    ( 0.0000,  0.0000,  0.0000)
  46 K     11.076152   10.472189   21.111007    ( 0.0000,  0.0000,  0.0000)
  47 K      7.293702   13.158967   21.279365    ( 0.0000,  0.0000,  0.0000)
  48 K     14.792674    0.000000   10.000000    ( 0.0000,  0.0000,  0.0000)
  49 K     18.490842    2.615000   10.000000    ( 0.0000,  0.0000,  0.0000)
  50 K     18.490842    0.000000   13.698168    ( 0.0000,  0.0000,  0.0000)
  51 K     14.792674    2.615000   13.698168    ( 0.0000,  0.0000,  0.0000)
  52 K     14.792674    0.000000   17.413860    ( 0.0000,  0.0000,  0.0000)
  53 K     18.475261    2.619177   17.416373    ( 0.0000,  0.0000,  0.0000)
  54 K     18.509760    0.000000   21.120456    ( 0.0000,  0.0000,  0.0000)
  55 K     14.792674    2.614903   21.114404    ( 0.0000,  0.0000,  0.0000)
  56 K     14.792674    5.230000   10.000000    ( 0.0000,  0.0000,  0.0000)
  57 K     18.490842    7.845000   10.000000    ( 0.0000,  0.0000,  0.0000)
  58 K     18.490842    5.230000   13.698168    ( 0.0000,  0.0000,  0.0000)
  59 K     14.792674    7.845000   13.698168    ( 0.0000,  0.0000,  0.0000)
  60 K     14.792674    5.232163   17.412282    ( 0.0000,  0.0000,  0.0000)
  61 K     18.485327    7.845000   17.414062    ( 0.0000,  0.0000,  0.0000)
  62 K     18.509196    5.217811   21.111007    ( 0.0000,  0.0000,  0.0000)
  63 K     14.792674    7.845000   21.119302    ( 0.0000,  0.0000,  0.0000)
  64 K     14.792674   10.460000   10.000000    ( 0.0000,  0.0000,  0.0000)
  65 K     18.490842   13.075000   10.000000    ( 0.0000,  0.0000,  0.0000)
  66 K     18.490842   10.460000   13.698168    ( 0.0000,  0.0000,  0.0000)
  67 K     14.792674   13.075000   13.698168    ( 0.0000,  0.0000,  0.0000)
  68 K     14.792674   10.457837   17.412282    ( 0.0000,  0.0000,  0.0000)
  69 K     18.475261   13.070823   17.416373    ( 0.0000,  0.0000,  0.0000)
  70 K     18.509196   10.472189   21.111007    ( 0.0000,  0.0000,  0.0000)
  71 K     14.792674   13.075097   21.114404    ( 0.0000,  0.0000,  0.0000)
  72 K      3.698168    0.000000   24.243093    ( 0.0000,  0.0000,  0.0000)

Unit cell:
           periodic     x           y           z      points  spacing
  1. axis:    yes   22.189011    0.000000    0.000000   105     0.2113
  2. axis:    yes    0.000000   15.690000    0.000000    75     0.2092
  3. axis:    no     0.000000    0.000000   31.094505   144     0.2159

  Lengths:  22.189011  15.690000  31.094505
  Angles:   90.000000  90.000000  90.000000

Effective grid spacing dv^(1/3) = 0.2121

     iter     time        total  log10-change:
                         energy   eigst   dens
iter:   1 13:28:14   -96.374127
iter:   2 13:37:08   -94.549400   -1.73  -1.33
iter:   3 13:45:02   -81.241603   -0.95  -1.35
iter:   4 13:53:12   -80.505592   -2.38  -1.61
iter:   5 14:01:28   -80.410294   -2.78  -1.71
iter:   6 14:09:14   -80.598154c  -3.19  -1.75
iter:   7 14:17:11   -80.826492   -3.29  -1.81
iter:   8 14:25:32   -80.747691c  -2.83  -2.12
iter:   9 14:33:24   -80.646293c  -3.80  -2.28
iter:  10 14:41:24   -80.644430c  -4.68  -2.80
iter:  11 14:49:17   -80.643499c  -4.61  -2.86
iter:  12 14:57:01   -80.642924c  -4.99  -3.05
iter:  13 15:04:51   -80.643079c  -5.30  -3.11
iter:  14 15:12:24   -80.642565c  -5.69c -3.16
iter:  15 15:20:59   -80.642193c  -5.73c -3.33
iter:  16 15:28:55   -80.642174c  -6.49c -3.43
iter:  17 15:36:58   -80.642219c  -6.51c -3.55
iter:  18 15:45:01   -80.642192c  -6.13c -3.63
