
  ___ ___ ___ _ _ _  
 |   |   |_  | | | | 
 | | | | | . | | | | 
 |__ |  _|___|_____|  25.7.0
 |___|_|             

User:   tew@Mathuss-MacBook-Air-357.local
Date:   Tue Nov 25 07:36:16 2025
Arch:   arm64
Pid:    53368
CWD:    /Users/tew/Documents/Project/GitHub/chem-com
Python: 3.13.5
gpaw:   /Users/tew/Documents/Project/GitHub/chem-com/.venv/lib/python3.13/site-packages/gpaw
_gpaw:  /Users/tew/Documents/Project/GitHub/chem-com/.venv/lib/python3.13/site-packages/
        _gpaw.cpython-313-darwin.so
ase:    /Users/tew/Documents/Project/GitHub/chem-com/.venv/lib/python3.13/site-packages/ase (version 3.26.0)
numpy:  /Users/tew/Documents/Project/GitHub/chem-com/.venv/lib/python3.13/site-packages/numpy (version 2.3.5)
scipy:  /Users/tew/Documents/Project/GitHub/chem-com/.venv/lib/python3.13/site-packages/scipy (version 1.16.3)
libxc:  2.x.y
units:  Angstrom and eV
cores: 1
OpenMP: False
OMP_NUM_THREADS: 1

Input parameters:
  convergence: {density: 0.0001,
                eigenstates: 5e-06}
  kpts: [4 4 1]
  mode: {ecut: 300.0,
         name: pw}
  xc: PBE

System changes: positions, numbers, cell, pbc, initial_charges, initial_magmoms 

Initialize ...

species:
  Li:
    name: Lithium
    id: 830b4218f175192f93f959cfc0aad614
    Z: 3.0
    valence: 1
    core: 2
    charge: 0.0
    file: /Users/tew/Documents/Project/GitHub/chem-com/.venv/lib/python3.13/site-packages/gpaw_data/setups/Li.PBE.gz
    compensation charges: {type: gauss,
                           rc: 0.33,
                           lmax: 2}
    cutoffs: {filter: 1.91,
              core: 2.55}
    projectors:
      #              energy  rcut
      - 2s(1.00)    -2.874   1.058
      - 2p(0.00)    -1.090   1.058
      -  s          24.337   1.058
  
    # Using partial waves for Li as LCAO basis

Reference energy: -14803.510878  # eV

Spin-paired calculation

Convergence criteria:
 Maximum [total energy] change in last 3 cyles: 0.0005 eV / valence electron
 Maximum integral of absolute [dens]ity change: 0.0001 electrons / valence electron
 Maximum integral of absolute [eigenst]ate change: 5e-06 eV^2 / valence electron
 Maximum number of scf [iter]ations: 333
 (Square brackets indicate name in SCF output, whereas a 'c' in
 the SCF output indicates the quantity has converged.)

Symmetries present (total): 2

  ( 1  0  0)  ( 0  1  0)
  ( 0  1  0)  ( 1  0  0)
  ( 0  0  1)  ( 0  0  1)

16 k-points: 4 x 4 x 1 Monkhorst-Pack grid
6 k-points in the irreducible part of the Brillouin zone
       k-points in crystal coordinates                weights
   0:     0.12500000   -0.12500000    0.00000000          2/16
   1:     0.12500000    0.12500000    0.00000000          2/16
   2:     0.37500000   -0.37500000    0.00000000          2/16
   3:     0.37500000   -0.12500000    0.00000000          4/16
   4:     0.37500000    0.12500000    0.00000000          4/16
   5:     0.37500000    0.37500000    0.00000000          2/16

Wave functions: Plane wave expansion
  Cutoff energy: 300.000 eV
  Number of coefficients (min, max): 41647, 41697
  Pulay-stress correction: 0.000000 eV/Ang^3 (de/decut=0.000000)
  Using Numpy's FFT
  ScaLapack parameters: grid=1x1, blocksize=None
  Wavefunction extrapolation:
    Improved wavefunction reuse through dual PAW basis 

Occupation numbers: Fermi-Dirac:
  width: 0.1000  # eV
 

Eigensolver
   Davidson(niter=2) 

Densities:
  Coarse grid: 42*42*135 grid
  Fine grid: 84*84*270 grid
  Total Charge: 0.000000 

Density mixing:
  Method: separate
  Backend: pulay
  Linear mixing parameter: 0.05
  old densities: 5
  Damping of long wavelength oscillations: 50 

Hamiltonian:
  XC and Coulomb potentials evaluated on a 84*84*270 grid
  Using the PBE Exchange-Correlation functional
  External potential:
    NoExternalPotential
 

XC parameters: PBE with 2 nearest neighbor stencil

Memory estimate:
  Process memory now: 7411.14 MiB
  Calculator: 386.42 MiB
    Density: 109.47 MiB
      Arrays: 47.24 MiB
      Localized functions: 44.06 MiB
      Mixer: 18.17 MiB
    Hamiltonian: 31.79 MiB
      Arrays: 30.89 MiB
      XC: 0.00 MiB
      Poisson: 0.00 MiB
      vbar: 0.90 MiB
    Wavefunctions: 245.17 MiB
      Arrays psit_nG: 183.24 MiB
      Eigensolver: 34.07 MiB
      Projections: 1.60 MiB
      Projectors: 13.35 MiB
      PW-descriptor: 12.90 MiB

Total number of cores used: 1

Number of atoms: 73
Number of atomic orbitals: 292
Number of bands in calculation: 48
Number of valence electrons: 73
Bands to converge: occupied

... initialized

Initializing position-dependent things.

Density initialized from atomic densities
Creating initial wave functions:
  48 bands from LCAO basis set

       .-------------------------.  
      /|                         |  
     / |                         |  
    /  |                         |  
   /   |                         |  
  /    |                         |  
 *     |                         |  
 |     |                         |  
 |     |                         |  
 |     |                         |  
 |     |                         |  
 |     |                         |  
 |     |                         |  
 |     |   Li      Li       Li   |  
 |     |                         |  
 |    LiLi      LLi       Li     Li 
 |     |                         |  
 |   Li|     LLi      Li Li      |  
 |    Li  Li       Li      Li    |  
 |     |    Li  Li  Li       Li  Li 
 |     |Li       Li       Li     |  
 |   Li|      Li  Li  Li         |  
 |    Li  Li   Li  Li   Li  Li   |  
 |     |    Li      Li       Li  |  
 |     |Li       Li       Li     |  
 |   Li|      Li  Li  Li         |  
 |    Li  Li   Li  Li   Li  Li   |  
 | Li  |    Li      Li           |  
 |     |Li       Li       Li     |  
 Li    |  Li      Li             |  
 |   LLi      LLi     LiLi       |  
 |     |                         |  
 | Li  |    Li      Li           |  
 |     |                         |  
 Li    |  Li      Li             |  
 |     |                         |  
 |     |                         |  
 |     |                         |  
 |     |                         |  
 |     |                         |  
 |     .-------------------------.  
 |    /                         /   
 |   /                         /    
 |  /                         /     
 | /                         /      
 |/                         /       
 *-------------------------*        

Atomic positions and initial magnetic moments

Positions:
   0 Li     0.000000    0.000000   10.000000    ( 0.0000,  0.0000,  0.0000)
   1 Li     1.745000    1.745000   11.745000    ( 0.0000,  0.0000,  0.0000)
   2 Li     0.000000    0.000000   13.490000    ( 0.0000,  0.0000,  0.0000)
   3 Li     1.745000    1.745000   15.235000    ( 0.0000,  0.0000,  0.0000)
   4 Li    -0.027474   -0.027474   16.914363    ( 0.0000,  0.0000,  0.0000)
   5 Li     1.744998    1.744998   18.521758    ( 0.0000,  0.0000,  0.0000)
   6 Li    -0.125293   -0.125293   20.322972    ( 0.0000,  0.0000,  0.0000)
   7 Li     1.745009    1.745009   21.396961    ( 0.0000,  0.0000,  0.0000)
   8 Li     0.000000    3.490000   10.000000    ( 0.0000,  0.0000,  0.0000)
   9 Li     1.745000    5.235000   11.745000    ( 0.0000,  0.0000,  0.0000)
  10 Li     0.000000    3.490000   13.490000    ( 0.0000,  0.0000,  0.0000)
  11 Li     1.745000    5.235000   15.235000    ( 0.0000,  0.0000,  0.0000)
  12 Li    -0.027468    3.517462   16.914361    ( 0.0000,  0.0000,  0.0000)
  13 Li     1.744994    5.206698   18.642926    ( 0.0000,  0.0000,  0.0000)
  14 Li    -0.125295    3.615282   20.322964    ( 0.0000,  0.0000,  0.0000)
  15 Li     1.744991    4.842415   22.334383    ( 0.0000,  0.0000,  0.0000)
  16 Li     0.000000    6.980000   10.000000    ( 0.0000,  0.0000,  0.0000)
  17 Li     1.745000    8.725000   11.745000    ( 0.0000,  0.0000,  0.0000)
  18 Li     0.000000    6.980000   13.490000    ( 0.0000,  0.0000,  0.0000)
  19 Li     1.745000    8.725000   15.235000    ( 0.0000,  0.0000,  0.0000)
  20 Li     0.025936    6.980004   16.946447    ( 0.0000,  0.0000,  0.0000)
  21 Li     1.744993    8.753284   18.642935    ( 0.0000,  0.0000,  0.0000)
  22 Li     0.070614    6.980002   20.485685    ( 0.0000,  0.0000,  0.0000)
  23 Li     1.744990    9.117601   22.334388    ( 0.0000,  0.0000,  0.0000)
  24 Li     3.490000    0.000000   10.000000    ( 0.0000,  0.0000,  0.0000)
  25 Li     5.235000    1.745000   11.745000    ( 0.0000,  0.0000,  0.0000)
  26 Li     3.490000    0.000000   13.490000    ( 0.0000,  0.0000,  0.0000)
  27 Li     5.235000    1.745000   15.235000    ( 0.0000,  0.0000,  0.0000)
  28 Li     3.517462   -0.027468   16.914361    ( 0.0000,  0.0000,  0.0000)
  29 Li     5.206698    1.744994   18.642926    ( 0.0000,  0.0000,  0.0000)
  30 Li     3.615282   -0.125295   20.322964    ( 0.0000,  0.0000,  0.0000)
  31 Li     4.842415    1.744991   22.334383    ( 0.0000,  0.0000,  0.0000)
  32 Li     3.490000    3.490000   10.000000    ( 0.0000,  0.0000,  0.0000)
  33 Li     5.235000    5.235000   11.745000    ( 0.0000,  0.0000,  0.0000)
  34 Li     3.490000    3.490000   13.490000    ( 0.0000,  0.0000,  0.0000)
  35 Li     5.235000    5.235000   15.235000    ( 0.0000,  0.0000,  0.0000)
  36 Li     3.517458    3.517458   16.914364    ( 0.0000,  0.0000,  0.0000)
  37 Li     5.307269    5.307269   18.619679    ( 0.0000,  0.0000,  0.0000)
  38 Li     3.615285    3.615285   20.322959    ( 0.0000,  0.0000,  0.0000)
  39 Li     5.245324    5.245324   22.286398    ( 0.0000,  0.0000,  0.0000)
  40 Li     3.490000    6.980000   10.000000    ( 0.0000,  0.0000,  0.0000)
  41 Li     5.235000    8.725000   11.745000    ( 0.0000,  0.0000,  0.0000)
  42 Li     3.490000    6.980000   13.490000    ( 0.0000,  0.0000,  0.0000)
  43 Li     5.235000    8.725000   15.235000    ( 0.0000,  0.0000,  0.0000)
  44 Li     3.464070    6.980004   16.946464    ( 0.0000,  0.0000,  0.0000)
  45 Li     5.307286    8.652745   18.619676    ( 0.0000,  0.0000,  0.0000)
  46 Li     3.419382    6.980001   20.485685    ( 0.0000,  0.0000,  0.0000)
  47 Li     5.245323    8.714653   22.286400    ( 0.0000,  0.0000,  0.0000)
  48 Li     6.980000    0.000000   10.000000    ( 0.0000,  0.0000,  0.0000)
  49 Li     8.725000    1.745000   11.745000    ( 0.0000,  0.0000,  0.0000)
  50 Li     6.980000    0.000000   13.490000    ( 0.0000,  0.0000,  0.0000)
  51 Li     8.725000    1.745000   15.235000    ( 0.0000,  0.0000,  0.0000)
  52 Li     6.980004    0.025936   16.946447    ( 0.0000,  0.0000,  0.0000)
  53 Li     8.753284    1.744993   18.642935    ( 0.0000,  0.0000,  0.0000)
  54 Li     6.980002    0.070614   20.485685    ( 0.0000,  0.0000,  0.0000)
  55 Li     9.117601    1.744990   22.334388    ( 0.0000,  0.0000,  0.0000)
  56 Li     6.980000    3.490000   10.000000    ( 0.0000,  0.0000,  0.0000)
  57 Li     8.725000    5.235000   11.745000    ( 0.0000,  0.0000,  0.0000)
  58 Li     6.980000    3.490000   13.490000    ( 0.0000,  0.0000,  0.0000)
  59 Li     8.725000    5.235000   15.235000    ( 0.0000,  0.0000,  0.0000)
  60 Li     6.980004    3.464070   16.946464    ( 0.0000,  0.0000,  0.0000)
  61 Li     8.652745    5.307286   18.619676    ( 0.0000,  0.0000,  0.0000)
  62 Li     6.980001    3.419382   20.485685    ( 0.0000,  0.0000,  0.0000)
  63 Li     8.714653    5.245323   22.286400    ( 0.0000,  0.0000,  0.0000)
  64 Li     6.980000    6.980000   10.000000    ( 0.0000,  0.0000,  0.0000)
  65 Li     8.725000    8.725000   11.745000    ( 0.0000,  0.0000,  0.0000)
  66 Li     6.980000    6.980000   13.490000    ( 0.0000,  0.0000,  0.0000)
  67 Li     8.725000    8.725000   15.235000    ( 0.0000,  0.0000,  0.0000)
  68 Li     6.980006    6.980006   16.811156    ( 0.0000,  0.0000,  0.0000)
  69 Li     8.652727    8.652727   18.619672    ( 0.0000,  0.0000,  0.0000)
  70 Li     6.980001    6.980001   20.483290    ( 0.0000,  0.0000,  0.0000)
  71 Li     8.714659    8.714659   22.286404    ( 0.0000,  0.0000,  0.0000)
  72 Li     1.745001    1.745001   23.980812    ( 0.0000,  0.0000,  0.0000)

Unit cell:
           periodic     x           y           z      points  spacing
  1. axis:    yes   10.470000    0.000000    0.000000    42     0.2493
  2. axis:    yes    0.000000   10.470000    0.000000    42     0.2493
  3. axis:    no     0.000000    0.000000   32.215000   135     0.2386

  Lengths:  10.470000  10.470000  32.215000
  Angles:   90.000000  90.000000  90.000000

Effective grid spacing dv^(1/3) = 0.2457

     iter     time        total  log10-change:
                         energy   eigst   dens
iter:   1 07:37:03  -138.205560
iter:   2 07:37:11  -133.923915   -0.77  -0.65
iter:   3 07:37:20  -133.385163   -1.28  -0.84
iter:   4 07:37:29  -133.008362   -1.62  -0.90
iter:   5 07:37:39  -132.239743   -1.87  -0.96
iter:   6 07:37:48  -135.295183   -0.83  -1.11
iter:   7 07:37:57  -131.804874   -1.46  -0.74
iter:   8 07:38:06  -132.085202   -1.51  -1.26
iter:   9 07:38:15  -131.868297   -2.62  -1.28
iter:  10 07:38:24  -131.832335   -2.98  -1.48
iter:  11 07:38:33  -131.871240   -2.65  -1.57
iter:  12 07:38:42  -131.822762   -3.07  -1.58
iter:  13 07:38:50  -131.821641   -3.70  -1.79
iter:  14 07:38:59  -131.820943c  -3.87  -1.93
iter:  15 07:39:08  -131.827231c  -3.42  -2.01
iter:  16 07:39:17  -131.815106c  -3.82  -2.00
iter:  17 07:39:26  -131.813324c  -4.29  -2.28
iter:  18 07:39:35  -131.812606c  -4.79  -2.52
iter:  19 07:39:44  -131.812681c  -5.07  -2.71
iter:  20 07:39:53  -131.812521c  -5.21  -2.84
iter:  21 07:40:02  -131.812490c  -5.56c -2.91
iter:  22 07:40:10  -131.812460c  -5.75c -3.00
iter:  23 07:40:19  -131.812440c  -5.82c -3.12
iter:  24 07:40:28  -131.812433c  -5.74c -3.25
iter:  25 07:40:37  -131.812474c  -6.00c -3.29
iter:  26 07:40:46  -131.812451c  -6.10c -3.46
iter:  27 07:40:55  -131.812436c  -6.27c -3.54
iter:  28 07:41:04  -131.812431c  -6.29c -3.63
iter:  29 07:41:13  -131.812406c  -6.32c -4.01c

Converged after 29 iterations.

Dipole moment: (2.861988, 2.861988, 0.276156) |e|*Ang

Energy contributions relative to reference atoms: (reference = -14803.510878)

Kinetic:       +101.907381
Potential:      -92.061186
External:        +0.000000
XC:            -140.599993
Entropy (-ST):   -1.168968
Local:           -0.474124
SIC:             +0.000000
--------------------------
Free energy:   -132.396890
Extrapolated:  -131.812406

Showing only first 2 kpts
 Kpt  Band  Eigenvalues  Occupancy
  0    34     -1.53334    1.42516
  0    35     -1.42289    0.90202
  0    36     -1.34332    0.54093
  0    37     -1.23022    0.21371

  1    34     -1.53334    1.42516
  1    35     -1.42289    0.90202
  1    36     -1.34332    0.54093
  1    37     -1.23022    0.21371


Fermi level: -1.44255

No gap
No difference between direct/indirect transitions
Timing:                              incl.     excl.
-----------------------------------------------------------
Hamiltonian:                         1.119     0.002   0.0% |
 Atomic:                             0.397     0.001   0.0% |
  XC Correction:                     0.396     0.396   0.1% |
 Calculate atomic Hamiltonians:      0.532     0.532   0.2% |
 Communicate:                        0.000     0.000   0.0% |
 Initialize Hamiltonian:             0.000     0.000   0.0% |
 Poisson:                            0.001     0.001   0.0% |
 XC 3D grid:                         0.186     0.186   0.1% |
LCAO initialization:                36.769     0.003   0.0% |
 LCAO eigensolver:                   0.588     0.000   0.0% |
  Calculate projections:             0.007     0.007   0.0% |
  DenseAtomicCorrection:             0.092     0.092   0.0% |
  Distribute overlap matrix:         0.001     0.001   0.0% |
  Orbital Layouts:                   0.153     0.153   0.1% |
  Potential matrix:                  0.330     0.330   0.1% |
  Sum over cells:                    0.005     0.005   0.0% |
 LCAO to grid:                      35.333    35.333  11.9% |----|
 Set positions (LCAO WFS):           0.846     0.196   0.1% |
  Basic WFS set positions:           0.001     0.001   0.0% |
  Basis functions set positions:     0.000     0.000   0.0% |
  P tci:                             0.510     0.510   0.2% |
  ST tci:                            0.128     0.128   0.0% |
  mktci:                             0.011     0.011   0.0% |
PWDescriptor:                        0.020     0.020   0.0% |
SCF-cycle:                         257.260     0.023   0.0% |
 Davidson:                         198.254    38.982  13.1% |----|
  Apply H:                          33.882    33.562  11.3% |----|
   HMM T:                            0.320     0.320   0.1% |
  Subspace diag:                    39.157     0.012   0.0% |
   calc_h_matrix:                   36.030     2.407   0.8% |
    Apply H:                        33.623    33.306  11.2% |---|
     HMM T:                          0.317     0.317   0.1% |
   diagonalize:                      0.084     0.084   0.0% |
   rotate_psi:                       3.032     3.032   1.0% |
  calc. matrices:                   79.443    11.617   3.9% |-|
   Apply H:                         67.826    67.184  22.6% |--------|
    HMM T:                           0.643     0.643   0.2% |
  diagonalize:                       0.635     0.635   0.2% |
  rotate_psi:                        6.155     6.155   2.1% ||
 Density:                           28.413     0.000   0.0% |
  Atomic density matrices:           0.090     0.090   0.0% |
  Mix:                              11.466    11.466   3.9% |-|
  Multipole moments:                 0.010     0.010   0.0% |
  Pseudo density:                   16.848    16.787   5.7% |-|
   Symmetrize density:               0.061     0.061   0.0% |
 Hamiltonian:                       30.172     0.056   0.0% |
  Atomic:                           11.138     0.040   0.0% |
   XC Correction:                   11.098    11.098   3.7% ||
  Calculate atomic Hamiltonians:    13.987    13.987   4.7% |-|
  Communicate:                       0.000     0.000   0.0% |
  Poisson:                           0.040     0.040   0.0% |
  XC 3D grid:                        4.951     4.951   1.7% ||
 Orthonormalize:                     0.398     0.000   0.0% |
  calc_s_matrix:                     0.042     0.042   0.0% |
  inverse-cholesky:                  0.001     0.001   0.0% |
  projections:                       0.298     0.298   0.1% |
  rotate_psi_s:                      0.056     0.056   0.0% |
Set symmetry:                        0.000     0.000   0.0% |
Other:                               1.688     1.688   0.6% |
-----------------------------------------------------------
Total:                                       296.858 100.0%

Memory usage: 7.24 GiB
Date: Tue Nov 25 07:41:13 2025
