
  ___ ___ ___ _ _ _  
 |   |   |_  | | | | 
 | | | | | . | | | | 
 |__ |  _|___|_____|  25.7.0
 |___|_|             

User:   tew@Mathuss-MacBook-Air-357.local
Date:   Tue Nov 25 07:41:13 2025
Arch:   arm64
Pid:    53368
CWD:    /Users/tew/Documents/Project/GitHub/chem-com
Python: 3.13.5
gpaw:   /Users/tew/Documents/Project/GitHub/chem-com/.venv/lib/python3.13/site-packages/gpaw
_gpaw:  /Users/tew/Documents/Project/GitHub/chem-com/.venv/lib/python3.13/site-packages/
        _gpaw.cpython-313-darwin.so
ase:    /Users/tew/Documents/Project/GitHub/chem-com/.venv/lib/python3.13/site-packages/ase (version 3.26.0)
numpy:  /Users/tew/Documents/Project/GitHub/chem-com/.venv/lib/python3.13/site-packages/numpy (version 2.3.5)
scipy:  /Users/tew/Documents/Project/GitHub/chem-com/.venv/lib/python3.13/site-packages/scipy (version 1.16.3)
libxc:  2.x.y
units:  Angstrom and eV
cores: 1
OpenMP: False
OMP_NUM_THREADS: 1

Input parameters:
  convergence: {density: 0.0001,
                eigenstates: 5e-06}
  kpts: [2 2 1]
  mode: {ecut: 400.0,
         name: pw}
  xc: PBE

System changes: positions, numbers, cell, pbc, initial_charges, initial_magmoms 

Initialize ...

species:
  Li:
    name: Lithium
    id: 830b4218f175192f93f959cfc0aad614
    Z: 3.0
    valence: 1
    core: 2
    charge: 0.0
    file: /Users/tew/Documents/Project/GitHub/chem-com/.venv/lib/python3.13/site-packages/gpaw_data/setups/Li.PBE.gz
    compensation charges: {type: gauss,
                           rc: 0.33,
                           lmax: 2}
    cutoffs: {filter: 1.91,
              core: 2.55}
    projectors:
      #              energy  rcut
      - 2s(1.00)    -2.874   1.058
      - 2p(0.00)    -1.090   1.058
      -  s          24.337   1.058
  
    # Using partial waves for Li as LCAO basis

Reference energy: -14803.510878  # eV

Spin-paired calculation

Convergence criteria:
 Maximum [total energy] change in last 3 cyles: 0.0005 eV / valence electron
 Maximum integral of absolute [dens]ity change: 0.0001 electrons / valence electron
 Maximum integral of absolute [eigenst]ate change: 5e-06 eV^2 / valence electron
 Maximum number of scf [iter]ations: 333
 (Square brackets indicate name in SCF output, whereas a 'c' in
 the SCF output indicates the quantity has converged.)

Symmetries present (total): 2

  ( 1  0  0)  ( 0  1  0)
  ( 0  1  0)  ( 1  0  0)
  ( 0  0  1)  ( 0  0  1)

4 k-points: 2 x 2 x 1 Monkhorst-Pack grid
2 k-points in the irreducible part of the Brillouin zone
       k-points in crystal coordinates                weights
   0:     0.25000000   -0.25000000    0.00000000          2/4
   1:     0.25000000    0.25000000    0.00000000          2/4

Wave functions: Plane wave expansion
  Cutoff energy: 400.000 eV
  Number of coefficients (min, max): 64142, 64142
  Pulay-stress correction: 0.000000 eV/Ang^3 (de/decut=0.000000)
  Using Numpy's FFT
  ScaLapack parameters: grid=1x1, blocksize=None
  Wavefunction extrapolation:
    Improved wavefunction reuse through dual PAW basis 

Occupation numbers: Fermi-Dirac:
  width: 0.1000  # eV
 

Eigensolver
   Davidson(niter=2) 

Densities:
  Coarse grid: 49*49*150 grid
  Fine grid: 98*98*300 grid
  Total Charge: 0.000000 

Density mixing:
  Method: separate
  Backend: pulay
  Linear mixing parameter: 0.05
  old densities: 5
  Damping of long wavelength oscillations: 50 

Hamiltonian:
  XC and Coulomb potentials evaluated on a 98*98*300 grid
  Using the PBE Exchange-Correlation functional
  External potential:
    NoExternalPotential
 

XC parameters: PBE with 2 nearest neighbor stencil

Memory estimate:
  Process memory now: 7411.14 MiB
  Calculator: 384.11 MiB
    Density: 166.75 MiB
      Arrays: 71.44 MiB
      Localized functions: 67.84 MiB
      Mixer: 27.48 MiB
    Hamiltonian: 48.09 MiB
      Arrays: 46.71 MiB
      XC: 0.00 MiB
      Poisson: 0.00 MiB
      vbar: 1.38 MiB
    Wavefunctions: 169.27 MiB
      Arrays psit_nG: 93.96 MiB
      Eigensolver: 52.23 MiB
      Projections: 0.53 MiB
      Projectors: 6.85 MiB
      PW-descriptor: 15.70 MiB

Total number of cores used: 1

Number of atoms: 73
Number of atomic orbitals: 292
Number of bands in calculation: 48
Number of valence electrons: 73
Bands to converge: occupied

... initialized

Initializing position-dependent things.

Density initialized from atomic densities
Creating initial wave functions:
  48 bands from LCAO basis set

       .-------------------------.  
      /|                         |  
     / |                         |  
    /  |                         |  
   /   |                         |  
  /    |                         |  
 *     |                         |  
 |     |                         |  
 |     |                         |  
 |     |                         |  
 |     |                         |  
 |     |                         |  
 |     |                         |  
 |     |   Li      Li       Li   |  
 |     |                         |  
 |    LiLi      LLi       Li     Li 
 |     |                         |  
 |   Li|     LLi      Li Li      |  
 |    Li  Li       Li      Li    |  
 |     |    Li  Li  Li       Li  Li 
 |     |Li       Li       Li     |  
 |   Li|      Li  Li  Li         |  
 |    Li  Li   Li  Li   Li  Li   |  
 |     |    Li      Li       Li  |  
 |     |Li       Li       Li     |  
 |   Li|      Li  Li  Li         |  
 |    Li  Li   Li  Li   Li  Li   |  
 | Li  |    Li      Li           |  
 |     |Li       Li       Li     |  
 Li    |  Li      Li             |  
 |   LLi      LLi     LiLi       |  
 |     |                         |  
 | Li  |    Li      Li           |  
 |     |                         |  
 Li    |  Li      Li             |  
 |     |                         |  
 |     |                         |  
 |     |                         |  
 |     |                         |  
 |     |                         |  
 |     .-------------------------.  
 |    /                         /   
 |   /                         /    
 |  /                         /     
 | /                         /      
 |/                         /       
 *-------------------------*        

Atomic positions and initial magnetic moments

Positions:
   0 Li     0.000000    0.000000   10.000000    ( 0.0000,  0.0000,  0.0000)
   1 Li     1.745000    1.745000   11.745000    ( 0.0000,  0.0000,  0.0000)
   2 Li     0.000000    0.000000   13.490000    ( 0.0000,  0.0000,  0.0000)
   3 Li     1.745000    1.745000   15.235000    ( 0.0000,  0.0000,  0.0000)
   4 Li    -0.027474   -0.027474   16.914363    ( 0.0000,  0.0000,  0.0000)
   5 Li     1.744998    1.744998   18.521758    ( 0.0000,  0.0000,  0.0000)
   6 Li    -0.125293   -0.125293   20.322972    ( 0.0000,  0.0000,  0.0000)
   7 Li     1.745009    1.745009   21.396961    ( 0.0000,  0.0000,  0.0000)
   8 Li     0.000000    3.490000   10.000000    ( 0.0000,  0.0000,  0.0000)
   9 Li     1.745000    5.235000   11.745000    ( 0.0000,  0.0000,  0.0000)
  10 Li     0.000000    3.490000   13.490000    ( 0.0000,  0.0000,  0.0000)
  11 Li     1.745000    5.235000   15.235000    ( 0.0000,  0.0000,  0.0000)
  12 Li    -0.027468    3.517462   16.914361    ( 0.0000,  0.0000,  0.0000)
  13 Li     1.744994    5.206698   18.642926    ( 0.0000,  0.0000,  0.0000)
  14 Li    -0.125295    3.615282   20.322964    ( 0.0000,  0.0000,  0.0000)
  15 Li     1.744991    4.842415   22.334383    ( 0.0000,  0.0000,  0.0000)
  16 Li     0.000000    6.980000   10.000000    ( 0.0000,  0.0000,  0.0000)
  17 Li     1.745000    8.725000   11.745000    ( 0.0000,  0.0000,  0.0000)
  18 Li     0.000000    6.980000   13.490000    ( 0.0000,  0.0000,  0.0000)
  19 Li     1.745000    8.725000   15.235000    ( 0.0000,  0.0000,  0.0000)
  20 Li     0.025936    6.980004   16.946447    ( 0.0000,  0.0000,  0.0000)
  21 Li     1.744993    8.753284   18.642935    ( 0.0000,  0.0000,  0.0000)
  22 Li     0.070614    6.980002   20.485685    ( 0.0000,  0.0000,  0.0000)
  23 Li     1.744990    9.117601   22.334388    ( 0.0000,  0.0000,  0.0000)
  24 Li     3.490000    0.000000   10.000000    ( 0.0000,  0.0000,  0.0000)
  25 Li     5.235000    1.745000   11.745000    ( 0.0000,  0.0000,  0.0000)
  26 Li     3.490000    0.000000   13.490000    ( 0.0000,  0.0000,  0.0000)
  27 Li     5.235000    1.745000   15.235000    ( 0.0000,  0.0000,  0.0000)
  28 Li     3.517462   -0.027468   16.914361    ( 0.0000,  0.0000,  0.0000)
  29 Li     5.206698    1.744994   18.642926    ( 0.0000,  0.0000,  0.0000)
  30 Li     3.615282   -0.125295   20.322964    ( 0.0000,  0.0000,  0.0000)
  31 Li     4.842415    1.744991   22.334383    ( 0.0000,  0.0000,  0.0000)
  32 Li     3.490000    3.490000   10.000000    ( 0.0000,  0.0000,  0.0000)
  33 Li     5.235000    5.235000   11.745000    ( 0.0000,  0.0000,  0.0000)
  34 Li     3.490000    3.490000   13.490000    ( 0.0000,  0.0000,  0.0000)
  35 Li     5.235000    5.235000   15.235000    ( 0.0000,  0.0000,  0.0000)
  36 Li     3.517458    3.517458   16.914364    ( 0.0000,  0.0000,  0.0000)
  37 Li     5.307269    5.307269   18.619679    ( 0.0000,  0.0000,  0.0000)
  38 Li     3.615285    3.615285   20.322959    ( 0.0000,  0.0000,  0.0000)
  39 Li     5.245324    5.245324   22.286398    ( 0.0000,  0.0000,  0.0000)
  40 Li     3.490000    6.980000   10.000000    ( 0.0000,  0.0000,  0.0000)
  41 Li     5.235000    8.725000   11.745000    ( 0.0000,  0.0000,  0.0000)
  42 Li     3.490000    6.980000   13.490000    ( 0.0000,  0.0000,  0.0000)
  43 Li     5.235000    8.725000   15.235000    ( 0.0000,  0.0000,  0.0000)
  44 Li     3.464070    6.980004   16.946464    ( 0.0000,  0.0000,  0.0000)
  45 Li     5.307286    8.652745   18.619676    ( 0.0000,  0.0000,  0.0000)
  46 Li     3.419382    6.980001   20.485685    ( 0.0000,  0.0000,  0.0000)
  47 Li     5.245323    8.714653   22.286400    ( 0.0000,  0.0000,  0.0000)
  48 Li     6.980000    0.000000   10.000000    ( 0.0000,  0.0000,  0.0000)
  49 Li     8.725000    1.745000   11.745000    ( 0.0000,  0.0000,  0.0000)
  50 Li     6.980000    0.000000   13.490000    ( 0.0000,  0.0000,  0.0000)
  51 Li     8.725000    1.745000   15.235000    ( 0.0000,  0.0000,  0.0000)
  52 Li     6.980004    0.025936   16.946447    ( 0.0000,  0.0000,  0.0000)
  53 Li     8.753284    1.744993   18.642935    ( 0.0000,  0.0000,  0.0000)
  54 Li     6.980002    0.070614   20.485685    ( 0.0000,  0.0000,  0.0000)
  55 Li     9.117601    1.744990   22.334388    ( 0.0000,  0.0000,  0.0000)
  56 Li     6.980000    3.490000   10.000000    ( 0.0000,  0.0000,  0.0000)
  57 Li     8.725000    5.235000   11.745000    ( 0.0000,  0.0000,  0.0000)
  58 Li     6.980000    3.490000   13.490000    ( 0.0000,  0.0000,  0.0000)
  59 Li     8.725000    5.235000   15.235000    ( 0.0000,  0.0000,  0.0000)
  60 Li     6.980004    3.464070   16.946464    ( 0.0000,  0.0000,  0.0000)
  61 Li     8.652745    5.307286   18.619676    ( 0.0000,  0.0000,  0.0000)
  62 Li     6.980001    3.419382   20.485685    ( 0.0000,  0.0000,  0.0000)
  63 Li     8.714653    5.245323   22.286400    ( 0.0000,  0.0000,  0.0000)
  64 Li     6.980000    6.980000   10.000000    ( 0.0000,  0.0000,  0.0000)
  65 Li     8.725000    8.725000   11.745000    ( 0.0000,  0.0000,  0.0000)
  66 Li     6.980000    6.980000   13.490000    ( 0.0000,  0.0000,  0.0000)
  67 Li     8.725000    8.725000   15.235000    ( 0.0000,  0.0000,  0.0000)
  68 Li     6.980006    6.980006   16.811156    ( 0.0000,  0.0000,  0.0000)
  69 Li     8.652727    8.652727   18.619672    ( 0.0000,  0.0000,  0.0000)
  70 Li     6.980001    6.980001   20.483290    ( 0.0000,  0.0000,  0.0000)
  71 Li     8.714659    8.714659   22.286404    ( 0.0000,  0.0000,  0.0000)
  72 Li     1.745001    1.745001   23.980812    ( 0.0000,  0.0000,  0.0000)

Unit cell:
           periodic     x           y           z      points  spacing
  1. axis:    yes   10.470000    0.000000    0.000000    49     0.2137
  2. axis:    yes    0.000000   10.470000    0.000000    49     0.2137
  3. axis:    no     0.000000    0.000000   32.215000   150     0.2148

  Lengths:  10.470000  10.470000  32.215000
  Angles:   90.000000  90.000000  90.000000

Effective grid spacing dv^(1/3) = 0.2140

     iter     time        total  log10-change:
                         energy   eigst   dens
iter:   1 07:41:39  -137.680840
iter:   2 07:41:44  -133.288734   -0.73  -0.65
iter:   3 07:41:50  -132.871750   -1.22  -0.85
iter:   4 07:41:56  -132.922076   -1.55  -0.90
iter:   5 07:42:01  -131.945086   -1.75  -0.89
iter:   6 07:42:07  -132.303311   -1.33  -1.09
iter:   7 07:42:13  -131.584342   -2.18  -1.05
iter:   8 07:42:19  -131.655004   -1.55  -1.25
iter:   9 07:42:25  -131.434075   -2.59  -1.31
iter:  10 07:42:31  -131.434870   -2.73  -1.54
iter:  11 07:42:37  -131.434300c  -2.99  -1.59
iter:  12 07:42:43  -131.426924c  -3.18  -1.63
iter:  13 07:42:48  -131.459149c  -2.71  -1.71
iter:  14 07:42:54  -131.424170c  -3.47  -1.71
iter:  15 07:43:00  -131.421005   -3.28  -1.99
iter:  16 07:43:06  -131.420426c  -3.42  -2.26
iter:  17 07:43:12  -131.414458c  -3.82  -2.09
iter:  18 07:43:18  -131.415940c  -4.15  -2.57
iter:  19 07:43:24  -131.417059c  -4.34  -2.54
iter:  20 07:43:30  -131.413559c  -4.06  -2.43
iter:  21 07:43:35  -131.413817c  -5.02  -2.70
iter:  22 07:43:41  -131.414546c  -4.57  -2.85
iter:  23 07:43:47  -131.413399c  -4.69  -2.80
iter:  24 07:43:53  -131.413107c  -5.15  -2.95
iter:  25 07:43:59  -131.413184c  -5.08  -2.93
iter:  26 07:44:04  -131.413606c  -4.77  -3.05
iter:  27 07:44:10  -131.412884c  -5.16  -3.00
iter:  28 07:44:16  -131.412947c  -5.82c -3.35
iter:  29 07:44:22  -131.413132c  -5.50c -3.46
iter:  30 07:44:28  -131.412898c  -5.46c -3.45
iter:  31 07:44:34  -131.412922c  -5.68c -3.65
iter:  32 07:44:40  -131.412903c  -5.59c -3.71
iter:  33 07:44:45  -131.412928c  -5.72c -3.82
iter:  34 07:44:51  -131.412835c  -5.45c -3.87
iter:  35 07:44:57  -131.412825c  -6.18c -4.06c

Converged after 35 iterations.

Dipole moment: (2.868295, 2.868295, 0.276733) |e|*Ang

Energy contributions relative to reference atoms: (reference = -14803.510878)

Kinetic:       +101.838216
Potential:      -91.647748
External:        +0.000000
XC:            -140.515779
Entropy (-ST):   -1.209750
Local:           -0.482638
SIC:             +0.000000
--------------------------
Free energy:   -132.017700
Extrapolated:  -131.412825

Showing all kpts
 Kpt  Band  Eigenvalues  Occupancy
  0    34     -1.58388    1.61165
  0    35     -1.56826    1.56042
  0    36     -1.38681    0.73287
  0    37     -1.34569    0.55427

  1    34     -1.58388    1.61166
  1    35     -1.56826    1.56042
  1    36     -1.38681    0.73288
  1    37     -1.34570    0.55427


Fermi level: -1.44157

Gap: 0.181 eV
Transition (v -> c):
  (s=0, k=1, n=35, [0.25, 0.25, 0.00]) -> (s=0, k=1, n=36, [0.25, 0.25, 0.00])
No difference between direct/indirect transitions
Timing:                              incl.     excl.
-----------------------------------------------------------
Hamiltonian:                         1.442     0.004   0.0% |
 Atomic:                             0.393     0.001   0.0% |
  XC Correction:                     0.392     0.392   0.2% |
 Calculate atomic Hamiltonians:      0.782     0.782   0.3% |
 Communicate:                        0.000     0.000   0.0% |
 Initialize Hamiltonian:             0.000     0.000   0.0% |
 Poisson:                            0.002     0.002   0.0% |
 XC 3D grid:                         0.260     0.260   0.1% |
LCAO initialization:                18.775     0.003   0.0% |
 LCAO eigensolver:                   0.506     0.000   0.0% |
  Calculate projections:             0.002     0.002   0.0% |
  DenseAtomicCorrection:             0.028     0.028   0.0% |
  Distribute overlap matrix:         0.000     0.000   0.0% |
  Orbital Layouts:                   0.048     0.048   0.0% |
  Potential matrix:                  0.426     0.426   0.2% |
  Sum over cells:                    0.002     0.002   0.0% |
 LCAO to grid:                      17.852    17.852   8.0% |--|
 Set positions (LCAO WFS):           0.414     0.106   0.0% |
  Basic WFS set positions:           0.001     0.001   0.0% |
  Basis functions set positions:     0.000     0.000   0.0% |
  P tci:                             0.193     0.193   0.1% |
  ST tci:                            0.104     0.104   0.0% |
  mktci:                             0.011     0.011   0.0% |
PWDescriptor:                        0.013     0.013   0.0% |
SCF-cycle:                         201.766     0.013   0.0% |
 Davidson:                         119.750    24.036  10.7% |---|
  Apply H:                          20.288    20.084   9.0% |---|
   HMM T:                            0.203     0.203   0.1% |
  Subspace diag:                    23.193     0.004   0.0% |
   calc_h_matrix:                   21.261     1.471   0.7% |
    Apply H:                        19.789    19.588   8.7% |--|
     HMM T:                          0.202     0.202   0.1% |
   diagonalize:                      0.034     0.034   0.0% |
   rotate_psi:                       1.894     1.894   0.8% |
  calc. matrices:                   48.077     7.276   3.2% ||
   Apply H:                         40.801    40.391  18.0% |------|
    HMM T:                           0.410     0.410   0.2% |
  diagonalize:                       0.260     0.260   0.1% |
  rotate_psi:                        3.897     3.897   1.7% ||
 Density:                           32.285     0.000   0.0% |
  Atomic density matrices:           0.063     0.063   0.0% |
  Mix:                              21.766    21.766   9.7% |---|
  Multipole moments:                 0.012     0.012   0.0% |
  Pseudo density:                   10.444    10.332   4.6% |-|
   Symmetrize density:               0.112     0.112   0.0% |
 Hamiltonian:                       49.515     0.104   0.0% |
  Atomic:                           13.664     0.048   0.0% |
   XC Correction:                   13.615    13.615   6.1% |-|
  Calculate atomic Hamiltonians:    26.490    26.490  11.8% |----|
  Communicate:                       0.000     0.000   0.0% |
  Poisson:                           0.078     0.078   0.0% |
  XC 3D grid:                        9.179     9.179   4.1% |-|
 Orthonormalize:                     0.203     0.000   0.0% |
  calc_s_matrix:                     0.020     0.020   0.0% |
  inverse-cholesky:                  0.000     0.000   0.0% |
  projections:                       0.154     0.154   0.1% |
  rotate_psi_s:                      0.028     0.028   0.0% |
Set symmetry:                        0.000     0.000   0.0% |
Other:                               2.390     2.390   1.1% |
-----------------------------------------------------------
Total:                                       224.387 100.0%

Memory usage: 7.24 GiB
Date: Tue Nov 25 07:44:57 2025
