
  ___ ___ ___ _ _ _  
 |   |   |_  | | | | 
 | | | | | . | | | | 
 |__ |  _|___|_____|  25.7.0
 |___|_|             

User:   tew@Mathuss-MacBook-Air-357.local
Date:   Tue Nov 25 07:32:29 2025
Arch:   arm64
Pid:    53368
CWD:    /Users/tew/Documents/Project/GitHub/chem-com
Python: 3.13.5
gpaw:   /Users/tew/Documents/Project/GitHub/chem-com/.venv/lib/python3.13/site-packages/gpaw
_gpaw:  /Users/tew/Documents/Project/GitHub/chem-com/.venv/lib/python3.13/site-packages/
        _gpaw.cpython-313-darwin.so
ase:    /Users/tew/Documents/Project/GitHub/chem-com/.venv/lib/python3.13/site-packages/ase (version 3.26.0)
numpy:  /Users/tew/Documents/Project/GitHub/chem-com/.venv/lib/python3.13/site-packages/numpy (version 2.3.5)
scipy:  /Users/tew/Documents/Project/GitHub/chem-com/.venv/lib/python3.13/site-packages/scipy (version 1.16.3)
libxc:  2.x.y
units:  Angstrom and eV
cores: 1
OpenMP: False
OMP_NUM_THREADS: 1

Input parameters:
  convergence: {density: 0.0001,
                eigenstates: 5e-06}
  kpts: [3 3 1]
  mode: {ecut: 300.0,
         name: pw}
  xc: PBE

System changes: positions, numbers, cell, pbc, initial_charges, initial_magmoms 

Initialize ...

species:
  Li:
    name: Lithium
    id: 830b4218f175192f93f959cfc0aad614
    Z: 3.0
    valence: 1
    core: 2
    charge: 0.0
    file: /Users/tew/Documents/Project/GitHub/chem-com/.venv/lib/python3.13/site-packages/gpaw_data/setups/Li.PBE.gz
    compensation charges: {type: gauss,
                           rc: 0.33,
                           lmax: 2}
    cutoffs: {filter: 1.91,
              core: 2.55}
    projectors:
      #              energy  rcut
      - 2s(1.00)    -2.874   1.058
      - 2p(0.00)    -1.090   1.058
      -  s          24.337   1.058
  
    # Using partial waves for Li as LCAO basis

Reference energy: -14803.510878  # eV

Spin-paired calculation

Convergence criteria:
 Maximum [total energy] change in last 3 cyles: 0.0005 eV / valence electron
 Maximum integral of absolute [dens]ity change: 0.0001 electrons / valence electron
 Maximum integral of absolute [eigenst]ate change: 5e-06 eV^2 / valence electron
 Maximum number of scf [iter]ations: 333
 (Square brackets indicate name in SCF output, whereas a 'c' in
 the SCF output indicates the quantity has converged.)

Symmetries present (total): 2

  ( 1  0  0)  ( 0  1  0)
  ( 0  1  0)  ( 1  0  0)
  ( 0  0  1)  ( 0  0  1)

9 k-points: 3 x 3 x 1 Monkhorst-Pack grid
4 k-points in the irreducible part of the Brillouin zone
       k-points in crystal coordinates                weights
   0:     0.00000000    0.00000000    0.00000000          1/9
   1:     0.33333333   -0.33333333    0.00000000          2/9
   2:     0.33333333    0.00000000    0.00000000          4/9
   3:     0.33333333    0.33333333    0.00000000          2/9

Wave functions: Plane wave expansion
  Cutoff energy: 300.000 eV
  Number of coefficients (min, max): 41587, 41738
  Pulay-stress correction: 0.000000 eV/Ang^3 (de/decut=0.000000)
  Using Numpy's FFT
  ScaLapack parameters: grid=1x1, blocksize=None
  Wavefunction extrapolation:
    Improved wavefunction reuse through dual PAW basis 

Occupation numbers: Fermi-Dirac:
  width: 0.1000  # eV
 

Eigensolver
   Davidson(niter=2) 

Densities:
  Coarse grid: 42*42*135 grid
  Fine grid: 84*84*270 grid
  Total Charge: 0.000000 

Density mixing:
  Method: separate
  Backend: pulay
  Linear mixing parameter: 0.05
  old densities: 5
  Damping of long wavelength oscillations: 50 

Hamiltonian:
  XC and Coulomb potentials evaluated on a 84*84*270 grid
  Using the PBE Exchange-Correlation functional
  External potential:
    NoExternalPotential
 

XC parameters: PBE with 2 nearest neighbor stencil

Memory estimate:
  Process memory now: 7411.14 MiB
  Calculator: 319.24 MiB
    Density: 109.47 MiB
      Arrays: 47.24 MiB
      Localized functions: 44.06 MiB
      Mixer: 18.17 MiB
    Hamiltonian: 31.79 MiB
      Arrays: 30.89 MiB
      XC: 0.00 MiB
      Poisson: 0.00 MiB
      vbar: 0.90 MiB
    Wavefunctions: 177.99 MiB
      Arrays psit_nG: 122.28 MiB
      Eigensolver: 34.11 MiB
      Projections: 1.07 MiB
      Projectors: 8.90 MiB
      PW-descriptor: 11.63 MiB

Total number of cores used: 1

Number of atoms: 73
Number of atomic orbitals: 292
Number of bands in calculation: 48
Number of valence electrons: 73
Bands to converge: occupied

... initialized

Initializing position-dependent things.

Density initialized from atomic densities
Creating initial wave functions:
  48 bands from LCAO basis set

       .-------------------------.  
      /|                         |  
     / |                         |  
    /  |                         |  
   /   |                         |  
  /    |                         |  
 *     |                         |  
 |     |                         |  
 |     |                         |  
 |     |                         |  
 |     |                         |  
 |     |                         |  
 |     |                         |  
 |     |   Li      Li       Li   |  
 |     |                         |  
 |    LiLi      LLi       Li     Li 
 |     |                         |  
 |   Li|     LLi      Li Li      |  
 |    Li  Li       Li      Li    |  
 |     |    Li  Li  Li       Li  Li 
 |     |Li       Li       Li     |  
 |   Li|      Li  Li  Li         |  
 |    Li  Li   Li  Li   Li  Li   |  
 |     |    Li      Li       Li  |  
 |     |Li       Li       Li     |  
 |   Li|      Li  Li  Li         |  
 |    Li  Li   Li  Li   Li  Li   |  
 | Li  |    Li      Li           |  
 |     |Li       Li       Li     |  
 Li    |  Li      Li             |  
 |   LLi      LLi     LiLi       |  
 |     |                         |  
 | Li  |    Li      Li           |  
 |     |                         |  
 Li    |  Li      Li             |  
 |     |                         |  
 |     |                         |  
 |     |                         |  
 |     |                         |  
 |     |                         |  
 |     .-------------------------.  
 |    /                         /   
 |   /                         /    
 |  /                         /     
 | /                         /      
 |/                         /       
 *-------------------------*        

Atomic positions and initial magnetic moments

Positions:
   0 Li     0.000000    0.000000   10.000000    ( 0.0000,  0.0000,  0.0000)
   1 Li     1.745000    1.745000   11.745000    ( 0.0000,  0.0000,  0.0000)
   2 Li     0.000000    0.000000   13.490000    ( 0.0000,  0.0000,  0.0000)
   3 Li     1.745000    1.745000   15.235000    ( 0.0000,  0.0000,  0.0000)
   4 Li    -0.027474   -0.027474   16.914363    ( 0.0000,  0.0000,  0.0000)
   5 Li     1.744998    1.744998   18.521758    ( 0.0000,  0.0000,  0.0000)
   6 Li    -0.125293   -0.125293   20.322972    ( 0.0000,  0.0000,  0.0000)
   7 Li     1.745009    1.745009   21.396961    ( 0.0000,  0.0000,  0.0000)
   8 Li     0.000000    3.490000   10.000000    ( 0.0000,  0.0000,  0.0000)
   9 Li     1.745000    5.235000   11.745000    ( 0.0000,  0.0000,  0.0000)
  10 Li     0.000000    3.490000   13.490000    ( 0.0000,  0.0000,  0.0000)
  11 Li     1.745000    5.235000   15.235000    ( 0.0000,  0.0000,  0.0000)
  12 Li    -0.027468    3.517462   16.914361    ( 0.0000,  0.0000,  0.0000)
  13 Li     1.744994    5.206698   18.642926    ( 0.0000,  0.0000,  0.0000)
  14 Li    -0.125295    3.615282   20.322964    ( 0.0000,  0.0000,  0.0000)
  15 Li     1.744991    4.842415   22.334383    ( 0.0000,  0.0000,  0.0000)
  16 Li     0.000000    6.980000   10.000000    ( 0.0000,  0.0000,  0.0000)
  17 Li     1.745000    8.725000   11.745000    ( 0.0000,  0.0000,  0.0000)
  18 Li     0.000000    6.980000   13.490000    ( 0.0000,  0.0000,  0.0000)
  19 Li     1.745000    8.725000   15.235000    ( 0.0000,  0.0000,  0.0000)
  20 Li     0.025936    6.980004   16.946447    ( 0.0000,  0.0000,  0.0000)
  21 Li     1.744993    8.753284   18.642935    ( 0.0000,  0.0000,  0.0000)
  22 Li     0.070614    6.980002   20.485685    ( 0.0000,  0.0000,  0.0000)
  23 Li     1.744990    9.117601   22.334388    ( 0.0000,  0.0000,  0.0000)
  24 Li     3.490000    0.000000   10.000000    ( 0.0000,  0.0000,  0.0000)
  25 Li     5.235000    1.745000   11.745000    ( 0.0000,  0.0000,  0.0000)
  26 Li     3.490000    0.000000   13.490000    ( 0.0000,  0.0000,  0.0000)
  27 Li     5.235000    1.745000   15.235000    ( 0.0000,  0.0000,  0.0000)
  28 Li     3.517462   -0.027468   16.914361    ( 0.0000,  0.0000,  0.0000)
  29 Li     5.206698    1.744994   18.642926    ( 0.0000,  0.0000,  0.0000)
  30 Li     3.615282   -0.125295   20.322964    ( 0.0000,  0.0000,  0.0000)
  31 Li     4.842415    1.744991   22.334383    ( 0.0000,  0.0000,  0.0000)
  32 Li     3.490000    3.490000   10.000000    ( 0.0000,  0.0000,  0.0000)
  33 Li     5.235000    5.235000   11.745000    ( 0.0000,  0.0000,  0.0000)
  34 Li     3.490000    3.490000   13.490000    ( 0.0000,  0.0000,  0.0000)
  35 Li     5.235000    5.235000   15.235000    ( 0.0000,  0.0000,  0.0000)
  36 Li     3.517458    3.517458   16.914364    ( 0.0000,  0.0000,  0.0000)
  37 Li     5.307269    5.307269   18.619679    ( 0.0000,  0.0000,  0.0000)
  38 Li     3.615285    3.615285   20.322959    ( 0.0000,  0.0000,  0.0000)
  39 Li     5.245324    5.245324   22.286398    ( 0.0000,  0.0000,  0.0000)
  40 Li     3.490000    6.980000   10.000000    ( 0.0000,  0.0000,  0.0000)
  41 Li     5.235000    8.725000   11.745000    ( 0.0000,  0.0000,  0.0000)
  42 Li     3.490000    6.980000   13.490000    ( 0.0000,  0.0000,  0.0000)
  43 Li     5.235000    8.725000   15.235000    ( 0.0000,  0.0000,  0.0000)
  44 Li     3.464070    6.980004   16.946464    ( 0.0000,  0.0000,  0.0000)
  45 Li     5.307286    8.652745   18.619676    ( 0.0000,  0.0000,  0.0000)
  46 Li     3.419382    6.980001   20.485685    ( 0.0000,  0.0000,  0.0000)
  47 Li     5.245323    8.714653   22.286400    ( 0.0000,  0.0000,  0.0000)
  48 Li     6.980000    0.000000   10.000000    ( 0.0000,  0.0000,  0.0000)
  49 Li     8.725000    1.745000   11.745000    ( 0.0000,  0.0000,  0.0000)
  50 Li     6.980000    0.000000   13.490000    ( 0.0000,  0.0000,  0.0000)
  51 Li     8.725000    1.745000   15.235000    ( 0.0000,  0.0000,  0.0000)
  52 Li     6.980004    0.025936   16.946447    ( 0.0000,  0.0000,  0.0000)
  53 Li     8.753284    1.744993   18.642935    ( 0.0000,  0.0000,  0.0000)
  54 Li     6.980002    0.070614   20.485685    ( 0.0000,  0.0000,  0.0000)
  55 Li     9.117601    1.744990   22.334388    ( 0.0000,  0.0000,  0.0000)
  56 Li     6.980000    3.490000   10.000000    ( 0.0000,  0.0000,  0.0000)
  57 Li     8.725000    5.235000   11.745000    ( 0.0000,  0.0000,  0.0000)
  58 Li     6.980000    3.490000   13.490000    ( 0.0000,  0.0000,  0.0000)
  59 Li     8.725000    5.235000   15.235000    ( 0.0000,  0.0000,  0.0000)
  60 Li     6.980004    3.464070   16.946464    ( 0.0000,  0.0000,  0.0000)
  61 Li     8.652745    5.307286   18.619676    ( 0.0000,  0.0000,  0.0000)
  62 Li     6.980001    3.419382   20.485685    ( 0.0000,  0.0000,  0.0000)
  63 Li     8.714653    5.245323   22.286400    ( 0.0000,  0.0000,  0.0000)
  64 Li     6.980000    6.980000   10.000000    ( 0.0000,  0.0000,  0.0000)
  65 Li     8.725000    8.725000   11.745000    ( 0.0000,  0.0000,  0.0000)
  66 Li     6.980000    6.980000   13.490000    ( 0.0000,  0.0000,  0.0000)
  67 Li     8.725000    8.725000   15.235000    ( 0.0000,  0.0000,  0.0000)
  68 Li     6.980006    6.980006   16.811156    ( 0.0000,  0.0000,  0.0000)
  69 Li     8.652727    8.652727   18.619672    ( 0.0000,  0.0000,  0.0000)
  70 Li     6.980001    6.980001   20.483290    ( 0.0000,  0.0000,  0.0000)
  71 Li     8.714659    8.714659   22.286404    ( 0.0000,  0.0000,  0.0000)
  72 Li     1.745001    1.745001   23.980812    ( 0.0000,  0.0000,  0.0000)

Unit cell:
           periodic     x           y           z      points  spacing
  1. axis:    yes   10.470000    0.000000    0.000000    42     0.2493
  2. axis:    yes    0.000000   10.470000    0.000000    42     0.2493
  3. axis:    no     0.000000    0.000000   32.215000   135     0.2386

  Lengths:  10.470000  10.470000  32.215000
  Angles:   90.000000  90.000000  90.000000

Effective grid spacing dv^(1/3) = 0.2457

     iter     time        total  log10-change:
                         energy   eigst   dens
iter:   1 07:33:01  -138.365208
iter:   2 07:33:07  -133.942863   -0.77  -0.65
iter:   3 07:33:13  -133.381899   -1.29  -0.84
iter:   4 07:33:20  -133.173791   -1.61  -0.89
iter:   5 07:33:26  -132.221339   -1.87  -0.93
iter:   6 07:33:33  -134.588568   -0.90  -1.09
iter:   7 07:33:39  -131.760382   -1.54  -0.78
iter:   8 07:33:46  -131.952644   -1.65  -1.27
iter:   9 07:33:52  -131.787524   -2.68  -1.33
iter:  10 07:33:59  -131.756232   -3.11  -1.50
iter:  11 07:34:05  -131.765800c  -2.89  -1.56
iter:  12 07:34:12  -131.749346c  -3.35  -1.65
iter:  13 07:34:19  -131.747898c  -3.80  -1.83
iter:  14 07:34:26  -131.744067c  -3.87  -1.98
iter:  15 07:34:32  -131.750977c  -3.65  -2.08
iter:  16 07:34:39  -131.740815c  -4.04  -2.08
iter:  17 07:34:45  -131.739960c  -4.72  -2.35
iter:  18 07:34:52  -131.740255c  -4.95  -2.53
iter:  19 07:34:59  -131.740636c  -5.06  -2.70
iter:  20 07:35:05  -131.740403c  -5.50c -2.81
iter:  21 07:35:11  -131.740349c  -5.61c -2.89
iter:  22 07:35:18  -131.740255c  -5.57c -3.01
iter:  23 07:35:24  -131.740294c  -5.80c -3.18
iter:  24 07:35:31  -131.740336c  -5.88c -3.25
iter:  25 07:35:37  -131.740394c  -6.01c -3.39
iter:  26 07:35:44  -131.740345c  -6.21c -3.58
iter:  27 07:35:50  -131.740260c  -5.94c -3.66
iter:  28 07:35:56  -131.740278c  -6.05c -3.73
iter:  29 07:36:03  -131.740277c  -6.29c -3.85
iter:  30 07:36:10  -131.740229c  -6.16c -3.95
iter:  31 07:36:16  -131.740208c  -5.77c -4.04c

Converged after 31 iterations.

Dipole moment: (2.869825, 2.869825, 0.275569) |e|*Ang

Energy contributions relative to reference atoms: (reference = -14803.510878)

Kinetic:       +102.291339
Potential:      -92.307398
External:        +0.000000
XC:            -140.653071
Entropy (-ST):   -1.210498
Local:           -0.465829
SIC:             +0.000000
--------------------------
Free energy:   -132.345457
Extrapolated:  -131.740208

Showing only first 2 kpts
 Kpt  Band  Eigenvalues  Occupancy
  0    34     -1.39886    0.76902
  0    35     -1.39886    0.76901
  0    36     -1.36591    0.62010
  0    37     -1.31357    0.42052

  1    34     -1.51620    1.33770
  1    35     -1.50107    1.26903
  1    36     -1.49679    1.24910
  1    37     -1.43719    0.95648


Fermi level: -1.44590

No gap
No difference between direct/indirect transitions
Timing:                              incl.     excl.
-----------------------------------------------------------
Hamiltonian:                         1.081     0.002   0.0% |
 Atomic:                             0.395     0.001   0.0% |
  XC Correction:                     0.394     0.394   0.2% |
 Calculate atomic Hamiltonians:      0.511     0.511   0.2% |
 Communicate:                        0.000     0.000   0.0% |
 Initialize Hamiltonian:             0.000     0.000   0.0% |
 Poisson:                            0.001     0.001   0.0% |
 XC 3D grid:                         0.172     0.172   0.1% |
LCAO initialization:                24.592     0.003   0.0% |
 LCAO eigensolver:                   0.442     0.000   0.0% |
  Calculate projections:             0.004     0.004   0.0% |
  DenseAtomicCorrection:             0.057     0.057   0.0% |
  Distribute overlap matrix:         0.000     0.000   0.0% |
  Orbital Layouts:                   0.095     0.095   0.0% |
  Potential matrix:                  0.282     0.282   0.1% |
  Sum over cells:                    0.003     0.003   0.0% |
 LCAO to grid:                      23.505    23.505  10.4% |---|
 Set positions (LCAO WFS):           0.643     0.144   0.1% |
  Basic WFS set positions:           0.001     0.001   0.0% |
  Basis functions set positions:     0.000     0.000   0.0% |
  P tci:                             0.367     0.367   0.2% |
  ST tci:                            0.119     0.119   0.1% |
  mktci:                             0.011     0.011   0.0% |
PWDescriptor:                        0.014     0.014   0.0% |
SCF-cycle:                         199.560     0.017   0.0% |
 Davidson:                         141.844    27.852  12.3% |----|
  Apply H:                          24.221    23.987  10.6% |---|
   HMM T:                            0.234     0.234   0.1% |
  Subspace diag:                    27.951     0.008   0.0% |
   calc_h_matrix:                   25.689     1.729   0.8% |
    Apply H:                        23.960    23.728  10.5% |---|
     HMM T:                          0.232     0.232   0.1% |
   diagonalize:                      0.062     0.062   0.0% |
   rotate_psi:                       2.192     2.192   1.0% |
  calc. matrices:                   56.899     8.350   3.7% ||
   Apply H:                         48.549    48.082  21.2% |-------|
    HMM T:                           0.467     0.467   0.2% |
  diagonalize:                       0.454     0.454   0.2% |
  rotate_psi:                        4.466     4.466   2.0% ||
 Density:                           24.599     0.000   0.0% |
  Atomic density matrices:           0.075     0.075   0.0% |
  Mix:                              12.355    12.355   5.4% |-|
  Multipole moments:                 0.011     0.011   0.0% |
  Pseudo density:                   12.159    12.093   5.3% |-|
   Symmetrize density:               0.065     0.065   0.0% |
 Hamiltonian:                       32.803     0.060   0.0% |
  Atomic:                           12.071     0.042   0.0% |
   XC Correction:                   12.028    12.028   5.3% |-|
  Calculate atomic Hamiltonians:    15.260    15.260   6.7% |--|
  Communicate:                       0.000     0.000   0.0% |
  Poisson:                           0.044     0.044   0.0% |
  XC 3D grid:                        5.369     5.369   2.4% ||
 Orthonormalize:                     0.297     0.000   0.0% |
  calc_s_matrix:                     0.034     0.034   0.0% |
  inverse-cholesky:                  0.001     0.001   0.0% |
  projections:                       0.218     0.218   0.1% |
  rotate_psi_s:                      0.044     0.044   0.0% |
Set symmetry:                        0.000     0.000   0.0% |
Other:                               1.514     1.514   0.7% |
-----------------------------------------------------------
Total:                                       226.762 100.0%

Memory usage: 7.24 GiB
Date: Tue Nov 25 07:36:16 2025
