
  ___ ___ ___ _ _ _  
 |   |   |_  | | | | 
 | | | | | . | | | | 
 |__ |  _|___|_____|  25.7.0
 |___|_|             

User:   tew@Mathuss-MacBook-Air-357.local
Date:   Tue Nov 25 04:14:41 2025
Arch:   arm64
Pid:    53368
CWD:    /Users/tew/Documents/Project/GitHub/chem-com
Python: 3.13.5
gpaw:   /Users/tew/Documents/Project/GitHub/chem-com/.venv/lib/python3.13/site-packages/gpaw
_gpaw:  /Users/tew/Documents/Project/GitHub/chem-com/.venv/lib/python3.13/site-packages/
        _gpaw.cpython-313-darwin.so
ase:    /Users/tew/Documents/Project/GitHub/chem-com/.venv/lib/python3.13/site-packages/ase (version 3.26.0)
numpy:  /Users/tew/Documents/Project/GitHub/chem-com/.venv/lib/python3.13/site-packages/numpy (version 2.3.5)
scipy:  /Users/tew/Documents/Project/GitHub/chem-com/.venv/lib/python3.13/site-packages/scipy (version 1.16.3)
libxc:  2.x.y
units:  Angstrom and eV
cores: 1
OpenMP: False
OMP_NUM_THREADS: 1

Input parameters:
  convergence: {density: 0.0001,
                eigenstates: 5e-06}
  kpts: [3 3 1]
  mode: {ecut: 500.0,
         name: pw}
  xc: PBE

System changes: positions, numbers, cell, pbc, initial_charges, initial_magmoms 

Initialize ...

species:
  Li:
    name: Lithium
    id: 830b4218f175192f93f959cfc0aad614
    Z: 3.0
    valence: 1
    core: 2
    charge: 0.0
    file: /Users/tew/Documents/Project/GitHub/chem-com/.venv/lib/python3.13/site-packages/gpaw_data/setups/Li.PBE.gz
    compensation charges: {type: gauss,
                           rc: 0.33,
                           lmax: 2}
    cutoffs: {filter: 1.91,
              core: 2.55}
    projectors:
      #              energy  rcut
      - 2s(1.00)    -2.874   1.058
      - 2p(0.00)    -1.090   1.058
      -  s          24.337   1.058
  
    # Using partial waves for Li as LCAO basis

Reference energy: -14803.510878  # eV

Spin-paired calculation

Convergence criteria:
 Maximum [total energy] change in last 3 cyles: 0.0005 eV / valence electron
 Maximum integral of absolute [dens]ity change: 0.0001 electrons / valence electron
 Maximum integral of absolute [eigenst]ate change: 5e-06 eV^2 / valence electron
 Maximum number of scf [iter]ations: 333
 (Square brackets indicate name in SCF output, whereas a 'c' in
 the SCF output indicates the quantity has converged.)

Symmetries present (total): 2

  ( 1  0  0)  ( 1  0  0)
  ( 0  1  0)  ( 0 -1  0)
  ( 0  0  1)  ( 0  0  1)

9 k-points: 3 x 3 x 1 Monkhorst-Pack grid
4 k-points in the irreducible part of the Brillouin zone
       k-points in crystal coordinates                weights
   0:     0.00000000    0.00000000    0.00000000          1/9
   1:     0.00000000    0.33333333    0.00000000          2/9
   2:     0.33333333    0.00000000    0.00000000          2/9
   3:     0.33333333    0.33333333    0.00000000          4/9

Wave functions: Plane wave expansion
  Cutoff energy: 500.000 eV
  Number of coefficients (min, max): 107693, 107840
  Pulay-stress correction: 0.000000 eV/Ang^3 (de/decut=0.000000)
  Using Numpy's FFT
  ScaLapack parameters: grid=1x1, blocksize=None
  Wavefunction extrapolation:
    Improved wavefunction reuse through dual PAW basis 

Occupation numbers: Fermi-Dirac:
  width: 0.1000  # eV
 

Eigensolver
   Davidson(niter=2) 

Densities:
  Coarse grid: 80*54*144 grid
  Fine grid: 160*108*288 grid
  Total Charge: 0.000000 

Density mixing:
  Method: separate
  Backend: pulay
  Linear mixing parameter: 0.05
  old densities: 5
  Damping of long wavelength oscillations: 50 

Hamiltonian:
  XC and Coulomb potentials evaluated on a 160*108*288 grid
  Using the PBE Exchange-Correlation functional
  External potential:
    NoExternalPotential
 

XC parameters: PBE with 2 nearest neighbor stencil

Memory estimate:
  Process memory now: 3530.98 MiB
  Calculator: 825.81 MiB
    Density: 284.89 MiB
      Arrays: 123.40 MiB
      Localized functions: 114.03 MiB
      Mixer: 47.46 MiB
    Hamiltonian: 83.01 MiB
      Arrays: 80.68 MiB
      XC: 0.00 MiB
      Poisson: 0.00 MiB
      vbar: 2.33 MiB
    Wavefunctions: 457.91 MiB
      Arrays psit_nG: 315.94 MiB
      Eigensolver: 87.56 MiB
      Projections: 1.07 MiB
      Projectors: 23.03 MiB
      PW-descriptor: 30.31 MiB

Total number of cores used: 1

Number of atoms: 73
Number of atomic orbitals: 292
Number of bands in calculation: 48
Number of valence electrons: 73
Bands to converge: occupied

... initialized

Initializing position-dependent things.

Density initialized from atomic densities
Creating initial wave functions:
  48 bands from LCAO basis set

       .-----------------------------------.  
      /|                                   |  
     / |                                   |  
    /  |                                   |  
   /   |                                   |  
  /    |                                   |  
 *     |                                   |  
 |     |                                   |  
 |     |                                   |  
 |     |                                   |  
 |     |                                   |  
 |     |                                   |  
 |     |                                   |  
 |    Li          Li                       |  
 |     |   Li                 Li           |  
 |     |               Li          Li      |  
 |  Li Li       Li          Li             |  
 |Li   | Li LiLi Li  Li Li       Li Li   Li|  
 |     |  Li              Li Li            |  
 |     Li      Li  Li Li       Li Li   Li  |  
 |    Li          Li       Li Li           |  
 |     |Li Li       Li Li       Li Li      |  
 Li Li |     Li Li       Li Li             |  
 |     | Li Li       Li Li       Li Li     |  
 |Li Li|      Li Li       Li Li            |  
 |     Li Li       Li Li       Li Li       |  
 | Li  |       Li          Li              |  
 |     |Li          Li          Li         |  
 Li    |     Li          Li                |  
 |     |                                   |  
 |     |                                   |  
 |     |                                   |  
 |     |                                   |  
 |     |                                   |  
 |     .-----------------------------------.  
 |    /                                   /   
 |   /                                   /    
 |  /                                   /     
 | /                                   /      
 |/                                   /       
 *-----------------------------------*        

Atomic positions and initial magnetic moments

Positions:
   0 Li     0.000000    0.000000   10.000000    ( 0.0000,  0.0000,  0.0000)
   1 Li     2.467803    1.745000   10.000000    ( 0.0000,  0.0000,  0.0000)
   2 Li     2.467803    0.000000   12.467803    ( 0.0000,  0.0000,  0.0000)
   3 Li     0.000000    1.745000   12.467803    ( 0.0000,  0.0000,  0.0000)
   4 Li     0.027026    0.000000   14.859733    ( 0.0000,  0.0000,  0.0000)
   5 Li     2.467802    1.835552   14.730330    ( 0.0000,  0.0000,  0.0000)
   6 Li     2.467800    0.000000   16.720248    ( 0.0000,  0.0000,  0.0000)
   7 Li     0.130515    1.592995   17.431671    ( 0.0000,  0.0000,  0.0000)
   8 Li     0.000000    3.490000   10.000000    ( 0.0000,  0.0000,  0.0000)
   9 Li     2.467803    5.235000   10.000000    ( 0.0000,  0.0000,  0.0000)
  10 Li     2.467803    3.490000   12.467803    ( 0.0000,  0.0000,  0.0000)
  11 Li     0.000000    5.235000   12.467803    ( 0.0000,  0.0000,  0.0000)
  12 Li    -0.018360    3.427806   14.968943    ( 0.0000,  0.0000,  0.0000)
  13 Li     2.467801    5.235000   14.992803    ( 0.0000,  0.0000,  0.0000)
  14 Li     2.467800    3.345913   17.324220    ( 0.0000,  0.0000,  0.0000)
  15 Li     0.071353    5.235000   17.261301    ( 0.0000,  0.0000,  0.0000)
  16 Li     0.000000    6.980000   10.000000    ( 0.0000,  0.0000,  0.0000)
  17 Li     2.467803    8.725000   10.000000    ( 0.0000,  0.0000,  0.0000)
  18 Li     2.467803    6.980000   12.467803    ( 0.0000,  0.0000,  0.0000)
  19 Li     0.000000    8.725000   12.467803    ( 0.0000,  0.0000,  0.0000)
  20 Li    -0.018360    7.042194   14.968943    ( 0.0000,  0.0000,  0.0000)
  21 Li     2.467802    8.634448   14.730330    ( 0.0000,  0.0000,  0.0000)
  22 Li     2.467800    7.124087   17.324220    ( 0.0000,  0.0000,  0.0000)
  23 Li     0.130515    8.877005   17.431671    ( 0.0000,  0.0000,  0.0000)
  24 Li     4.935605    0.000000   10.000000    ( 0.0000,  0.0000,  0.0000)
  25 Li     7.403408    1.745000   10.000000    ( 0.0000,  0.0000,  0.0000)
  26 Li     7.403408    0.000000   12.467803    ( 0.0000,  0.0000,  0.0000)
  27 Li     4.935605    1.745000   12.467803    ( 0.0000,  0.0000,  0.0000)
  28 Li     4.908581   -0.000000   14.859733    ( 0.0000,  0.0000,  0.0000)
  29 Li     7.407952    1.733155   14.894146    ( 0.0000,  0.0000,  0.0000)
  30 Li     7.343077    0.000000   17.259968    ( 0.0000,  0.0000,  0.0000)
  31 Li     4.805087    1.592996   17.431670    ( 0.0000,  0.0000,  0.0000)
  32 Li     4.935605    3.490000   10.000000    ( 0.0000,  0.0000,  0.0000)
  33 Li     7.403408    5.235000   10.000000    ( 0.0000,  0.0000,  0.0000)
  34 Li     7.403408    3.490000   12.467803    ( 0.0000,  0.0000,  0.0000)
  35 Li     4.935605    5.235000   12.467803    ( 0.0000,  0.0000,  0.0000)
  36 Li     4.953965    3.427806   14.968943    ( 0.0000,  0.0000,  0.0000)
  37 Li     7.395513    5.235000   14.900339    ( 0.0000,  0.0000,  0.0000)
  38 Li     7.324769    3.445557   17.244331    ( 0.0000,  0.0000,  0.0000)
  39 Li     4.864248    5.235000   17.261301    ( 0.0000,  0.0000,  0.0000)
  40 Li     4.935605    6.980000   10.000000    ( 0.0000,  0.0000,  0.0000)
  41 Li     7.403408    8.725000   10.000000    ( 0.0000,  0.0000,  0.0000)
  42 Li     7.403408    6.980000   12.467803    ( 0.0000,  0.0000,  0.0000)
  43 Li     4.935605    8.725000   12.467803    ( 0.0000,  0.0000,  0.0000)
  44 Li     4.953965    7.042194   14.968943    ( 0.0000,  0.0000,  0.0000)
  45 Li     7.407952    8.736845   14.894146    ( 0.0000,  0.0000,  0.0000)
  46 Li     7.324769    7.024443   17.244331    ( 0.0000,  0.0000,  0.0000)
  47 Li     4.805087    8.877004   17.431670    ( 0.0000,  0.0000,  0.0000)
  48 Li     9.871211    0.000000   10.000000    ( 0.0000,  0.0000,  0.0000)
  49 Li    12.339013    1.745000   10.000000    ( 0.0000,  0.0000,  0.0000)
  50 Li    12.339013    0.000000   12.467803    ( 0.0000,  0.0000,  0.0000)
  51 Li     9.871211    1.745000   12.467803    ( 0.0000,  0.0000,  0.0000)
  52 Li     9.871212    0.000000   14.900257    ( 0.0000,  0.0000,  0.0000)
  53 Li    12.334473    1.733154   14.894145    ( 0.0000,  0.0000,  0.0000)
  54 Li    12.399345    0.000000   17.259968    ( 0.0000,  0.0000,  0.0000)
  55 Li     9.871212    1.735882   17.228811    ( 0.0000,  0.0000,  0.0000)
  56 Li     9.871211    3.490000   10.000000    ( 0.0000,  0.0000,  0.0000)
  57 Li    12.339013    5.235000   10.000000    ( 0.0000,  0.0000,  0.0000)
  58 Li    12.339013    3.490000   12.467803    ( 0.0000,  0.0000,  0.0000)
  59 Li     9.871211    5.235000   12.467803    ( 0.0000,  0.0000,  0.0000)
  60 Li     9.871212    3.485791   14.893574    ( 0.0000,  0.0000,  0.0000)
  61 Li    12.346911    5.235000   14.900337    ( 0.0000,  0.0000,  0.0000)
  62 Li    12.417655    3.445556   17.244332    ( 0.0000,  0.0000,  0.0000)
  63 Li     9.871212    5.235000   17.231554    ( 0.0000,  0.0000,  0.0000)
  64 Li     9.871211    6.980000   10.000000    ( 0.0000,  0.0000,  0.0000)
  65 Li    12.339013    8.725000   10.000000    ( 0.0000,  0.0000,  0.0000)
  66 Li    12.339013    6.980000   12.467803    ( 0.0000,  0.0000,  0.0000)
  67 Li     9.871211    8.725000   12.467803    ( 0.0000,  0.0000,  0.0000)
  68 Li     9.871212    6.984209   14.893574    ( 0.0000,  0.0000,  0.0000)
  69 Li    12.334473    8.736846   14.894145    ( 0.0000,  0.0000,  0.0000)
  70 Li    12.417655    7.024444   17.244332    ( 0.0000,  0.0000,  0.0000)
  71 Li     9.871212    8.734118   17.228811    ( 0.0000,  0.0000,  0.0000)
  72 Li     2.467805   -0.000000   19.322725    ( 0.0000,  0.0000,  0.0000)

Unit cell:
           periodic     x           y           z      points  spacing
  1. axis:    yes   14.806816    0.000000    0.000000    80     0.1851
  2. axis:    yes    0.000000   10.470000    0.000000    54     0.1939
  3. axis:    no     0.000000    0.000000   27.403408   144     0.1903

  Lengths:  14.806816  10.470000  27.403408
  Angles:   90.000000  90.000000  90.000000

Effective grid spacing dv^(1/3) = 0.1897

     iter     time        total  log10-change:
                         energy   eigst   dens
iter:   1 04:16:05  -136.358133
iter:   2 04:16:23  -132.025561   -0.86  -0.56
iter:   3 04:16:41  -130.174021   -0.90  -0.70
iter:   4 04:16:59  -131.553820   -1.20  -0.87
iter:   5 04:17:17  -130.612995   -1.90  -0.80
iter:   6 04:17:35  -129.103979   -1.47  -0.87
iter:   7 04:17:53  -129.111861   -2.14  -1.32
iter:   8 04:18:11  -129.127405c  -2.32  -1.35
iter:   9 04:18:30  -129.088969   -2.78  -1.46
iter:  10 04:18:50  -129.098154   -2.39  -1.61
iter:  11 04:19:10  -129.066486c  -2.81  -1.66
iter:  12 04:19:29  -129.065982c  -3.35  -2.05
iter:  13 04:19:49  -129.065521c  -3.45  -2.20
iter:  14 04:20:08  -129.066357c  -3.72  -2.29
iter:  15 04:20:27  -129.066246c  -3.89  -2.36
iter:  16 04:20:47  -129.066544c  -3.93  -2.46
iter:  17 04:21:06  -129.066842c  -4.11  -2.59
iter:  18 04:21:25  -129.067219c  -4.27  -2.78
iter:  19 04:21:44  -129.066910c  -4.39  -2.90
iter:  20 04:22:03  -129.066868c  -4.68  -3.00
iter:  21 04:22:23  -129.066924c  -4.56  -3.15
iter:  22 04:22:41  -129.066850c  -4.86  -3.27
iter:  23 04:22:59  -129.066756c  -4.86  -3.33
iter:  24 04:23:17  -129.066717c  -4.93  -3.53
iter:  25 04:23:36  -129.066630c  -4.90  -3.61
iter:  26 04:23:53  -129.066527c  -4.85  -3.72
iter:  27 04:24:11  -129.066469c  -4.95  -3.84
iter:  28 04:24:29  -129.066416c  -4.89  -3.89
iter:  29 04:24:47  -129.066362c  -5.16  -3.99
iter:  30 04:25:04  -129.066307c  -5.09  -4.04c
iter:  31 04:25:22  -129.066248c  -4.89  -4.11c
iter:  32 04:25:40  -129.066193c  -5.11  -4.18c
iter:  33 04:25:58  -129.066151c  -5.19  -4.22c
iter:  34 04:26:16  -129.066112c  -5.21  -4.25c
iter:  35 04:26:34  -129.066075c  -5.41c -4.31c

Converged after 35 iterations.

Dipole moment: (-6.715243, 0.000000, 0.345810) |e|*Ang

Energy contributions relative to reference atoms: (reference = -14803.510878)

Kinetic:       +112.813014
Potential:      -99.320147
External:        +0.000000
XC:            -141.478092
Entropy (-ST):   -1.225943
Local:           -0.467879
SIC:             +0.000000
--------------------------
Free energy:   -129.679047
Extrapolated:  -129.066075

Showing only first 2 kpts
 Kpt  Band  Eigenvalues  Occupancy
  0    34     -2.04776    1.79803
  0    35     -2.04153    1.78643
  0    36     -1.79820    0.84656
  0    37     -1.69687    0.42079

  1    34     -1.88038    1.25077
  1    35     -1.85307    1.11915
  1    36     -1.84200    1.06429
  1    37     -1.74166    0.58855


Fermi level: -1.82913

No gap
No difference between direct/indirect transitions
Timing:                              incl.     excl.
-----------------------------------------------------------
Hamiltonian:                         2.234     0.006   0.0% |
 Atomic:                             0.417     0.002   0.0% |
  XC Correction:                     0.415     0.415   0.1% |
 Calculate atomic Hamiltonians:      1.321     1.321   0.2% |
 Communicate:                        0.000     0.000   0.0% |
 Initialize Hamiltonian:             0.000     0.000   0.0% |
 Poisson:                            0.008     0.008   0.0% |
 XC 3D grid:                         0.482     0.482   0.1% |
LCAO initialization:                63.184     0.005   0.0% |
 LCAO eigensolver:                   0.842     0.000   0.0% |
  Calculate projections:             0.005     0.005   0.0% |
  DenseAtomicCorrection:             0.064     0.064   0.0% |
  Distribute overlap matrix:         0.001     0.001   0.0% |
  Orbital Layouts:                   0.108     0.108   0.0% |
  Potential matrix:                  0.660     0.660   0.1% |
  Sum over cells:                    0.005     0.005   0.0% |
 LCAO to grid:                      61.482    61.482   8.6% |--|
 Set positions (LCAO WFS):           0.856     0.157   0.0% |
  Basic WFS set positions:           0.001     0.001   0.0% |
  Basis functions set positions:     0.000     0.000   0.0% |
  P tci:                             0.574     0.574   0.1% |
  ST tci:                            0.111     0.111   0.0% |
  mktci:                             0.012     0.012   0.0% |
PWDescriptor:                        0.045     0.045   0.0% |
SCF-cycle:                         642.534     0.029   0.0% |
 Davidson:                         481.466    87.044  12.2% |----|
  Apply H:                          85.454    84.652  11.9% |----|
   HMM T:                            0.802     0.802   0.1% |
  Subspace diag:                    97.204     0.010   0.0% |
   calc_h_matrix:                   90.358     5.333   0.7% |
    Apply H:                        85.025    84.206  11.8% |----|
     HMM T:                          0.819     0.819   0.1% |
   diagonalize:                      0.076     0.076   0.0% |
   rotate_psi:                       6.760     6.760   0.9% |
  calc. matrices:                  197.531    25.419   3.6% ||
   Apply H:                        172.112   170.496  23.9% |---------|
    HMM T:                           1.616     1.616   0.2% |
  diagonalize:                       0.561     0.561   0.1% |
  rotate_psi:                       13.673    13.673   1.9% ||
 Density:                           81.823     0.000   0.0% |
  Atomic density matrices:           0.091     0.091   0.0% |
  Mix:                              39.128    39.128   5.5% |-|
  Multipole moments:                 0.013     0.013   0.0% |
  Pseudo density:                   42.590    42.386   5.9% |-|
   Symmetrize density:               0.205     0.205   0.0% |
 Hamiltonian:                       78.426     0.193   0.0% |
  Atomic:                           14.759     0.053   0.0% |
   XC Correction:                   14.706    14.706   2.1% ||
  Calculate atomic Hamiltonians:    46.555    46.555   6.5% |--|
  Communicate:                       0.000     0.000   0.0% |
  Poisson:                           0.144     0.144   0.0% |
  XC 3D grid:                       16.775    16.775   2.4% ||
 Orthonormalize:                     0.791     0.000   0.0% |
  calc_s_matrix:                     0.087     0.087   0.0% |
  inverse-cholesky:                  0.001     0.001   0.0% |
  projections:                       0.592     0.592   0.1% |
  rotate_psi_s:                      0.111     0.111   0.0% |
Set symmetry:                        0.000     0.000   0.0% |
Other:                               5.188     5.188   0.7% |
-----------------------------------------------------------
Total:                                       713.186 100.0%

Memory usage: 4.86 GiB
Date: Tue Nov 25 04:26:34 2025
