
  ___ ___ ___ _ _ _  
 |   |   |_  | | | | 
 | | | | | . | | | | 
 |__ |  _|___|_____|  25.7.0
 |___|_|             

User:   tew@Mathuss-MacBook-Air-357.local
Date:   Tue Nov 25 08:11:11 2025
Arch:   arm64
Pid:    53368
CWD:    /Users/tew/Documents/Project/GitHub/chem-com
Python: 3.13.5
gpaw:   /Users/tew/Documents/Project/GitHub/chem-com/.venv/lib/python3.13/site-packages/gpaw
_gpaw:  /Users/tew/Documents/Project/GitHub/chem-com/.venv/lib/python3.13/site-packages/
        _gpaw.cpython-313-darwin.so
ase:    /Users/tew/Documents/Project/GitHub/chem-com/.venv/lib/python3.13/site-packages/ase (version 3.26.0)
numpy:  /Users/tew/Documents/Project/GitHub/chem-com/.venv/lib/python3.13/site-packages/numpy (version 2.3.5)
scipy:  /Users/tew/Documents/Project/GitHub/chem-com/.venv/lib/python3.13/site-packages/scipy (version 1.16.3)
libxc:  2.x.y
units:  Angstrom and eV
cores: 1
OpenMP: False
OMP_NUM_THREADS: 1

Input parameters:
  convergence: {density: 0.0001,
                eigenstates: 5e-06}
  kpts: [4 4 1]
  mode: {ecut: 500.0,
         name: pw}
  xc: PBE

System changes: positions, numbers, cell, pbc, initial_charges, initial_magmoms 

Initialize ...

species:
  Li:
    name: Lithium
    id: 830b4218f175192f93f959cfc0aad614
    Z: 3.0
    valence: 1
    core: 2
    charge: 0.0
    file: /Users/tew/Documents/Project/GitHub/chem-com/.venv/lib/python3.13/site-packages/gpaw_data/setups/Li.PBE.gz
    compensation charges: {type: gauss,
                           rc: 0.33,
                           lmax: 2}
    cutoffs: {filter: 1.91,
              core: 2.55}
    projectors:
      #              energy  rcut
      - 2s(1.00)    -2.874   1.058
      - 2p(0.00)    -1.090   1.058
      -  s          24.337   1.058
  
    # Using partial waves for Li as LCAO basis

Reference energy: -14803.510878  # eV

Spin-paired calculation

Convergence criteria:
 Maximum [total energy] change in last 3 cyles: 0.0005 eV / valence electron
 Maximum integral of absolute [dens]ity change: 0.0001 electrons / valence electron
 Maximum integral of absolute [eigenst]ate change: 5e-06 eV^2 / valence electron
 Maximum number of scf [iter]ations: 333
 (Square brackets indicate name in SCF output, whereas a 'c' in
 the SCF output indicates the quantity has converged.)

Symmetries present (total): 2

  ( 1  0  0)  ( 0  1  0)
  ( 0  1  0)  ( 1  0  0)
  ( 0  0  1)  ( 0  0  1)

16 k-points: 4 x 4 x 1 Monkhorst-Pack grid
6 k-points in the irreducible part of the Brillouin zone
       k-points in crystal coordinates                weights
   0:     0.12500000   -0.12500000    0.00000000          2/16
   1:     0.12500000    0.12500000    0.00000000          2/16
   2:     0.37500000   -0.37500000    0.00000000          2/16
   3:     0.37500000   -0.12500000    0.00000000          4/16
   4:     0.37500000    0.12500000    0.00000000          4/16
   5:     0.37500000    0.37500000    0.00000000          2/16

Wave functions: Plane wave expansion
  Cutoff energy: 500.000 eV
  Number of coefficients (min, max): 89581, 89662
  Pulay-stress correction: 0.000000 eV/Ang^3 (de/decut=0.000000)
  Using Numpy's FFT
  ScaLapack parameters: grid=1x1, blocksize=None
  Wavefunction extrapolation:
    Improved wavefunction reuse through dual PAW basis 

Occupation numbers: Fermi-Dirac:
  width: 0.1000  # eV
 

Eigensolver
   Davidson(niter=2) 

Densities:
  Coarse grid: 54*54*168 grid
  Fine grid: 108*108*336 grid
  Total Charge: 0.000000 

Density mixing:
  Method: separate
  Backend: pulay
  Linear mixing parameter: 0.05
  old densities: 5
  Damping of long wavelength oscillations: 50 

Hamiltonian:
  XC and Coulomb potentials evaluated on a 108*108*336 grid
  Using the PBE Exchange-Correlation functional
  External potential:
    NoExternalPotential
 

XC parameters: PBE with 2 nearest neighbor stencil

Memory estimate:
  Process memory now: 7411.14 MiB
  Calculator: 818.92 MiB
    Density: 229.34 MiB
      Arrays: 97.18 MiB
      Localized functions: 94.79 MiB
      Mixer: 37.38 MiB
    Hamiltonian: 65.47 MiB
      Arrays: 63.54 MiB
      XC: 0.00 MiB
      Poisson: 0.00 MiB
      vbar: 1.93 MiB
    Wavefunctions: 524.11 MiB
      Arrays psit_nG: 394.02 MiB
      Eigensolver: 72.86 MiB
      Projections: 1.60 MiB
      Projectors: 28.72 MiB
      PW-descriptor: 26.90 MiB

Total number of cores used: 1

Number of atoms: 73
Number of atomic orbitals: 292
Number of bands in calculation: 48
Number of valence electrons: 73
Bands to converge: occupied

... initialized

Initializing position-dependent things.

Density initialized from atomic densities
Creating initial wave functions:
  48 bands from LCAO basis set

       .-------------------------.  
      /|                         |  
     / |                         |  
    /  |                         |  
   /   |                         |  
  /    |                         |  
 *     |                         |  
 |     |                         |  
 |     |                         |  
 |     |                         |  
 |     |                         |  
 |     |                         |  
 |     |                         |  
 |     |   Li      Li       Li   |  
 |     |                         |  
 |    LiLi      LLi       Li     Li 
 |     |                         |  
 |   Li|     LLi      Li Li      |  
 |    Li  Li       Li      Li    |  
 |     |    Li  Li  Li       Li  Li 
 |     |Li       Li       Li     |  
 |   Li|      Li  Li  Li         |  
 |    Li  Li   Li  Li   Li  Li   |  
 |     |    Li      Li       Li  |  
 |     |Li       Li       Li     |  
 |   Li|      Li  Li  Li         |  
 |    Li  Li   Li  Li   Li  Li   |  
 | Li  |    Li      Li           |  
 |     |Li       Li       Li     |  
 Li    |  Li      Li             |  
 |   LLi      LLi     LiLi       |  
 |     |                         |  
 | Li  |    Li      Li           |  
 |     |                         |  
 Li    |  Li      Li             |  
 |     |                         |  
 |     |                         |  
 |     |                         |  
 |     |                         |  
 |     |                         |  
 |     .-------------------------.  
 |    /                         /   
 |   /                         /    
 |  /                         /     
 | /                         /      
 |/                         /       
 *-------------------------*        

Atomic positions and initial magnetic moments

Positions:
   0 Li     0.000000    0.000000   10.000000    ( 0.0000,  0.0000,  0.0000)
   1 Li     1.745000    1.745000   11.745000    ( 0.0000,  0.0000,  0.0000)
   2 Li     0.000000    0.000000   13.490000    ( 0.0000,  0.0000,  0.0000)
   3 Li     1.745000    1.745000   15.235000    ( 0.0000,  0.0000,  0.0000)
   4 Li    -0.027474   -0.027474   16.914363    ( 0.0000,  0.0000,  0.0000)
   5 Li     1.744998    1.744998   18.521758    ( 0.0000,  0.0000,  0.0000)
   6 Li    -0.125293   -0.125293   20.322972    ( 0.0000,  0.0000,  0.0000)
   7 Li     1.745009    1.745009   21.396961    ( 0.0000,  0.0000,  0.0000)
   8 Li     0.000000    3.490000   10.000000    ( 0.0000,  0.0000,  0.0000)
   9 Li     1.745000    5.235000   11.745000    ( 0.0000,  0.0000,  0.0000)
  10 Li     0.000000    3.490000   13.490000    ( 0.0000,  0.0000,  0.0000)
  11 Li     1.745000    5.235000   15.235000    ( 0.0000,  0.0000,  0.0000)
  12 Li    -0.027468    3.517462   16.914361    ( 0.0000,  0.0000,  0.0000)
  13 Li     1.744994    5.206698   18.642926    ( 0.0000,  0.0000,  0.0000)
  14 Li    -0.125295    3.615282   20.322964    ( 0.0000,  0.0000,  0.0000)
  15 Li     1.744991    4.842415   22.334383    ( 0.0000,  0.0000,  0.0000)
  16 Li     0.000000    6.980000   10.000000    ( 0.0000,  0.0000,  0.0000)
  17 Li     1.745000    8.725000   11.745000    ( 0.0000,  0.0000,  0.0000)
  18 Li     0.000000    6.980000   13.490000    ( 0.0000,  0.0000,  0.0000)
  19 Li     1.745000    8.725000   15.235000    ( 0.0000,  0.0000,  0.0000)
  20 Li     0.025936    6.980004   16.946447    ( 0.0000,  0.0000,  0.0000)
  21 Li     1.744993    8.753284   18.642935    ( 0.0000,  0.0000,  0.0000)
  22 Li     0.070614    6.980002   20.485685    ( 0.0000,  0.0000,  0.0000)
  23 Li     1.744990    9.117601   22.334388    ( 0.0000,  0.0000,  0.0000)
  24 Li     3.490000    0.000000   10.000000    ( 0.0000,  0.0000,  0.0000)
  25 Li     5.235000    1.745000   11.745000    ( 0.0000,  0.0000,  0.0000)
  26 Li     3.490000    0.000000   13.490000    ( 0.0000,  0.0000,  0.0000)
  27 Li     5.235000    1.745000   15.235000    ( 0.0000,  0.0000,  0.0000)
  28 Li     3.517462   -0.027468   16.914361    ( 0.0000,  0.0000,  0.0000)
  29 Li     5.206698    1.744994   18.642926    ( 0.0000,  0.0000,  0.0000)
  30 Li     3.615282   -0.125295   20.322964    ( 0.0000,  0.0000,  0.0000)
  31 Li     4.842415    1.744991   22.334383    ( 0.0000,  0.0000,  0.0000)
  32 Li     3.490000    3.490000   10.000000    ( 0.0000,  0.0000,  0.0000)
  33 Li     5.235000    5.235000   11.745000    ( 0.0000,  0.0000,  0.0000)
  34 Li     3.490000    3.490000   13.490000    ( 0.0000,  0.0000,  0.0000)
  35 Li     5.235000    5.235000   15.235000    ( 0.0000,  0.0000,  0.0000)
  36 Li     3.517458    3.517458   16.914364    ( 0.0000,  0.0000,  0.0000)
  37 Li     5.307269    5.307269   18.619679    ( 0.0000,  0.0000,  0.0000)
  38 Li     3.615285    3.615285   20.322959    ( 0.0000,  0.0000,  0.0000)
  39 Li     5.245324    5.245324   22.286398    ( 0.0000,  0.0000,  0.0000)
  40 Li     3.490000    6.980000   10.000000    ( 0.0000,  0.0000,  0.0000)
  41 Li     5.235000    8.725000   11.745000    ( 0.0000,  0.0000,  0.0000)
  42 Li     3.490000    6.980000   13.490000    ( 0.0000,  0.0000,  0.0000)
  43 Li     5.235000    8.725000   15.235000    ( 0.0000,  0.0000,  0.0000)
  44 Li     3.464070    6.980004   16.946464    ( 0.0000,  0.0000,  0.0000)
  45 Li     5.307286    8.652745   18.619676    ( 0.0000,  0.0000,  0.0000)
  46 Li     3.419382    6.980001   20.485685    ( 0.0000,  0.0000,  0.0000)
  47 Li     5.245323    8.714653   22.286400    ( 0.0000,  0.0000,  0.0000)
  48 Li     6.980000    0.000000   10.000000    ( 0.0000,  0.0000,  0.0000)
  49 Li     8.725000    1.745000   11.745000    ( 0.0000,  0.0000,  0.0000)
  50 Li     6.980000    0.000000   13.490000    ( 0.0000,  0.0000,  0.0000)
  51 Li     8.725000    1.745000   15.235000    ( 0.0000,  0.0000,  0.0000)
  52 Li     6.980004    0.025936   16.946447    ( 0.0000,  0.0000,  0.0000)
  53 Li     8.753284    1.744993   18.642935    ( 0.0000,  0.0000,  0.0000)
  54 Li     6.980002    0.070614   20.485685    ( 0.0000,  0.0000,  0.0000)
  55 Li     9.117601    1.744990   22.334388    ( 0.0000,  0.0000,  0.0000)
  56 Li     6.980000    3.490000   10.000000    ( 0.0000,  0.0000,  0.0000)
  57 Li     8.725000    5.235000   11.745000    ( 0.0000,  0.0000,  0.0000)
  58 Li     6.980000    3.490000   13.490000    ( 0.0000,  0.0000,  0.0000)
  59 Li     8.725000    5.235000   15.235000    ( 0.0000,  0.0000,  0.0000)
  60 Li     6.980004    3.464070   16.946464    ( 0.0000,  0.0000,  0.0000)
  61 Li     8.652745    5.307286   18.619676    ( 0.0000,  0.0000,  0.0000)
  62 Li     6.980001    3.419382   20.485685    ( 0.0000,  0.0000,  0.0000)
  63 Li     8.714653    5.245323   22.286400    ( 0.0000,  0.0000,  0.0000)
  64 Li     6.980000    6.980000   10.000000    ( 0.0000,  0.0000,  0.0000)
  65 Li     8.725000    8.725000   11.745000    ( 0.0000,  0.0000,  0.0000)
  66 Li     6.980000    6.980000   13.490000    ( 0.0000,  0.0000,  0.0000)
  67 Li     8.725000    8.725000   15.235000    ( 0.0000,  0.0000,  0.0000)
  68 Li     6.980006    6.980006   16.811156    ( 0.0000,  0.0000,  0.0000)
  69 Li     8.652727    8.652727   18.619672    ( 0.0000,  0.0000,  0.0000)
  70 Li     6.980001    6.980001   20.483290    ( 0.0000,  0.0000,  0.0000)
  71 Li     8.714659    8.714659   22.286404    ( 0.0000,  0.0000,  0.0000)
  72 Li     1.745001    1.745001   23.980812    ( 0.0000,  0.0000,  0.0000)

Unit cell:
           periodic     x           y           z      points  spacing
  1. axis:    yes   10.470000    0.000000    0.000000    54     0.1939
  2. axis:    yes    0.000000   10.470000    0.000000    54     0.1939
  3. axis:    no     0.000000    0.000000   32.215000   168     0.1918

  Lengths:  10.470000  10.470000  32.215000
  Angles:   90.000000  90.000000  90.000000

Effective grid spacing dv^(1/3) = 0.1932

     iter     time        total  log10-change:
                         energy   eigst   dens
iter:   1 08:12:45  -138.218173
iter:   2 08:13:03  -133.935821   -0.75  -0.65
iter:   3 08:13:21  -133.398369   -1.27  -0.84
iter:   4 08:13:39  -133.024436   -1.60  -0.90
iter:   5 08:13:59  -132.254700   -1.85  -0.96
iter:   6 08:14:20  -135.298214   -0.82  -1.11
iter:   7 08:14:40  -131.819523   -1.45  -0.75
iter:   8 08:15:00  -132.101055   -1.50  -1.26
iter:   9 08:15:19  -131.883488   -2.60  -1.28
iter:  10 08:15:38  -131.847898   -2.96  -1.48
iter:  11 08:15:57  -131.887090   -2.63  -1.57
iter:  12 08:16:16  -131.837823   -3.04  -1.58
iter:  13 08:16:35  -131.836453   -3.68  -1.79
iter:  14 08:16:54  -131.835679c  -3.85  -1.93
iter:  15 08:17:13  -131.842108c  -3.41  -2.01
iter:  16 08:17:32  -131.829896c  -3.80  -2.00
iter:  17 08:17:51  -131.828148c  -4.22  -2.28
iter:  18 08:18:10  -131.827422c  -4.78  -2.51
iter:  19 08:18:29  -131.827505c  -5.03  -2.74
iter:  20 08:18:48  -131.827295c  -5.15  -2.85
iter:  21 08:19:09  -131.827259c  -5.49c -2.91
iter:  22 08:19:29  -131.827233c  -5.71c -3.01
iter:  23 08:19:49  -131.827218c  -5.82c -3.12
iter:  24 08:20:10  -131.827216c  -5.66c -3.24
iter:  25 08:20:30  -131.827237c  -5.92c -3.26
iter:  26 08:20:50  -131.827220c  -6.09c -3.40
iter:  27 08:21:10  -131.827208c  -6.27c -3.48
iter:  28 08:21:30  -131.827205c  -6.33c -3.59
iter:  29 08:21:50  -131.827183c  -6.30c -4.04c

Converged after 29 iterations.

Dipole moment: (2.862214, 2.862214, 0.276055) |e|*Ang

Energy contributions relative to reference atoms: (reference = -14803.510878)

Kinetic:       +101.739932
Potential:      -91.918271
External:        +0.000000
XC:            -140.579781
Entropy (-ST):   -1.168943
Local:           -0.484592
SIC:             +0.000000
--------------------------
Free energy:   -132.411655
Extrapolated:  -131.827183

Showing only first 2 kpts
 Kpt  Band  Eigenvalues  Occupancy
  0    34     -1.53376    1.42508
  0    35     -1.42333    0.90201
  0    36     -1.34379    0.54106
  0    37     -1.23063    0.21365

  1    34     -1.53376    1.42508
  1    35     -1.42333    0.90201
  1    36     -1.34379    0.54106
  1    37     -1.23063    0.21365


Fermi level: -1.44299

No gap
No difference between direct/indirect transitions
Timing:                              incl.     excl.
-----------------------------------------------------------
Hamiltonian:                         1.905     0.005   0.0% |
 Atomic:                             0.393     0.001   0.0% |
  XC Correction:                     0.391     0.391   0.1% |
 Calculate atomic Hamiltonians:      1.088     1.088   0.2% |
 Communicate:                        0.000     0.000   0.0% |
 Initialize Hamiltonian:             0.000     0.000   0.0% |
 Poisson:                            0.003     0.003   0.0% |
 XC 3D grid:                         0.416     0.416   0.1% |
LCAO initialization:                73.585     0.003   0.0% |
 LCAO eigensolver:                   0.809     0.001   0.0% |
  Calculate projections:             0.006     0.006   0.0% |
  DenseAtomicCorrection:             0.085     0.085   0.0% |
  Distribute overlap matrix:         0.001     0.001   0.0% |
  Orbital Layouts:                   0.144     0.144   0.0% |
  Potential matrix:                  0.566     0.566   0.1% |
  Sum over cells:                    0.007     0.007   0.0% |
 LCAO to grid:                      72.010    72.010  11.3% |----|
 Set positions (LCAO WFS):           0.763     0.181   0.0% |
  Basic WFS set positions:           0.001     0.001   0.0% |
  Basis functions set positions:     0.000     0.000   0.0% |
  P tci:                             0.441     0.441   0.1% |
  ST tci:                            0.129     0.129   0.0% |
  mktci:                             0.011     0.011   0.0% |
PWDescriptor:                        0.042     0.042   0.0% |
SCF-cycle:                         559.767     0.023   0.0% |
 Davidson:                         442.771    84.930  13.3% |----|
  Apply H:                          76.619    75.845  11.9% |----|
   HMM T:                            0.773     0.773   0.1% |
  Subspace diag:                    88.039     0.011   0.0% |
   calc_h_matrix:                   81.196     5.087   0.8% |
    Apply H:                        76.109    75.336  11.8% |----|
     HMM T:                          0.773     0.773   0.1% |
   diagonalize:                      0.086     0.086   0.0% |
   rotate_psi:                       6.746     6.746   1.1% |
  calc. matrices:                  178.755    25.284   4.0% |-|
   Apply H:                        153.471   151.907  23.8% |---------|
    HMM T:                           1.564     1.564   0.2% |
  diagonalize:                       0.656     0.656   0.1% |
  rotate_psi:                       13.772    13.772   2.2% ||
 Density:                           63.367     0.000   0.0% |
  Atomic density matrices:           0.092     0.092   0.0% |
  Mix:                              25.210    25.210   3.9% |-|
  Multipole moments:                 0.010     0.010   0.0% |
  Pseudo density:                   38.055    37.930   5.9% |-|
   Symmetrize density:               0.125     0.125   0.0% |
 Hamiltonian:                       52.722     0.128   0.0% |
  Atomic:                           11.419     0.040   0.0% |
   XC Correction:                   11.379    11.379   1.8% ||
  Calculate atomic Hamiltonians:    30.665    30.665   4.8% |-|
  Communicate:                       0.000     0.000   0.0% |
  Poisson:                           0.093     0.093   0.0% |
  XC 3D grid:                       10.416    10.416   1.6% ||
 Orthonormalize:                     0.883     0.000   0.0% |
  calc_s_matrix:                     0.096     0.096   0.0% |
  inverse-cholesky:                  0.001     0.001   0.0% |
  projections:                       0.657     0.657   0.1% |
  rotate_psi_s:                      0.128     0.128   0.0% |
Set symmetry:                        0.000     0.000   0.0% |
Other:                               3.805     3.805   0.6% |
-----------------------------------------------------------
Total:                                       639.104 100.0%

Memory usage: 7.24 GiB
Date: Tue Nov 25 08:21:50 2025
