
  ___ ___ ___ _ _ _  
 |   |   |_  | | | | 
 | | | | | . | | | | 
 |__ |  _|___|_____|  25.7.0
 |___|_|             

User:   tew@Mathuss-MacBook-Air-357.local
Date:   Tue Nov 25 07:29:56 2025
Arch:   arm64
Pid:    53368
CWD:    /Users/tew/Documents/Project/GitHub/chem-com
Python: 3.13.5
gpaw:   /Users/tew/Documents/Project/GitHub/chem-com/.venv/lib/python3.13/site-packages/gpaw
_gpaw:  /Users/tew/Documents/Project/GitHub/chem-com/.venv/lib/python3.13/site-packages/
        _gpaw.cpython-313-darwin.so
ase:    /Users/tew/Documents/Project/GitHub/chem-com/.venv/lib/python3.13/site-packages/ase (version 3.26.0)
numpy:  /Users/tew/Documents/Project/GitHub/chem-com/.venv/lib/python3.13/site-packages/numpy (version 2.3.5)
scipy:  /Users/tew/Documents/Project/GitHub/chem-com/.venv/lib/python3.13/site-packages/scipy (version 1.16.3)
libxc:  2.x.y
units:  Angstrom and eV
cores: 1
OpenMP: False
OMP_NUM_THREADS: 1

Input parameters:
  convergence: {density: 0.0001,
                eigenstates: 5e-06}
  kpts: [2 2 1]
  mode: {ecut: 300.0,
         name: pw}
  xc: PBE

System changes: positions, numbers, cell, pbc, initial_charges, initial_magmoms 

Initialize ...

species:
  Li:
    name: Lithium
    id: 830b4218f175192f93f959cfc0aad614
    Z: 3.0
    valence: 1
    core: 2
    charge: 0.0
    file: /Users/tew/Documents/Project/GitHub/chem-com/.venv/lib/python3.13/site-packages/gpaw_data/setups/Li.PBE.gz
    compensation charges: {type: gauss,
                           rc: 0.33,
                           lmax: 2}
    cutoffs: {filter: 1.91,
              core: 2.55}
    projectors:
      #              energy  rcut
      - 2s(1.00)    -2.874   1.058
      - 2p(0.00)    -1.090   1.058
      -  s          24.337   1.058
  
    # Using partial waves for Li as LCAO basis

Reference energy: -14803.510878  # eV

Spin-paired calculation

Convergence criteria:
 Maximum [total energy] change in last 3 cyles: 0.0005 eV / valence electron
 Maximum integral of absolute [dens]ity change: 0.0001 electrons / valence electron
 Maximum integral of absolute [eigenst]ate change: 5e-06 eV^2 / valence electron
 Maximum number of scf [iter]ations: 333
 (Square brackets indicate name in SCF output, whereas a 'c' in
 the SCF output indicates the quantity has converged.)

Symmetries present (total): 2

  ( 1  0  0)  ( 0  1  0)
  ( 0  1  0)  ( 1  0  0)
  ( 0  0  1)  ( 0  0  1)

4 k-points: 2 x 2 x 1 Monkhorst-Pack grid
2 k-points in the irreducible part of the Brillouin zone
       k-points in crystal coordinates                weights
   0:     0.25000000   -0.25000000    0.00000000          2/4
   1:     0.25000000    0.25000000    0.00000000          2/4

Wave functions: Plane wave expansion
  Cutoff energy: 300.000 eV
  Number of coefficients (min, max): 41655, 41655
  Pulay-stress correction: 0.000000 eV/Ang^3 (de/decut=0.000000)
  Using Numpy's FFT
  ScaLapack parameters: grid=1x1, blocksize=None
  Wavefunction extrapolation:
    Improved wavefunction reuse through dual PAW basis 

Occupation numbers: Fermi-Dirac:
  width: 0.1000  # eV
 

Eigensolver
   Davidson(niter=2) 

Densities:
  Coarse grid: 42*42*135 grid
  Fine grid: 84*84*270 grid
  Total Charge: 0.000000 

Density mixing:
  Method: separate
  Backend: pulay
  Linear mixing parameter: 0.05
  old densities: 5
  Damping of long wavelength oscillations: 50 

Hamiltonian:
  XC and Coulomb potentials evaluated on a 84*84*270 grid
  Using the PBE Exchange-Correlation functional
  External potential:
    NoExternalPotential
 

XC parameters: PBE with 2 nearest neighbor stencil

Memory estimate:
  Process memory now: 7411.14 MiB
  Calculator: 251.65 MiB
    Density: 109.47 MiB
      Arrays: 47.24 MiB
      Localized functions: 44.06 MiB
      Mixer: 18.17 MiB
    Hamiltonian: 31.79 MiB
      Arrays: 30.89 MiB
      XC: 0.00 MiB
      Poisson: 0.00 MiB
      vbar: 0.90 MiB
    Wavefunctions: 110.40 MiB
      Arrays psit_nG: 61.02 MiB
      Eigensolver: 34.04 MiB
      Projections: 0.53 MiB
      Projectors: 4.45 MiB
      PW-descriptor: 10.36 MiB

Total number of cores used: 1

Number of atoms: 73
Number of atomic orbitals: 292
Number of bands in calculation: 48
Number of valence electrons: 73
Bands to converge: occupied

... initialized

Initializing position-dependent things.

Density initialized from atomic densities
Creating initial wave functions:
  48 bands from LCAO basis set

       .-------------------------.  
      /|                         |  
     / |                         |  
    /  |                         |  
   /   |                         |  
  /    |                         |  
 *     |                         |  
 |     |                         |  
 |     |                         |  
 |     |                         |  
 |     |                         |  
 |     |                         |  
 |     |                         |  
 |     |   Li      Li       Li   |  
 |     |                         |  
 |    LiLi      LLi       Li     Li 
 |     |                         |  
 |   Li|     LLi      Li Li      |  
 |    Li  Li       Li      Li    |  
 |     |    Li  Li  Li       Li  Li 
 |     |Li       Li       Li     |  
 |   Li|      Li  Li  Li         |  
 |    Li  Li   Li  Li   Li  Li   |  
 |     |    Li      Li       Li  |  
 |     |Li       Li       Li     |  
 |   Li|      Li  Li  Li         |  
 |    Li  Li   Li  Li   Li  Li   |  
 | Li  |    Li      Li           |  
 |     |Li       Li       Li     |  
 Li    |  Li      Li             |  
 |   LLi      LLi     LiLi       |  
 |     |                         |  
 | Li  |    Li      Li           |  
 |     |                         |  
 Li    |  Li      Li             |  
 |     |                         |  
 |     |                         |  
 |     |                         |  
 |     |                         |  
 |     |                         |  
 |     .-------------------------.  
 |    /                         /   
 |   /                         /    
 |  /                         /     
 | /                         /      
 |/                         /       
 *-------------------------*        

Atomic positions and initial magnetic moments

Positions:
   0 Li     0.000000    0.000000   10.000000    ( 0.0000,  0.0000,  0.0000)
   1 Li     1.745000    1.745000   11.745000    ( 0.0000,  0.0000,  0.0000)
   2 Li     0.000000    0.000000   13.490000    ( 0.0000,  0.0000,  0.0000)
   3 Li     1.745000    1.745000   15.235000    ( 0.0000,  0.0000,  0.0000)
   4 Li    -0.027474   -0.027474   16.914363    ( 0.0000,  0.0000,  0.0000)
   5 Li     1.744998    1.744998   18.521758    ( 0.0000,  0.0000,  0.0000)
   6 Li    -0.125293   -0.125293   20.322972    ( 0.0000,  0.0000,  0.0000)
   7 Li     1.745009    1.745009   21.396961    ( 0.0000,  0.0000,  0.0000)
   8 Li     0.000000    3.490000   10.000000    ( 0.0000,  0.0000,  0.0000)
   9 Li     1.745000    5.235000   11.745000    ( 0.0000,  0.0000,  0.0000)
  10 Li     0.000000    3.490000   13.490000    ( 0.0000,  0.0000,  0.0000)
  11 Li     1.745000    5.235000   15.235000    ( 0.0000,  0.0000,  0.0000)
  12 Li    -0.027468    3.517462   16.914361    ( 0.0000,  0.0000,  0.0000)
  13 Li     1.744994    5.206698   18.642926    ( 0.0000,  0.0000,  0.0000)
  14 Li    -0.125295    3.615282   20.322964    ( 0.0000,  0.0000,  0.0000)
  15 Li     1.744991    4.842415   22.334383    ( 0.0000,  0.0000,  0.0000)
  16 Li     0.000000    6.980000   10.000000    ( 0.0000,  0.0000,  0.0000)
  17 Li     1.745000    8.725000   11.745000    ( 0.0000,  0.0000,  0.0000)
  18 Li     0.000000    6.980000   13.490000    ( 0.0000,  0.0000,  0.0000)
  19 Li     1.745000    8.725000   15.235000    ( 0.0000,  0.0000,  0.0000)
  20 Li     0.025936    6.980004   16.946447    ( 0.0000,  0.0000,  0.0000)
  21 Li     1.744993    8.753284   18.642935    ( 0.0000,  0.0000,  0.0000)
  22 Li     0.070614    6.980002   20.485685    ( 0.0000,  0.0000,  0.0000)
  23 Li     1.744990    9.117601   22.334388    ( 0.0000,  0.0000,  0.0000)
  24 Li     3.490000    0.000000   10.000000    ( 0.0000,  0.0000,  0.0000)
  25 Li     5.235000    1.745000   11.745000    ( 0.0000,  0.0000,  0.0000)
  26 Li     3.490000    0.000000   13.490000    ( 0.0000,  0.0000,  0.0000)
  27 Li     5.235000    1.745000   15.235000    ( 0.0000,  0.0000,  0.0000)
  28 Li     3.517462   -0.027468   16.914361    ( 0.0000,  0.0000,  0.0000)
  29 Li     5.206698    1.744994   18.642926    ( 0.0000,  0.0000,  0.0000)
  30 Li     3.615282   -0.125295   20.322964    ( 0.0000,  0.0000,  0.0000)
  31 Li     4.842415    1.744991   22.334383    ( 0.0000,  0.0000,  0.0000)
  32 Li     3.490000    3.490000   10.000000    ( 0.0000,  0.0000,  0.0000)
  33 Li     5.235000    5.235000   11.745000    ( 0.0000,  0.0000,  0.0000)
  34 Li     3.490000    3.490000   13.490000    ( 0.0000,  0.0000,  0.0000)
  35 Li     5.235000    5.235000   15.235000    ( 0.0000,  0.0000,  0.0000)
  36 Li     3.517458    3.517458   16.914364    ( 0.0000,  0.0000,  0.0000)
  37 Li     5.307269    5.307269   18.619679    ( 0.0000,  0.0000,  0.0000)
  38 Li     3.615285    3.615285   20.322959    ( 0.0000,  0.0000,  0.0000)
  39 Li     5.245324    5.245324   22.286398    ( 0.0000,  0.0000,  0.0000)
  40 Li     3.490000    6.980000   10.000000    ( 0.0000,  0.0000,  0.0000)
  41 Li     5.235000    8.725000   11.745000    ( 0.0000,  0.0000,  0.0000)
  42 Li     3.490000    6.980000   13.490000    ( 0.0000,  0.0000,  0.0000)
  43 Li     5.235000    8.725000   15.235000    ( 0.0000,  0.0000,  0.0000)
  44 Li     3.464070    6.980004   16.946464    ( 0.0000,  0.0000,  0.0000)
  45 Li     5.307286    8.652745   18.619676    ( 0.0000,  0.0000,  0.0000)
  46 Li     3.419382    6.980001   20.485685    ( 0.0000,  0.0000,  0.0000)
  47 Li     5.245323    8.714653   22.286400    ( 0.0000,  0.0000,  0.0000)
  48 Li     6.980000    0.000000   10.000000    ( 0.0000,  0.0000,  0.0000)
  49 Li     8.725000    1.745000   11.745000    ( 0.0000,  0.0000,  0.0000)
  50 Li     6.980000    0.000000   13.490000    ( 0.0000,  0.0000,  0.0000)
  51 Li     8.725000    1.745000   15.235000    ( 0.0000,  0.0000,  0.0000)
  52 Li     6.980004    0.025936   16.946447    ( 0.0000,  0.0000,  0.0000)
  53 Li     8.753284    1.744993   18.642935    ( 0.0000,  0.0000,  0.0000)
  54 Li     6.980002    0.070614   20.485685    ( 0.0000,  0.0000,  0.0000)
  55 Li     9.117601    1.744990   22.334388    ( 0.0000,  0.0000,  0.0000)
  56 Li     6.980000    3.490000   10.000000    ( 0.0000,  0.0000,  0.0000)
  57 Li     8.725000    5.235000   11.745000    ( 0.0000,  0.0000,  0.0000)
  58 Li     6.980000    3.490000   13.490000    ( 0.0000,  0.0000,  0.0000)
  59 Li     8.725000    5.235000   15.235000    ( 0.0000,  0.0000,  0.0000)
  60 Li     6.980004    3.464070   16.946464    ( 0.0000,  0.0000,  0.0000)
  61 Li     8.652745    5.307286   18.619676    ( 0.0000,  0.0000,  0.0000)
  62 Li     6.980001    3.419382   20.485685    ( 0.0000,  0.0000,  0.0000)
  63 Li     8.714653    5.245323   22.286400    ( 0.0000,  0.0000,  0.0000)
  64 Li     6.980000    6.980000   10.000000    ( 0.0000,  0.0000,  0.0000)
  65 Li     8.725000    8.725000   11.745000    ( 0.0000,  0.0000,  0.0000)
  66 Li     6.980000    6.980000   13.490000    ( 0.0000,  0.0000,  0.0000)
  67 Li     8.725000    8.725000   15.235000    ( 0.0000,  0.0000,  0.0000)
  68 Li     6.980006    6.980006   16.811156    ( 0.0000,  0.0000,  0.0000)
  69 Li     8.652727    8.652727   18.619672    ( 0.0000,  0.0000,  0.0000)
  70 Li     6.980001    6.980001   20.483290    ( 0.0000,  0.0000,  0.0000)
  71 Li     8.714659    8.714659   22.286404    ( 0.0000,  0.0000,  0.0000)
  72 Li     1.745001    1.745001   23.980812    ( 0.0000,  0.0000,  0.0000)

Unit cell:
           periodic     x           y           z      points  spacing
  1. axis:    yes   10.470000    0.000000    0.000000    42     0.2493
  2. axis:    yes    0.000000   10.470000    0.000000    42     0.2493
  3. axis:    no     0.000000    0.000000   32.215000   135     0.2386

  Lengths:  10.470000  10.470000  32.215000
  Angles:   90.000000  90.000000  90.000000

Effective grid spacing dv^(1/3) = 0.2457

     iter     time        total  log10-change:
                         energy   eigst   dens
iter:   1 07:30:14  -137.674010
iter:   2 07:30:17  -133.282055   -0.74  -0.65
iter:   3 07:30:22  -132.864276   -1.23  -0.85
iter:   4 07:30:26  -132.912700   -1.56  -0.90
iter:   5 07:30:30  -131.936853   -1.76  -0.89
iter:   6 07:30:34  -132.281853   -1.34  -1.09
iter:   7 07:30:37  -131.576919   -2.19  -1.05
iter:   8 07:30:42  -131.645825   -1.56  -1.25
iter:   9 07:30:46  -131.426359   -2.60  -1.31
iter:  10 07:30:49  -131.427285   -2.74  -1.54
iter:  11 07:30:53  -131.426667c  -3.01  -1.59
iter:  12 07:30:57  -131.419551c  -3.20  -1.63
iter:  13 07:31:01  -131.452016c  -2.71  -1.71
iter:  14 07:31:05  -131.416948c  -3.49  -1.71
iter:  15 07:31:09  -131.413739   -3.28  -1.99
iter:  16 07:31:13  -131.413283c  -3.43  -2.26
iter:  17 07:31:17  -131.407147c  -3.86  -2.09
iter:  18 07:31:21  -131.408288c  -4.21  -2.56
iter:  19 07:31:25  -131.410268c  -4.20  -2.56
iter:  20 07:31:29  -131.406193c  -4.00  -2.40
iter:  21 07:31:33  -131.406469c  -5.02  -2.69
iter:  22 07:31:37  -131.407494c  -4.50  -2.83
iter:  23 07:31:41  -131.406313c  -4.76  -2.77
iter:  24 07:31:45  -131.405814c  -4.94  -2.99
iter:  25 07:31:49  -131.405851c  -5.22  -2.90
iter:  26 07:31:53  -131.406267c  -4.83  -3.02
iter:  27 07:31:57  -131.405622c  -5.20  -3.06
iter:  28 07:32:01  -131.405692c  -5.82c -3.31
iter:  29 07:32:05  -131.405921c  -5.41c -3.44
iter:  30 07:32:09  -131.405679c  -5.50c -3.38
iter:  31 07:32:13  -131.405638c  -5.65c -3.68
iter:  32 07:32:17  -131.405660c  -5.68c -3.67
iter:  33 07:32:21  -131.405722c  -5.48c -3.82
iter:  34 07:32:25  -131.405560c  -5.28  -3.67
iter:  35 07:32:29  -131.405546c  -6.18c -4.01c

Converged after 35 iterations.

Dipole moment: (2.868228, 2.868228, 0.276567) |e|*Ang

Energy contributions relative to reference atoms: (reference = -14803.510878)

Kinetic:       +101.909698
Potential:      -91.723259
External:        +0.000000
XC:            -140.521205
Entropy (-ST):   -1.209843
Local:           -0.465858
SIC:             +0.000000
--------------------------
Free energy:   -132.010467
Extrapolated:  -131.405546

Showing all kpts
 Kpt  Band  Eigenvalues  Occupancy
  0    34     -1.58369    1.61152
  0    35     -1.56808    1.56033
  0    36     -1.38668    0.73292
  0    37     -1.34556    0.55431

  1    34     -1.58369    1.61152
  1    35     -1.56808    1.56033
  1    36     -1.38668    0.73293
  1    37     -1.34556    0.55431


Fermi level: -1.44142

Gap: 0.181 eV
Transition (v -> c):
  (s=0, k=0, n=35, [0.25, -0.25, 0.00]) -> (s=0, k=1, n=36, [0.25, 0.25, 0.00])
Direct/indirect transitions are different
Direct gap: 0.181 eV
Transition at: (s=0, k=0, n=35, [0.25, -0.25, 0.00])
Timing:                              incl.     excl.
-----------------------------------------------------------
Hamiltonian:                         1.118     0.002   0.0% |
 Atomic:                             0.399     0.001   0.0% |
  XC Correction:                     0.397     0.397   0.3% |
 Calculate atomic Hamiltonians:      0.520     0.520   0.3% |
 Communicate:                        0.000     0.000   0.0% |
 Initialize Hamiltonian:             0.001     0.001   0.0% |
 Poisson:                            0.002     0.002   0.0% |
 XC 3D grid:                         0.195     0.195   0.1% |
LCAO initialization:                12.608     0.003   0.0% |
 LCAO eigensolver:                   0.365     0.000   0.0% |
  Calculate projections:             0.002     0.002   0.0% |
  DenseAtomicCorrection:             0.028     0.028   0.0% |
  Distribute overlap matrix:         0.000     0.000   0.0% |
  Orbital Layouts:                   0.050     0.050   0.0% |
  Potential matrix:                  0.282     0.282   0.2% |
  Sum over cells:                    0.002     0.002   0.0% |
 LCAO to grid:                      11.835    11.835   7.7% |--|
 Set positions (LCAO WFS):           0.405     0.106   0.1% |
  Basic WFS set positions:           0.001     0.001   0.0% |
  Basis functions set positions:     0.000     0.000   0.0% |
  P tci:                             0.192     0.192   0.1% |
  ST tci:                            0.094     0.094   0.1% |
  mktci:                             0.012     0.012   0.0% |
PWDescriptor:                        0.013     0.013   0.0% |
SCF-cycle:                         138.058     0.013   0.0% |
 Davidson:                          79.940    15.662  10.2% |---|
  Apply H:                          13.685    13.553   8.8% |---|
   HMM T:                            0.132     0.132   0.1% |
  Subspace diag:                    15.709     0.047   0.0% |
   calc_h_matrix:                   14.391     0.976   0.6% |
    Apply H:                        13.414    13.283   8.7% |--|
     HMM T:                          0.131     0.131   0.1% |
   diagonalize:                      0.034     0.034   0.0% |
   rotate_psi:                       1.237     1.237   0.8% |
  calc. matrices:                   32.104     4.757   3.1% ||
   Apply H:                         27.347    27.082  17.6% |------|
    HMM T:                           0.265     0.265   0.2% |
  diagonalize:                       0.256     0.256   0.2% |
  rotate_psi:                        2.523     2.523   1.6% ||
 Density:                           21.047     0.000   0.0% |
  Atomic density matrices:           0.061     0.061   0.0% |
  Mix:                              13.997    13.997   9.1% |---|
  Multipole moments:                 0.012     0.012   0.0% |
  Pseudo density:                    6.977     6.902   4.5% |-|
   Symmetrize density:               0.075     0.075   0.0% |
 Hamiltonian:                       36.896     0.067   0.0% |
  Atomic:                           13.585     0.048   0.0% |
   XC Correction:                   13.537    13.537   8.8% |---|
  Calculate atomic Hamiltonians:    17.109    17.109  11.1% |---|
  Communicate:                       0.000     0.000   0.0% |
  Poisson:                           0.049     0.049   0.0% |
  XC 3D grid:                        6.085     6.085   4.0% |-|
 Orthonormalize:                     0.163     0.000   0.0% |
  calc_s_matrix:                     0.018     0.018   0.0% |
  inverse-cholesky:                  0.000     0.000   0.0% |
  projections:                       0.106     0.106   0.1% |
  rotate_psi_s:                      0.039     0.039   0.0% |
Set symmetry:                        0.000     0.000   0.0% |
Other:                               1.696     1.696   1.1% |
-----------------------------------------------------------
Total:                                       153.494 100.0%

Memory usage: 7.24 GiB
Date: Tue Nov 25 07:32:29 2025
