
  ___ ___ ___ _ _ _  
 |   |   |_  | | | | 
 | | | | | . | | | | 
 |__ |  _|___|_____|  25.7.0
 |___|_|             

User:   tew@Mathuss-MacBook-Air-357.local
Date:   Mon Dec  1 23:27:41 2025
Arch:   arm64
Pid:    88530
CWD:    /Users/tew/Documents/Project/GitHub/chem-com
Python: 3.13.5
gpaw:   /Users/tew/Documents/Project/GitHub/chem-com/.venv/lib/python3.13/site-packages/gpaw
_gpaw:  /Users/tew/Documents/Project/GitHub/chem-com/.venv/lib/python3.13/site-packages/
        _gpaw.cpython-313-darwin.so
ase:    /Users/tew/Documents/Project/GitHub/chem-com/.venv/lib/python3.13/site-packages/ase (version 3.26.0)
numpy:  /Users/tew/Documents/Project/GitHub/chem-com/.venv/lib/python3.13/site-packages/numpy (version 2.2.6)
scipy:  /Users/tew/Documents/Project/GitHub/chem-com/.venv/lib/python3.13/site-packages/scipy (version 1.16.3)
libxc:  2.x.y
units:  Angstrom and eV
cores: 1
OpenMP: False
OMP_NUM_THREADS: 1

Input parameters:
  convergence: {density: 0.0001,
                eigenstates: 5e-06}
  kpts: [3 3 1]
  mode: {ecut: 400.0,
         name: pw}
  xc: PBE

System changes: positions, numbers, cell, pbc, initial_charges, initial_magmoms 

Initialize ...

species:
  Na:
    name: Sodium
    id: d7ecbc49209718622bcbe287195dca2a
    Z: 11.0
    valence: 7
    core: 4
    charge: 0.0
    file: /Users/tew/Documents/Project/GitHub/chem-com/.venv/lib/python3.13/site-packages/gpaw_data/setups/Na.PBE.gz
    compensation charges: {type: gauss,
                           rc: 0.37,
                           lmax: 2}
    cutoffs: {filter: 2.17,
              core: 2.59}
    projectors:
      #              energy  rcut
      - 3s(1.00)    -2.744   1.201
      - 2p(6.00)   -28.672   1.217
      - 3p(0.00)    -0.743   1.217
      -  s          24.468   1.201
      -  d           0.000   1.238
  
    # Using partial waves for Na as LCAO basis

Reference energy: -322558.566329  # eV

Spin-paired calculation

Convergence criteria:
 Maximum [total energy] change in last 3 cyles: 0.0005 eV / valence electron
 Maximum integral of absolute [dens]ity change: 0.0001 electrons / valence electron
 Maximum integral of absolute [eigenst]ate change: 5e-06 eV^2 / valence electron
 Maximum number of scf [iter]ations: 333
 (Square brackets indicate name in SCF output, whereas a 'c' in
 the SCF output indicates the quantity has converged.)

Symmetries present (total): 2

  ( 1  0  0)  ( 1  0  0)
  ( 0  1  0)  ( 0 -1  0)
  ( 0  0  1)  ( 0  0  1)

9 k-points: 3 x 3 x 1 Monkhorst-Pack grid
4 k-points in the irreducible part of the Brillouin zone
       k-points in crystal coordinates                weights
   0:     0.00000000    0.00000000    0.00000000          1/9
   1:     0.00000000    0.33333333    0.00000000          2/9
   2:     0.33333333    0.00000000    0.00000000          2/9
   3:     0.33333333    0.33333333    0.00000000          4/9

Wave functions: Plane wave expansion
  Cutoff energy: 400.000 eV
  Number of coefficients (min, max): 119816, 119896
  Pulay-stress correction: 0.000000 eV/Ang^3 (de/decut=0.000000)
  Using Numpy's FFT
  ScaLapack parameters: grid=1x1, blocksize=None
  Wavefunction extrapolation:
    Improved wavefunction reuse through dual PAW basis 

Occupation numbers: Fermi-Dirac:
  width: 0.1000  # eV
 

Eigensolver
   Davidson(niter=2) 

Densities:
  Coarse grid: 84*60*135 grid
  Fine grid: 168*120*270 grid
  Total Charge: 0.000000 

Density mixing:
  Method: separate
  Backend: pulay
  Linear mixing parameter: 0.05
  old densities: 5
  Damping of long wavelength oscillations: 50 

Hamiltonian:
  XC and Coulomb potentials evaluated on a 168*120*270 grid
  Using the PBE Exchange-Correlation functional
  External potential:
    NoExternalPotential
 

XC parameters: PBE with 2 nearest neighbor stencil

Memory estimate:
  Process memory now: 5830.31 MiB
  Calculator: 3375.69 MiB
    Density: 313.62 MiB
      Arrays: 134.97 MiB
      Localized functions: 126.74 MiB
      Mixer: 51.91 MiB
    Hamiltonian: 90.83 MiB
      Arrays: 88.25 MiB
      XC: 0.00 MiB
      Poisson: 0.00 MiB
      vbar: 2.59 MiB
    Wavefunctions: 2971.23 MiB
      Arrays psit_nG: 2275.86 MiB
      Eigensolver: 592.88 MiB
      Projections: 18.01 MiB
      Projectors: 51.21 MiB
      PW-descriptor: 33.27 MiB

Total number of cores used: 1

Number of atoms: 73
Number of atomic orbitals: 511
Number of bands in calculation: 311
Number of valence electrons: 511
Bands to converge: occupied

... initialized

Initializing position-dependent things.

Density initialized from atomic densities
Creating initial wave functions:
  311 bands from LCAO basis set

         .-------------------------------------------.  
        /|                                           |  
       / |                                           |  
      /  |                                           |  
     /   |                                           |  
    /    |                                           |  
   /     |                                           |  
  /      |                                           |  
 *       |                                           |  
 |       |                                           |  
 |       |                                           |  
 |       |                                           |  
 |       |                                           |  
 |       |                                           |  
 |      Na            Na             Na              |  
 |       |    Na            Na             Na        |  
 |       |                                           |  
 |   Na Na          Na            Na                 |  
 |       | Na  Na         Na  Na        Na  Na       |  
 | Na    |       Na  Na         Na  Na            Na |  
 |       |  Na             Na             Na         |  
 |      Na        Na  NNa            NNa        Na   |  
 |       |                       Na                  |  
 |       |Na  Na        Na  Na         Na  Na        |  
 Na  Na  |      Na  Na        Na  Na                 |  
 |       | Na  Na         Na  Na        Na  Na       |  
 |    Na |           Na             Na               |  
 |Na     |       Na             Na                   |  
 |      Na  Na         Na  Na         Na  Na         |  
 |  Na   |        Na             Na                  |  
 |       |Na            Na             Na            |  
 |       |                                           |  
 Na      |      Na            Na                     |  
 |       |                                           |  
 |       |                                           |  
 |       |                                           |  
 |       .-------------------------------------------.  
 |      /                                           /   
 |     /                                           /    
 |    /                                           /     
 |   /                                           /      
 |  /                                           /       
 | /                                           /        
 |/                                           /         
 *-------------------------------------------*          

Atomic positions and initial magnetic moments

Positions:
   0 Na     0.000000    0.000000   10.000000    ( 0.0000,  0.0000,  0.0000)
   1 Na     2.991062    2.115000   10.000000    ( 0.0000,  0.0000,  0.0000)
   2 Na     2.991062    0.000000   12.991062    ( 0.0000,  0.0000,  0.0000)
   3 Na     5.982123    2.115000   12.991062    ( 0.0000,  0.0000,  0.0000)
   4 Na     0.049569    0.000000   15.904198    ( 0.0000,  0.0000,  0.0000)
   5 Na     2.991062    2.237839   15.744939    ( 0.0000,  0.0000,  0.0000)
   6 Na     2.991062   -0.000000   18.202392    ( 0.0000,  0.0000,  0.0000)
   7 Na     0.118110    1.979398   19.048576    ( 0.0000,  0.0000,  0.0000)
   8 Na     0.000000    4.230000   10.000000    ( 0.0000,  0.0000,  0.0000)
   9 Na     2.991062    6.345000   10.000000    ( 0.0000,  0.0000,  0.0000)
  10 Na     2.991062    4.230000   12.991062    ( 0.0000,  0.0000,  0.0000)
  11 Na     5.982123    6.345000   12.991062    ( 0.0000,  0.0000,  0.0000)
  12 Na    -0.043290    4.205887   16.004422    ( 0.0000,  0.0000,  0.0000)
  13 Na     2.991062    6.345000   16.000326    ( 0.0000,  0.0000,  0.0000)
  14 Na     2.991062    4.127084   18.907368    ( 0.0000,  0.0000,  0.0000)
  15 Na     0.038383    6.345000   18.865441    ( 0.0000,  0.0000,  0.0000)
  16 Na     0.000000    8.460000   10.000000    ( 0.0000,  0.0000,  0.0000)
  17 Na     2.991062   10.575000   10.000000    ( 0.0000,  0.0000,  0.0000)
  18 Na     2.991062    8.460000   12.991062    ( 0.0000,  0.0000,  0.0000)
  19 Na     5.982123   10.575000   12.991062    ( 0.0000,  0.0000,  0.0000)
  20 Na    -0.043290    8.484113   16.004422    ( 0.0000,  0.0000,  0.0000)
  21 Na     2.991062   10.452161   15.744939    ( 0.0000,  0.0000,  0.0000)
  22 Na     2.991062    8.562916   18.907368    ( 0.0000,  0.0000,  0.0000)
  23 Na     0.118110   10.710602   19.048576    ( 0.0000,  0.0000,  0.0000)
  24 Na     5.982123    0.000000   10.000000    ( 0.0000,  0.0000,  0.0000)
  25 Na     8.973185    2.115000   10.000000    ( 0.0000,  0.0000,  0.0000)
  26 Na     8.973185    0.000000   12.991062    ( 0.0000,  0.0000,  0.0000)
  27 Na    11.964247    2.115000   12.991062    ( 0.0000,  0.0000,  0.0000)
  28 Na     5.932555   -0.000000   15.904198    ( 0.0000,  0.0000,  0.0000)
  29 Na     8.978509    2.115823   15.944506    ( 0.0000,  0.0000,  0.0000)
  30 Na     8.947811   -0.000000   18.868449    ( 0.0000,  0.0000,  0.0000)
  31 Na     5.864013    1.979398   19.048576    ( 0.0000,  0.0000,  0.0000)
  32 Na     5.982123    4.230000   10.000000    ( 0.0000,  0.0000,  0.0000)
  33 Na     8.973185    6.345000   10.000000    ( 0.0000,  0.0000,  0.0000)
  34 Na     8.973185    4.230000   12.991062    ( 0.0000,  0.0000,  0.0000)
  35 Na    11.964247    6.345000   12.991062    ( 0.0000,  0.0000,  0.0000)
  36 Na     6.025413    4.205887   16.004422    ( 0.0000,  0.0000,  0.0000)
  37 Na     8.970023    6.345000   15.938311    ( 0.0000,  0.0000,  0.0000)
  38 Na     8.923808    4.197251   18.863979    ( 0.0000,  0.0000,  0.0000)
  39 Na     5.943741    6.345000   18.865441    ( 0.0000,  0.0000,  0.0000)
  40 Na     5.982123    8.460000   10.000000    ( 0.0000,  0.0000,  0.0000)
  41 Na     8.973185   10.575000   10.000000    ( 0.0000,  0.0000,  0.0000)
  42 Na     8.973185    8.460000   12.991062    ( 0.0000,  0.0000,  0.0000)
  43 Na    11.964247   10.575000   12.991062    ( 0.0000,  0.0000,  0.0000)
  44 Na     6.025413    8.484113   16.004422    ( 0.0000,  0.0000,  0.0000)
  45 Na     8.978509   10.574177   15.944506    ( 0.0000,  0.0000,  0.0000)
  46 Na     8.923808    8.492749   18.863979    ( 0.0000,  0.0000,  0.0000)
  47 Na     5.864013   10.710602   19.048576    ( 0.0000,  0.0000,  0.0000)
  48 Na    11.964247    0.000000   10.000000    ( 0.0000,  0.0000,  0.0000)
  49 Na    14.955308    2.115000   10.000000    ( 0.0000,  0.0000,  0.0000)
  50 Na    14.955308    0.000000   12.991062    ( 0.0000,  0.0000,  0.0000)
  51 Na    17.946370    2.115000   12.991062    ( 0.0000,  0.0000,  0.0000)
  52 Na    11.964247    0.000000   15.939598    ( 0.0000,  0.0000,  0.0000)
  53 Na    14.949985    2.115823   15.944506    ( 0.0000,  0.0000,  0.0000)
  54 Na    14.980683   -0.000000   18.868449    ( 0.0000,  0.0000,  0.0000)
  55 Na    11.964247    2.117116   18.865109    ( 0.0000,  0.0000,  0.0000)
  56 Na    11.964247    4.230000   10.000000    ( 0.0000,  0.0000,  0.0000)
  57 Na    14.955308    6.345000   10.000000    ( 0.0000,  0.0000,  0.0000)
  58 Na    14.955308    4.230000   12.991062    ( 0.0000,  0.0000,  0.0000)
  59 Na    17.946370    6.345000   12.991062    ( 0.0000,  0.0000,  0.0000)
  60 Na    11.964247    4.230437   15.938375    ( 0.0000,  0.0000,  0.0000)
  61 Na    14.958470    6.345000   15.938311    ( 0.0000,  0.0000,  0.0000)
  62 Na    15.004685    4.197251   18.863979    ( 0.0000,  0.0000,  0.0000)
  63 Na    11.964247    6.345000   18.871958    ( 0.0000,  0.0000,  0.0000)
  64 Na    11.964247    8.460000   10.000000    ( 0.0000,  0.0000,  0.0000)
  65 Na    14.955308   10.575000   10.000000    ( 0.0000,  0.0000,  0.0000)
  66 Na    14.955308    8.460000   12.991062    ( 0.0000,  0.0000,  0.0000)
  67 Na    17.946370   10.575000   12.991062    ( 0.0000,  0.0000,  0.0000)
  68 Na    11.964247    8.459563   15.938375    ( 0.0000,  0.0000,  0.0000)
  69 Na    14.949985   10.574177   15.944506    ( 0.0000,  0.0000,  0.0000)
  70 Na    15.004685    8.492749   18.863979    ( 0.0000,  0.0000,  0.0000)
  71 Na    11.964247   10.572884   18.865109    ( 0.0000,  0.0000,  0.0000)
  72 Na     2.991062    0.000000   21.339934    ( 0.0000,  0.0000,  0.0000)

Unit cell:
           periodic     x           y           z      points  spacing
  1. axis:    yes   17.946370    0.000000    0.000000    84     0.2136
  2. axis:    yes    0.000000   12.690000    0.000000    60     0.2115
  3. axis:    no     0.000000    0.000000   28.973185   135     0.2146

  Lengths:  17.946370  12.690000  28.973185
  Angles:   90.000000  90.000000  90.000000

Effective grid spacing dv^(1/3) = 0.2133

     iter     time        total  log10-change:
                         energy   eigst   dens
iter:   1 23:45:49   -91.172137
iter:   2 23:49:17   -90.810321   -1.33  -1.53
iter:   3 23:53:22   -90.480534   -1.91  -1.60
iter:   4 23:56:48   -90.242641   -2.25  -1.73
iter:   5 00:00:27   -90.375888c  -2.50  -1.96
iter:   6 00:03:52   -90.292169c  -2.95  -2.11
iter:   7 00:07:14   -90.280271c  -3.36  -2.47
iter:   8 00:10:48   -90.270675c  -3.79  -2.79
iter:   9 00:14:21   -90.264879c  -4.17  -2.94
iter:  10 00:17:33   -90.258304c  -4.47  -3.08
iter:  11 00:20:30   -90.255158c  -4.77  -3.22
iter:  12 00:23:40   -90.253212c  -4.92  -3.33
iter:  13 00:27:21   -90.252741c  -5.26  -3.48
iter:  14 00:31:06   -90.252451c  -5.63c -3.57
iter:  15 00:34:13   -90.252312c  -5.90c -3.66
iter:  16 00:37:41   -90.252196c  -6.11c -3.75
iter:  17 00:41:08   -90.252289c  -6.37c -3.90
iter:  18 00:44:11   -90.252323c  -6.65c -4.06c

Converged after 18 iterations.

Dipole moment: (-7.904662, -0.000000, 0.282682) |e|*Ang

Energy contributions relative to reference atoms: (reference = -322558.566329)

Kinetic:        +83.638190
Potential:      -74.722633
External:        +0.000000
XC:             -96.205734
Entropy (-ST):   -1.251653
Local:           -2.336320
SIC:             +0.000000
--------------------------
Free energy:    -90.878150
Extrapolated:   -90.252323

Showing only first 2 kpts
 Kpt  Band  Eigenvalues  Occupancy
  0   253     -1.69043    1.77774
  0   254     -1.67669    1.74912
  0   255     -1.51188    1.14583
  0   256     -1.42588    0.72424

  1   253     -1.57078    1.41478
  1   254     -1.50725    1.12309
  1   255     -1.48833    1.02915
  1   256     -1.45115    0.84449


Fermi level: -1.48250

No gap
No difference between direct/indirect transitions
Timing:                              incl.     excl.
-----------------------------------------------------------
Hamiltonian:                         3.331     0.009   0.0% |
 Atomic:                             0.851     0.002   0.0% |
  XC Correction:                     0.848     0.848   0.0% |
 Calculate atomic Hamiltonians:      1.751     1.751   0.0% |
 Communicate:                        0.000     0.000   0.0% |
 Initialize Hamiltonian:             0.010     0.010   0.0% |
 Poisson:                            0.044     0.044   0.0% |
 XC 3D grid:                         0.667     0.667   0.0% |
LCAO initialization:               891.500     0.012   0.0% |
 LCAO eigensolver:                   1.545     0.002   0.0% |
  Calculate projections:             0.050     0.050   0.0% |
  DenseAtomicCorrection:             0.230     0.230   0.0% |
  Distribute overlap matrix:         0.002     0.002   0.0% |
  Orbital Layouts:                   0.434     0.434   0.0% |
  Potential matrix:                  0.813     0.813   0.0% |
  Sum over cells:                    0.015     0.015   0.0% |
 LCAO to grid:                     888.890   888.890  19.4% |-------|
 Set positions (LCAO WFS):           1.053     0.319   0.0% |
  Basic WFS set positions:           0.002     0.002   0.0% |
  Basis functions set positions:     0.000     0.000   0.0% |
  P tci:                             0.499     0.499   0.0% |
  ST tci:                            0.204     0.204   0.0% |
  mktci:                             0.030     0.030   0.0% |
PWDescriptor:                        0.077     0.077   0.0% |
SCF-cycle:                        3686.885     0.124   0.0% |
 Davidson:                        3311.137   631.613  13.8% |-----|
  Apply H:                         434.639   427.317   9.3% |---|
   HMM T:                            7.322     7.322   0.2% |
  Subspace diag:                   701.917     0.039   0.0% |
   calc_h_matrix:                  571.504    98.823   2.2% ||
    Apply H:                       472.680   422.244   9.2% |---|
     HMM T:                         50.437    50.437   1.1% |
   diagonalize:                      2.362     2.362   0.1% |
   rotate_psi:                     128.011   128.011   2.8% ||
  calc. matrices:                 1320.552   441.402   9.6% |---|
   Apply H:                        879.150   861.466  18.8% |-------|
    HMM T:                          17.684    17.684   0.4% |
  diagonalize:                      33.152    33.152   0.7% |
  rotate_psi:                      189.265   189.265   4.1% |-|
 Density:                          295.335     0.001   0.0% |
  Atomic density matrices:           0.364     0.364   0.0% |
  Mix:                              69.998    69.998   1.5% ||
  Multipole moments:                 0.024     0.024   0.0% |
  Pseudo density:                  224.948   224.788   4.9% |-|
   Symmetrize density:               0.160     0.160   0.0% |
 Hamiltonian:                       63.993     0.260   0.0% |
  Atomic:                           15.907     0.055   0.0% |
   XC Correction:                   15.851    15.851   0.3% |
  Calculate atomic Hamiltonians:    32.699    32.699   0.7% |
  Communicate:                       0.000     0.000   0.0% |
  Poisson:                           1.159     1.159   0.0% |
  XC 3D grid:                       13.968    13.968   0.3% |
 Orthonormalize:                    16.296     0.002   0.0% |
  calc_s_matrix:                     3.287     3.287   0.1% |
  inverse-cholesky:                  0.024     0.024   0.0% |
  projections:                       8.443     8.443   0.2% |
  rotate_psi_s:                      4.540     4.540   0.1% |
Set symmetry:                        0.001     0.001   0.0% |
Other:                               8.288     8.288   0.2% |
-----------------------------------------------------------
Total:                                      4590.082 100.0%

Memory usage: 7.33 GiB
Date: Tue Dec  2 00:44:11 2025
