
  ___ ___ ___ _ _ _  
 |   |   |_  | | | | 
 | | | | | . | | | | 
 |__ |  _|___|_____|  25.7.0
 |___|_|             

User:   tew@Mathuss-MacBook-Air-357.local
Date:   Wed Nov 26 08:18:15 2025
Arch:   arm64
Pid:    20322
CWD:    /Users/tew/Documents/Project/GitHub/chem-com
Python: 3.13.5
gpaw:   /Users/tew/Documents/Project/GitHub/chem-com/.venv/lib/python3.13/site-packages/gpaw
_gpaw:  /Users/tew/Documents/Project/GitHub/chem-com/.venv/lib/python3.13/site-packages/
        _gpaw.cpython-313-darwin.so
ase:    /Users/tew/Documents/Project/GitHub/chem-com/.venv/lib/python3.13/site-packages/ase (version 3.26.0)
numpy:  /Users/tew/Documents/Project/GitHub/chem-com/.venv/lib/python3.13/site-packages/numpy (version 2.3.5)
scipy:  /Users/tew/Documents/Project/GitHub/chem-com/.venv/lib/python3.13/site-packages/scipy (version 1.16.3)
libxc:  2.x.y
units:  Angstrom and eV
cores: 1
OpenMP: False
OMP_NUM_THREADS: 1

Input parameters:
  convergence: {density: 0.0001,
                eigenstates: 5e-06}
  kpts: [2 2 1]
  mode: {ecut: 400.0,
         name: pw}
  xc: PBE

System changes: positions, numbers, cell, pbc, initial_charges, initial_magmoms 

Initialize ...

species:
  K:
    name: Potassium
    id: 04190408da443a44668134082ce1c192
    Z: 19.0
    valence: 9
    core: 10
    charge: 0.0
    file: /Users/tew/Documents/Project/GitHub/chem-com/.venv/lib/python3.13/site-packages/gpaw_data/setups/K.PBE.gz
    compensation charges: {type: gauss,
                           rc: 0.35,
                           lmax: 2}
    cutoffs: {filter: 1.91,
              core: 1.27}
    projectors:
      #              energy  rcut
      - 3s(2.00)   -35.338   1.122
      - 4s(1.00)    -2.319   1.122
      - 3p(6.00)   -18.813   1.106
      -  p           8.398   1.106
      -  d           0.000   0.937
  
    # Using partial waves for K as LCAO basis

Reference energy: -1195904.484944  # eV

Spin-paired calculation

Convergence criteria:
 Maximum [total energy] change in last 3 cyles: 0.0005 eV / valence electron
 Maximum integral of absolute [dens]ity change: 0.0001 electrons / valence electron
 Maximum integral of absolute [eigenst]ate change: 5e-06 eV^2 / valence electron
 Maximum number of scf [iter]ations: 333
 (Square brackets indicate name in SCF output, whereas a 'c' in
 the SCF output indicates the quantity has converged.)

Symmetries present (total): 2

  ( 1  0  0)  ( 1  0  0)
  ( 0  1  0)  ( 0 -1  0)
  ( 0  0  1)  ( 0  0  1)

4 k-points: 2 x 2 x 1 Monkhorst-Pack grid
1 k-point in the irreducible part of the Brillouin zone
       k-points in crystal coordinates                weights
   0:     0.25000000    0.25000000    0.00000000          4/4

Wave functions: Plane wave expansion
  Cutoff energy: 400.000 eV
  Number of coefficients (min, max): 196655, 196655
  Pulay-stress correction: 0.000000 eV/Ang^3 (de/decut=0.000000)
  Using Numpy's FFT
  ScaLapack parameters: grid=1x1, blocksize=None
  Wavefunction extrapolation:
    Improved wavefunction reuse through dual PAW basis 

Occupation numbers: Fermi-Dirac:
  width: 0.1000  # eV
 

Eigensolver
   Davidson(niter=2) 

Densities:
  Coarse grid: 105*75*144 grid
  Fine grid: 210*150*288 grid
  Total Charge: 0.000000 

Density mixing:
  Method: separate
  Backend: pulay
  Linear mixing parameter: 0.05
  old densities: 5
  Damping of long wavelength oscillations: 50 

Hamiltonian:
  XC and Coulomb potentials evaluated on a 210*150*288 grid
  Using the PBE Exchange-Correlation functional
  External potential:
    NoExternalPotential
 

XC parameters: PBE with 2 nearest neighbor stencil

Memory estimate:
  Process memory now: 6348.70 MiB
  Calculator: 2969.14 MiB
    Density: 519.40 MiB
      Arrays: 224.95 MiB
      Localized functions: 207.94 MiB
      Mixer: 86.52 MiB
    Hamiltonian: 151.32 MiB
      Arrays: 147.08 MiB
      XC: 0.00 MiB
      Poisson: 0.00 MiB
      vbar: 4.24 MiB
    Wavefunctions: 2298.42 MiB
      Arrays psit_nG: 1095.26 MiB
      Eigensolver: 1130.61 MiB
      Projections: 5.29 MiB
      Projectors: 21.01 MiB
      PW-descriptor: 46.26 MiB

Total number of cores used: 1

Number of atoms: 73
Number of atomic orbitals: 365
Number of bands in calculation: 365
Number of valence electrons: 657
Bands to converge: occupied

... initialized

Initializing position-dependent things.

Density initialized from atomic densities
Creating initial wave functions:
  365 bands from LCAO basis set

           .------------------------------------------------------.  
          /|                                                      |  
         / |                                                      |  
        /  |                                                      |  
       /   |                                                      |  
      /    |                                                      |  
     /     |                                                      |  
    /      |                                                      |  
   /       |                                                      |  
  /        |                                                      |  
 *         |                                                      |  
 |         |                                                      |  
 |         |                                                      |  
 |         |                                                      |  
 |        K|               K                  K                   |  
 |         |     K                                                |  
 |         |                       K                  K           |  
 |    K    |            K                  K                      |  
 |        K|                         K                 K          |  
 |         | K    K             K                 K               |  
 | K       |         K    K                 K                  K  |  
 |         |                           K                          |  
 |         |   K            K     K            K    K             |  
 |       KK|           K    K            K    K            K      |  
 |         |                                                      |  
 |         |K    K            K    K            K    K            |  
 |    K    |            K                  K                      |  
 |         |       K                 KK                KK         |  
 |         | K                  K                 K               |  
 |      K  |              K                 K                     |  
 | K       |         K                 K                          |  
 |        K|   K             K   K             K    K             |  
 |  K      |           K                 K                        |  
 |         |                                                      |  
 |         |K                 K                  K                |  
 |         |                                                      |  
 K         |       K                  K                           |  
 |         |                                                      |  
 |         .------------------------------------------------------.  
 |        /                                                      /   
 |       /                                                      /    
 |      /                                                      /     
 |     /                                                      /      
 |    /                                                      /       
 |   /                                                      /        
 |  /                                                      /         
 | /                                                      /          
 |/                                                      /           
 *------------------------------------------------------*            

Atomic positions and initial magnetic moments

Positions:
   0 K      0.000000    0.000000   10.000000    ( 0.0000,  0.0000,  0.0000)
   1 K      3.698168    2.615000   10.000000    ( 0.0000,  0.0000,  0.0000)
   2 K      3.698168    0.000000   13.698168    ( 0.0000,  0.0000,  0.0000)
   3 K      0.000000    2.615000   13.698168    ( 0.0000,  0.0000,  0.0000)
   4 K     -0.028983    0.000000   17.346053    ( 0.0000,  0.0000,  0.0000)
   5 K      3.698168    2.835248   17.184393    ( 0.0000,  0.0000,  0.0000)
   6 K      3.698168    0.000000   20.215997    ( 0.0000,  0.0000,  0.0000)
   7 K      0.102635    2.531033   21.279365    ( 0.0000,  0.0000,  0.0000)
   8 K      0.000000    5.230000   10.000000    ( 0.0000,  0.0000,  0.0000)
   9 K      3.698168    7.845000   10.000000    ( 0.0000,  0.0000,  0.0000)
  10 K      3.698168    5.230000   13.698168    ( 0.0000,  0.0000,  0.0000)
  11 K      0.000000    7.845000   13.698168    ( 0.0000,  0.0000,  0.0000)
  12 K     -0.030147    5.221905   17.453813    ( 0.0000,  0.0000,  0.0000)
  13 K      3.698168    7.845000   17.451906    ( 0.0000,  0.0000,  0.0000)
  14 K      3.698168    5.148165   21.216706    ( 0.0000,  0.0000,  0.0000)
  15 K      0.020305    7.845000   21.119136    ( 0.0000,  0.0000,  0.0000)
  16 K      0.000000   10.460000   10.000000    ( 0.0000,  0.0000,  0.0000)
  17 K      3.698168   13.075000   10.000000    ( 0.0000,  0.0000,  0.0000)
  18 K      3.698168   10.460000   13.698168    ( 0.0000,  0.0000,  0.0000)
  19 K      0.000000   13.075000   13.698168    ( 0.0000,  0.0000,  0.0000)
  20 K     -0.030147   10.468095   17.453813    ( 0.0000,  0.0000,  0.0000)
  21 K      3.698168   12.854752   17.184393    ( 0.0000,  0.0000,  0.0000)
  22 K      3.698168   10.541835   21.216706    ( 0.0000,  0.0000,  0.0000)
  23 K      0.102635   13.158967   21.279365    ( 0.0000,  0.0000,  0.0000)
  24 K      7.396337    0.000000   10.000000    ( 0.0000,  0.0000,  0.0000)
  25 K     11.094505    2.615000   10.000000    ( 0.0000,  0.0000,  0.0000)
  26 K     11.094505    0.000000   13.698168    ( 0.0000,  0.0000,  0.0000)
  27 K      7.396337    2.615000   13.698168    ( 0.0000,  0.0000,  0.0000)
  28 K      7.425320    0.000000   17.346053    ( 0.0000,  0.0000,  0.0000)
  29 K     11.110086    2.619177   17.416373    ( 0.0000,  0.0000,  0.0000)
  30 K     11.075588    0.000000   21.120456    ( 0.0000,  0.0000,  0.0000)
  31 K      7.293702    2.531033   21.279365    ( 0.0000,  0.0000,  0.0000)
  32 K      7.396337    5.230000   10.000000    ( 0.0000,  0.0000,  0.0000)
  33 K     11.094505    7.845000   10.000000    ( 0.0000,  0.0000,  0.0000)
  34 K     11.094505    5.230000   13.698168    ( 0.0000,  0.0000,  0.0000)
  35 K      7.396337    7.845000   13.698168    ( 0.0000,  0.0000,  0.0000)
  36 K      7.426484    5.221905   17.453813    ( 0.0000,  0.0000,  0.0000)
  37 K     11.100021    7.845000   17.414062    ( 0.0000,  0.0000,  0.0000)
  38 K     11.076152    5.217811   21.111007    ( 0.0000,  0.0000,  0.0000)
  39 K      7.376032    7.845000   21.119136    ( 0.0000,  0.0000,  0.0000)
  40 K      7.396337   10.460000   10.000000    ( 0.0000,  0.0000,  0.0000)
  41 K     11.094505   13.075000   10.000000    ( 0.0000,  0.0000,  0.0000)
  42 K     11.094505   10.460000   13.698168    ( 0.0000,  0.0000,  0.0000)
  43 K      7.396337   13.075000   13.698168    ( 0.0000,  0.0000,  0.0000)
  44 K      7.426484   10.468095   17.453813    ( 0.0000,  0.0000,  0.0000)
  45 K     11.110086   13.070823   17.416373    ( 0.0000,  0.0000,  0.0000)
  46 K     11.076152   10.472189   21.111007    ( 0.0000,  0.0000,  0.0000)
  47 K      7.293702   13.158967   21.279365    ( 0.0000,  0.0000,  0.0000)
  48 K     14.792674    0.000000   10.000000    ( 0.0000,  0.0000,  0.0000)
  49 K     18.490842    2.615000   10.000000    ( 0.0000,  0.0000,  0.0000)
  50 K     18.490842    0.000000   13.698168    ( 0.0000,  0.0000,  0.0000)
  51 K     14.792674    2.615000   13.698168    ( 0.0000,  0.0000,  0.0000)
  52 K     14.792674    0.000000   17.413860    ( 0.0000,  0.0000,  0.0000)
  53 K     18.475261    2.619177   17.416373    ( 0.0000,  0.0000,  0.0000)
  54 K     18.509760    0.000000   21.120456    ( 0.0000,  0.0000,  0.0000)
  55 K     14.792674    2.614903   21.114404    ( 0.0000,  0.0000,  0.0000)
  56 K     14.792674    5.230000   10.000000    ( 0.0000,  0.0000,  0.0000)
  57 K     18.490842    7.845000   10.000000    ( 0.0000,  0.0000,  0.0000)
  58 K     18.490842    5.230000   13.698168    ( 0.0000,  0.0000,  0.0000)
  59 K     14.792674    7.845000   13.698168    ( 0.0000,  0.0000,  0.0000)
  60 K     14.792674    5.232163   17.412282    ( 0.0000,  0.0000,  0.0000)
  61 K     18.485327    7.845000   17.414062    ( 0.0000,  0.0000,  0.0000)
  62 K     18.509196    5.217811   21.111007    ( 0.0000,  0.0000,  0.0000)
  63 K     14.792674    7.845000   21.119302    ( 0.0000,  0.0000,  0.0000)
  64 K     14.792674   10.460000   10.000000    ( 0.0000,  0.0000,  0.0000)
  65 K     18.490842   13.075000   10.000000    ( 0.0000,  0.0000,  0.0000)
  66 K     18.490842   10.460000   13.698168    ( 0.0000,  0.0000,  0.0000)
  67 K     14.792674   13.075000   13.698168    ( 0.0000,  0.0000,  0.0000)
  68 K     14.792674   10.457837   17.412282    ( 0.0000,  0.0000,  0.0000)
  69 K     18.475261   13.070823   17.416373    ( 0.0000,  0.0000,  0.0000)
  70 K     18.509196   10.472189   21.111007    ( 0.0000,  0.0000,  0.0000)
  71 K     14.792674   13.075097   21.114404    ( 0.0000,  0.0000,  0.0000)
  72 K      3.698168    0.000000   24.243093    ( 0.0000,  0.0000,  0.0000)

Unit cell:
           periodic     x           y           z      points  spacing
  1. axis:    yes   22.189011    0.000000    0.000000   105     0.2113
  2. axis:    yes    0.000000   15.690000    0.000000    75     0.2092
  3. axis:    no     0.000000    0.000000   31.094505   144     0.2159

  Lengths:  22.189011  15.690000  31.094505
  Angles:   90.000000  90.000000  90.000000

Effective grid spacing dv^(1/3) = 0.2121

     iter     time        total  log10-change:
                         energy   eigst   dens
iter:   1 08:27:41   -96.300180
iter:   2 08:30:44   -94.416286   -1.73  -1.33
iter:   3 08:33:16   -81.114501   -0.98  -1.35
iter:   4 08:35:51   -80.345319   -2.33  -1.61
iter:   5 08:38:54   -80.274691   -2.78  -1.71
iter:   6 08:41:24   -80.429926c  -3.16  -1.75
iter:   7 08:44:06   -80.708742   -3.21  -1.80
iter:   8 08:47:02   -80.660053c  -2.79  -2.09
iter:   9 08:50:11   -80.506951c  -3.72  -2.21
iter:  10 08:53:13   -80.505733c  -4.69  -2.84
iter:  11 08:56:14   -80.507114c  -4.79  -2.89
iter:  12 08:58:42   -80.505919c  -5.02  -3.05
iter:  13 09:01:32   -80.505547c  -5.28  -3.09
iter:  14 09:04:00   -80.505262c  -5.68c -3.13
iter:  15 09:06:16   -80.505286c  -5.67c -3.29
iter:  16 09:08:54   -80.505065c  -6.46c -3.53
iter:  17 09:11:45   -80.504983c  -6.77c -3.69
iter:  18 09:14:25   -80.504995c  -6.28c -3.77
iter:  19 09:17:27   -80.504886c  -7.09c -3.97
iter:  20 09:19:59   -80.504850c  -7.29c -4.09c

Converged after 20 iterations.

Dipole moment: (-18.981043, 0.000000, 0.389678) |e|*Ang

Energy contributions relative to reference atoms: (reference = -1195904.484944)

Kinetic:       -228.415389
Potential:     +267.962993
External:        +0.000000
XC:             -75.702901
Entropy (-ST):   -2.075798
Local:          -43.311655
SIC:             +0.000000
--------------------------
Free energy:    -81.542749
Extrapolated:   -80.504850

 Band  Eigenvalues  Occupancy
    0    -33.41999    2.00000
    1    -32.95085    2.00000
    2    -32.95065    2.00000
    3    -32.94678    2.00000
    4    -32.94644    2.00000
    5    -32.94630    2.00000
    6    -32.94625    2.00000
    7    -32.94618    2.00000
    8    -32.94492    2.00000
    9    -32.94484    2.00000
   10    -32.94481    2.00000
   11    -32.94444    2.00000
   12    -32.94382    2.00000
   13    -32.94331    2.00000
   14    -32.94250    2.00000
   15    -32.94248    2.00000
   16    -32.94227    2.00000
   17    -32.94183    2.00000
   18    -32.94171    2.00000
   19    -32.94146    2.00000
   20    -32.94117    2.00000
   21    -32.94090    2.00000
   22    -32.94085    2.00000
   23    -32.94080    2.00000
   24    -32.93973    2.00000
   25    -32.93963    2.00000
   26    -32.93948    2.00000
   27    -32.93902    2.00000
   28    -32.93714    2.00000
   29    -32.93672    2.00000
   30    -32.93462    2.00000
   31    -32.93431    2.00000
   32    -32.92168    2.00000
   33    -32.92166    2.00000
   34    -32.92150    2.00000
   35    -32.92146    2.00000
   36    -32.79514    2.00000
   37    -32.74974    2.00000
   38    -32.74968    2.00000
   39    -32.74369    2.00000
   40    -32.74349    2.00000
   41    -32.74338    2.00000
   42    -32.74331    2.00000
   43    -32.74097    2.00000
   44    -32.74084    2.00000
   45    -32.73865    2.00000
   46    -32.73863    2.00000
   47    -32.73861    2.00000
   48    -32.73856    2.00000
   49    -32.73562    2.00000
   50    -32.73510    2.00000
   51    -32.73485    2.00000
   52    -32.73473    2.00000
   53    -32.73443    2.00000
   54    -32.73434    2.00000
   55    -32.73408    2.00000
   56    -32.73324    2.00000
   57    -32.73323    2.00000
   58    -32.73309    2.00000
   59    -32.73259    2.00000
   60    -32.73199    2.00000
   61    -32.73140    2.00000
   62    -32.73124    2.00000
   63    -32.72985    2.00000
   64    -32.72957    2.00000
   65    -32.72349    2.00000
   66    -32.72330    2.00000
   67    -32.72312    2.00000
   68    -32.72307    2.00000
   69    -32.72270    2.00000
   70    -32.71888    2.00000
   71    -32.71738    2.00000
   72    -32.71736    2.00000
   73    -16.93177    2.00000
   74    -16.90894    2.00000
   75    -16.90795    2.00000
   76    -16.47339    2.00000
   77    -16.47106    2.00000
   78    -16.47029    2.00000
   79    -16.46980    2.00000
   80    -16.46925    2.00000
   81    -16.46813    2.00000
   82    -16.46687    2.00000
   83    -16.46602    2.00000
   84    -16.46597    2.00000
   85    -16.46556    2.00000
   86    -16.46542    2.00000
   87    -16.46496    2.00000
   88    -16.46449    2.00000
   89    -16.46438    2.00000
   90    -16.46418    2.00000
   91    -16.46371    2.00000
   92    -16.46365    2.00000
   93    -16.46350    2.00000
   94    -16.46341    2.00000
   95    -16.46333    2.00000
   96    -16.46323    2.00000
   97    -16.46304    2.00000
   98    -16.46280    2.00000
   99    -16.46191    2.00000
  100    -16.46167    2.00000
  101    -16.46128    2.00000
  102    -16.46126    2.00000
  103    -16.46115    2.00000
  104    -16.46091    2.00000
  105    -16.46017    2.00000
  106    -16.45966    2.00000
  107    -16.45944    2.00000
  108    -16.45911    2.00000
  109    -16.45896    2.00000
  110    -16.45885    2.00000
  111    -16.45870    2.00000
  112    -16.45841    2.00000
  113    -16.45822    2.00000
  114    -16.45803    2.00000
  115    -16.45745    2.00000
  116    -16.45700    2.00000
  117    -16.45687    2.00000
  118    -16.45639    2.00000
  119    -16.45576    2.00000
  120    -16.45480    2.00000
  121    -16.45447    2.00000
  122    -16.45372    2.00000
  123    -16.45278    2.00000
  124    -16.45215    2.00000
  125    -16.45192    2.00000
  126    -16.45164    2.00000
  127    -16.45155    2.00000
  128    -16.45117    2.00000
  129    -16.45084    2.00000
  130    -16.44663    2.00000
  131    -16.44450    2.00000
  132    -16.44334    2.00000
  133    -16.44282    2.00000
  134    -16.44223    2.00000
  135    -16.44180    2.00000
  136    -16.44106    2.00000
  137    -16.44099    2.00000
  138    -16.43978    2.00000
  139    -16.43890    2.00000
  140    -16.43844    2.00000
  141    -16.43810    2.00000
  142    -16.43749    2.00000
  143    -16.43699    2.00000
  144    -16.43676    2.00000
  145    -16.43528    2.00000
  146    -16.43447    2.00000
  147    -16.43442    2.00000
  148    -16.43380    2.00000
  149    -16.43363    2.00000
  150    -16.43172    2.00000
  151    -16.43077    2.00000
  152    -16.42861    2.00000
  153    -16.42795    2.00000
  154    -16.42790    2.00000
  155    -16.42732    2.00000
  156    -16.42629    2.00000
  157    -16.42575    2.00000
  158    -16.42522    2.00000
  159    -16.42389    2.00000
  160    -16.42348    2.00000
  161    -16.42278    2.00000
  162    -16.42223    2.00000
  163    -16.42145    2.00000
  164    -16.41931    2.00000
  165    -16.41827    2.00000
  166    -16.41792    2.00000
  167    -16.41710    2.00000
  168    -16.41467    2.00000
  169    -16.41424    2.00000
  170    -16.41399    2.00000
  171    -16.41398    2.00000
  172    -16.41367    2.00000
  173    -16.41290    2.00000
  174    -16.41276    2.00000
  175    -16.41210    2.00000
  176    -16.41145    2.00000
  177    -16.41070    2.00000
  178    -16.41056    2.00000
  179    -16.40819    2.00000
  180    -16.40689    2.00000
  181    -16.33311    2.00000
  182    -16.32197    2.00000
  183    -16.29995    2.00000
  184    -16.28032    2.00000
  185    -16.27798    2.00000
  186    -16.27688    2.00000
  187    -16.27620    2.00000
  188    -16.27463    2.00000
  189    -16.27431    2.00000
  190    -16.27360    2.00000
  191    -16.27237    2.00000
  192    -16.27118    2.00000
  193    -16.27078    2.00000
  194    -16.27028    2.00000
  195    -16.26980    2.00000
  196    -16.26903    2.00000
  197    -16.26810    2.00000
  198    -16.26722    2.00000
  199    -16.26626    2.00000
  200    -16.26528    2.00000
  201    -16.26452    2.00000
  202    -16.26406    2.00000
  203    -16.26279    2.00000
  204    -16.26238    2.00000
  205    -16.26174    2.00000
  206    -16.26078    2.00000
  207    -16.25997    2.00000
  208    -16.25958    2.00000
  209    -16.25881    2.00000
  210    -16.25829    2.00000
  211    -16.25791    2.00000
  212    -16.25751    2.00000
  213    -16.25522    2.00000
  214    -16.25417    2.00000
  215    -16.25361    2.00000
  216    -16.25301    2.00000
  217    -16.25218    2.00000
  218    -16.25113    2.00000
  219    -16.24992    2.00000
  220    -16.24908    2.00000
  221    -16.24889    2.00000
  222    -16.24826    2.00000
  223    -16.24790    2.00000
  224    -16.24741    2.00000
  225    -16.24645    2.00000
  226    -16.24569    2.00000
  227    -16.24354    2.00000
  228    -16.24343    2.00000
  229    -16.24280    2.00000
  230    -16.24159    2.00000
  231    -16.24118    2.00000
  232    -16.24080    2.00000
  233    -16.24048    2.00000
  234    -16.24016    2.00000
  235    -16.23925    2.00000
  236    -16.23877    2.00000
  237    -16.23789    2.00000
  238    -16.23761    2.00000
  239    -16.23689    2.00000
  240    -16.23592    2.00000
  241    -16.23573    2.00000
  242    -16.23555    2.00000
  243    -16.23484    2.00000
  244    -16.23437    2.00000
  245    -16.23349    2.00000
  246    -16.23273    2.00000
  247    -16.23217    2.00000
  248    -16.23155    2.00000
  249    -16.23138    2.00000
  250    -16.23079    2.00000
  251    -16.23046    2.00000
  252    -16.22946    2.00000
  253    -16.22889    2.00000
  254    -16.22836    2.00000
  255    -16.22775    2.00000
  256    -16.22753    2.00000
  257    -16.22711    2.00000
  258    -16.22654    2.00000
  259    -16.22628    2.00000
  260    -16.22528    2.00000
  261    -16.22457    2.00000
  262    -16.22407    2.00000
  263    -16.22386    2.00000
  264    -16.22323    2.00000
  265    -16.22290    2.00000
  266    -16.22254    2.00000
  267    -16.22194    2.00000
  268    -16.22138    2.00000
  269    -16.22089    2.00000
  270    -16.22075    2.00000
  271    -16.22033    2.00000
  272    -16.22020    2.00000
  273    -16.21962    2.00000
  274    -16.21950    2.00000
  275    -16.21849    2.00000
  276    -16.21771    2.00000
  277    -16.21719    2.00000
  278    -16.21687    2.00000
  279    -16.21672    2.00000
  280    -16.21599    2.00000
  281    -16.21469    2.00000
  282    -16.21465    2.00000
  283    -16.21438    2.00000
  284    -16.21320    2.00000
  285    -16.21273    2.00000
  286    -16.21216    2.00000
  287    -16.21177    2.00000
  288    -16.21024    2.00000
  289    -16.20956    2.00000
  290    -16.20939    2.00000
  291    -16.20595    2.00000
  292     -2.64089    2.00000
  293     -2.46742    2.00000
  294     -2.29756    2.00000
  295     -2.27289    2.00000
  296     -2.13305    2.00000
  297     -2.12536    2.00000
  298     -2.10173    2.00000
  299     -1.93711    2.00000
  300     -1.80173    1.99998
  301     -1.77958    1.99998
  302     -1.76390    1.99997
  303     -1.67018    1.99993
  304     -1.64107    1.99991
  305     -1.63622    1.99991
  306     -1.50540    1.99966
  307     -1.48164    1.99956
  308     -1.45104    1.99941
  309     -1.34332    1.99826
  310     -1.32352    1.99788
  311     -1.29751    1.99726
  312     -1.28642    1.99694
  313     -1.19268    1.99219
  314     -1.17296    1.99050
  315     -1.17203    1.99041
  316     -1.14047    1.98688
  317     -1.02444    1.95872
  318     -0.98872    1.94151
  319     -0.93757    1.90432
  320     -0.86476    1.81149
  321     -0.84429    1.77353
  322     -0.77136    1.58128
  323     -0.73313    1.44080
  324     -0.72680    1.41496
  325     -0.72464    1.40597
  326     -0.71133    1.34895
  327     -0.70672    1.32852
  328     -0.69200    1.26138
  329     -0.60455    0.83197
  330     -0.58837    0.75457
  331     -0.56880    0.66505
  332     -0.46582    0.30205
  333     -0.43490    0.23098
  334     -0.41727    0.19733
  335     -0.41080    0.18612
  336     -0.40563    0.17758
  337     -0.40039    0.16928
  338     -0.32116    0.08037
  339     -0.30915    0.07160
  340     -0.29649    0.06336
  341     -0.27693    0.05240
  342     -0.20755    0.02653
  343     -0.16535    0.01748
  344     -0.14795    0.01470
  345     -0.11127    0.01021
  346     -0.04086    0.00506
  347     -0.03098    0.00459
  348     -0.01429    0.00388
  349      0.00787    0.00311
  350      0.02280    0.00268
  351      0.08387    0.00146
  352      0.08863    0.00139
  353      0.10645    0.00116
  354      0.12426    0.00097
  355      0.12678    0.00095
  356      0.14807    0.00077
  357      0.16913    0.00062
  358      0.18306    0.00054
  359      0.23657    0.00032
  360      0.26229    0.00024
  361      0.27729    0.00021
  362      0.28377    0.00020
  363      0.32267    0.00013
  364      0.38103    0.00007

Fermi level: -0.63848

Gap: 0.087 eV
Transition (v -> c):
  (s=0, k=0, n=328, [0.25, 0.25, 0.00]) -> (s=0, k=0, n=329, [0.25, 0.25, 0.00])
No difference between direct/indirect transitions
Timing:                              incl.     excl.
-----------------------------------------------------------
Hamiltonian:                         7.061     0.020   0.0% |
 Atomic:                             1.625     0.008   0.0% |
  XC Correction:                     1.617     1.617   0.0% |
 Calculate atomic Hamiltonians:      3.316     3.316   0.1% |
 Communicate:                        0.000     0.000   0.0% |
 Initialize Hamiltonian:             0.001     0.001   0.0% |
 Poisson:                            0.331     0.331   0.0% |
 XC 3D grid:                         1.769     1.769   0.0% |
LCAO initialization:               398.302     0.020   0.0% |
 LCAO eigensolver:                   0.695     0.003   0.0% |
  Calculate projections:             0.023     0.023   0.0% |
  DenseAtomicCorrection:             0.053     0.053   0.0% |
  Distribute overlap matrix:         0.000     0.000   0.0% |
  Orbital Layouts:                   0.091     0.091   0.0% |
  Potential matrix:                  0.516     0.516   0.0% |
  Sum over cells:                    0.008     0.008   0.0% |
 LCAO to grid:                     397.223   397.223  10.7% |---|
 Set positions (LCAO WFS):           0.364     0.115   0.0% |
  Basic WFS set positions:           0.007     0.007   0.0% |
  Basis functions set positions:     0.000     0.000   0.0% |
  P tci:                             0.153     0.153   0.0% |
  ST tci:                            0.059     0.059   0.0% |
  mktci:                             0.029     0.029   0.0% |
PWDescriptor:                        0.836     0.836   0.0% |
SCF-cycle:                        3264.060     0.711   0.0% |
 Davidson:                        2521.881   397.404  10.7% |---|
  Apply H:                         281.700   271.398   7.3% |--|
   HMM T:                           10.303    10.303   0.3% |
  Subspace diag:                   678.338     0.055   0.0% |
   calc_h_matrix:                  452.114    82.077   2.2% ||
    Apply H:                       370.036   267.307   7.2% |--|
     HMM T:                        102.730   102.730   2.8% ||
   diagonalize:                      1.130     1.130   0.0% |
   rotate_psi:                     225.040   225.040   6.1% |-|
  calc. matrices:                  939.238   378.851  10.2% |---|
   Apply H:                        560.387   548.238  14.8% |-----|
    HMM T:                          12.149    12.149   0.3% |
  diagonalize:                      16.066    16.066   0.4% |
  rotate_psi:                      209.134   209.134   5.6% |-|
 Density:                          576.465     0.001   0.0% |
  Atomic density matrices:           0.404     0.404   0.0% |
  Mix:                             438.597   438.597  11.8% |----|
  Multipole moments:                 0.083     0.083   0.0% |
  Pseudo density:                  137.380   137.010   3.7% ||
   Symmetrize density:               0.371     0.371   0.0% |
 Hamiltonian:                      152.729     2.889   0.1% |
  Atomic:                           26.059     0.164   0.0% |
   XC Correction:                   25.895    25.895   0.7% |
  Calculate atomic Hamiltonians:    81.425    81.425   2.2% ||
  Communicate:                       0.000     0.000   0.0% |
  Poisson:                          11.463    11.463   0.3% |
  XC 3D grid:                       30.893    30.893   0.8% |
 Orthonormalize:                    12.275     0.005   0.0% |
  calc_s_matrix:                     2.013     2.013   0.1% |
  inverse-cholesky:                  0.019     0.019   0.0% |
  projections:                       7.036     7.036   0.2% |
  rotate_psi_s:                      3.201     3.201   0.1% |
Set symmetry:                        0.001     0.001   0.0% |
Other:                              33.826    33.826   0.9% |
-----------------------------------------------------------
Total:                                      3704.085 100.0%

Memory usage: 6.20 GiB
Date: Wed Nov 26 09:19:59 2025
