
  ___ ___ ___ _ _ _  
 |   |   |_  | | | | 
 | | | | | . | | | | 
 |__ |  _|___|_____|  25.7.0
 |___|_|             

User:   tew@Mathuss-MacBook-Air-357.local
Date:   Tue Nov 25 05:19:08 2025
Arch:   arm64
Pid:    53368
CWD:    /Users/tew/Documents/Project/GitHub/chem-com
Python: 3.13.5
gpaw:   /Users/tew/Documents/Project/GitHub/chem-com/.venv/lib/python3.13/site-packages/gpaw
_gpaw:  /Users/tew/Documents/Project/GitHub/chem-com/.venv/lib/python3.13/site-packages/
        _gpaw.cpython-313-darwin.so
ase:    /Users/tew/Documents/Project/GitHub/chem-com/.venv/lib/python3.13/site-packages/ase (version 3.26.0)
numpy:  /Users/tew/Documents/Project/GitHub/chem-com/.venv/lib/python3.13/site-packages/numpy (version 2.3.5)
scipy:  /Users/tew/Documents/Project/GitHub/chem-com/.venv/lib/python3.13/site-packages/scipy (version 1.16.3)
libxc:  2.x.y
units:  Angstrom and eV
cores: 1
OpenMP: False
OMP_NUM_THREADS: 1

Input parameters:
  convergence: {density: 0.0001,
                eigenstates: 5e-06}
  kpts: [4 4 1]
  mode: {ecut: 300.0,
         name: pw}
  xc: PBE

System changes: positions, numbers, cell, pbc, initial_charges, initial_magmoms 

Initialize ...

species:
  Li:
    name: Lithium
    id: 830b4218f175192f93f959cfc0aad614
    Z: 3.0
    valence: 1
    core: 2
    charge: 0.0
    file: /Users/tew/Documents/Project/GitHub/chem-com/.venv/lib/python3.13/site-packages/gpaw_data/setups/Li.PBE.gz
    compensation charges: {type: gauss,
                           rc: 0.33,
                           lmax: 2}
    cutoffs: {filter: 1.91,
              core: 2.55}
    projectors:
      #              energy  rcut
      - 2s(1.00)    -2.874   1.058
      - 2p(0.00)    -1.090   1.058
      -  s          24.337   1.058
  
    # Using partial waves for Li as LCAO basis

Reference energy: -14803.510878  # eV

Spin-paired calculation

Convergence criteria:
 Maximum [total energy] change in last 3 cyles: 0.0005 eV / valence electron
 Maximum integral of absolute [dens]ity change: 0.0001 electrons / valence electron
 Maximum integral of absolute [eigenst]ate change: 5e-06 eV^2 / valence electron
 Maximum number of scf [iter]ations: 333
 (Square brackets indicate name in SCF output, whereas a 'c' in
 the SCF output indicates the quantity has converged.)

Symmetries present (total): 2

  ( 1  0  0)  ( 0  1  0)
  ( 0  1  0)  ( 1  0  0)
  ( 0  0  1)  ( 0  0  1)

16 k-points: 4 x 4 x 1 Monkhorst-Pack grid
6 k-points in the irreducible part of the Brillouin zone
       k-points in crystal coordinates                weights
   0:     0.12500000   -0.12500000    0.00000000          2/16
   1:     0.12500000    0.12500000    0.00000000          2/16
   2:     0.37500000   -0.37500000    0.00000000          2/16
   3:     0.37500000   -0.12500000    0.00000000          4/16
   4:     0.37500000    0.12500000    0.00000000          4/16
   5:     0.37500000    0.37500000    0.00000000          2/16

Wave functions: Plane wave expansion
  Cutoff energy: 300.000 eV
  Number of coefficients (min, max): 60561, 60649
  Pulay-stress correction: 0.000000 eV/Ang^3 (de/decut=0.000000)
  Using Numpy's FFT
  ScaLapack parameters: grid=1x1, blocksize=None
  Wavefunction extrapolation:
    Improved wavefunction reuse through dual PAW basis 

Occupation numbers: Fermi-Dirac:
  width: 0.1000  # eV
 

Eigensolver
   Davidson(niter=2) 

Densities:
  Coarse grid: 60*60*112 grid
  Fine grid: 120*120*224 grid
  Total Charge: 0.000000 

Density mixing:
  Method: separate
  Backend: pulay
  Linear mixing parameter: 0.05
  old densities: 5
  Damping of long wavelength oscillations: 50 

Hamiltonian:
  XC and Coulomb potentials evaluated on a 120*120*224 grid
  Using the PBE Exchange-Correlation functional
  External potential:
    NoExternalPotential
 

XC parameters: PBE with 2 nearest neighbor stencil

Memory estimate:
  Process memory now: 6173.83 MiB
  Calculator: 586.30 MiB
    Density: 174.82 MiB
      Arrays: 79.98 MiB
      Localized functions: 64.08 MiB
      Mixer: 30.76 MiB
    Hamiltonian: 53.60 MiB
      Arrays: 52.29 MiB
      XC: 0.00 MiB
      Poisson: 0.00 MiB
      vbar: 1.31 MiB
    Wavefunctions: 357.88 MiB
      Arrays psit_nG: 266.52 MiB
      Eigensolver: 49.40 MiB
      Projections: 1.60 MiB
      Projectors: 19.42 MiB
      PW-descriptor: 20.93 MiB

Total number of cores used: 1

Number of atoms: 73
Number of atomic orbitals: 292
Number of bands in calculation: 48
Number of valence electrons: 73
Bands to converge: occupied

... initialized

Initializing position-dependent things.

Density initialized from atomic densities
Creating initial wave functions:
  48 bands from LCAO basis set

                                                                       
                                                                       
                                                                       
                                                                       
                                                                       
                                                                       
                               Li          Li          Li              
                                                                       
                                      Li          Li          Li       
              Li       Lii        LiLi        LiLi                     
                             LiLi        LiLi        LiLi              
                Li        LiLi        LiLi        Li          Li       
              Li      LiLi         Lii         Lii                     
       Li          LiLi        LiLi        LiLi        Li              
                Li          Lii         Lii          Li                
              Li        LiLi        LiLi        Li                     
                     Lii         LiLi        LiLi                      
       Li          Li          Li                                      
              LiLi        LiLi        LiLi                             
                                                                       
       Li          Li          Li                                      
                                                                       
                                                                       
                                                                       
                                                                       

Atomic positions and initial magnetic moments

Positions:
   0 Li     0.000000    0.000000   10.000000    ( 0.0000,  0.0000,  0.0000)
   1 Li     2.467803    1.424787   11.007476    ( 0.0000,  0.0000,  0.0000)
   2 Li     4.935605    2.849573   12.014952    ( 0.0000,  0.0000,  0.0000)
   3 Li     0.000000    0.000000   13.022429    ( 0.0000,  0.0000,  0.0000)
   4 Li     2.464430    1.422839   13.573106    ( 0.0000,  0.0000,  0.0000)
   5 Li     4.919949    2.840534   15.038352    ( 0.0000,  0.0000,  0.0000)
   6 Li    -0.000738   -0.000426   15.927618    ( 0.0000,  0.0000,  0.0000)
   7 Li     2.461619    1.421216   16.041120    ( 0.0000,  0.0000,  0.0000)
   8 Li     2.467803    4.274360   10.000000    ( 0.0000,  0.0000,  0.0000)
   9 Li     4.935605    5.699146   11.007476    ( 0.0000,  0.0000,  0.0000)
  10 Li     7.403408    7.123933   12.014952    ( 0.0000,  0.0000,  0.0000)
  11 Li     2.467803    4.274360   13.022429    ( 0.0000,  0.0000,  0.0000)
  12 Li     4.930106    5.706197   14.030913    ( 0.0000,  0.0000,  0.0000)
  13 Li     7.401525    7.120077   15.081065    ( 0.0000,  0.0000,  0.0000)
  14 Li     2.460915    4.270837   15.928627    ( 0.0000,  0.0000,  0.0000)
  15 Li     4.978211    5.658534   16.982678    ( 0.0000,  0.0000,  0.0000)
  16 Li     4.935605    8.548719   10.000000    ( 0.0000,  0.0000,  0.0000)
  17 Li     7.403408    9.973506   11.007476    ( 0.0000,  0.0000,  0.0000)
  18 Li     9.871211   11.398292   12.014952    ( 0.0000,  0.0000,  0.0000)
  19 Li     4.935605    8.548719   13.022429    ( 0.0000,  0.0000,  0.0000)
  20 Li     7.394586    9.969720   14.029897    ( 0.0000,  0.0000,  0.0000)
  21 Li     9.868950   11.403772   15.033170    ( 0.0000,  0.0000,  0.0000)
  22 Li     4.940095    8.541860   15.852376    ( 0.0000,  0.0000,  0.0000)
  23 Li     7.460330    9.949379   16.980502    ( 0.0000,  0.0000,  0.0000)
  24 Li     4.935605    0.000000   10.000000    ( 0.0000,  0.0000,  0.0000)
  25 Li     7.403408    1.424787   11.007476    ( 0.0000,  0.0000,  0.0000)
  26 Li     9.871211    2.849573   12.014952    ( 0.0000,  0.0000,  0.0000)
  27 Li     4.935605    0.000000   13.022429    ( 0.0000,  0.0000,  0.0000)
  28 Li     7.406765    1.416498   14.030913    ( 0.0000,  0.0000,  0.0000)
  29 Li     9.866930    2.849870   15.081065    ( 0.0000,  0.0000,  0.0000)
  30 Li     4.929111   -0.004203   15.928627    ( 0.0000,  0.0000,  0.0000)
  31 Li     7.389540    1.481990   16.982678    ( 0.0000,  0.0000,  0.0000)
  32 Li     7.403408    4.274360   10.000000    ( 0.0000,  0.0000,  0.0000)
  33 Li     9.871211    5.699146   11.007476    ( 0.0000,  0.0000,  0.0000)
  34 Li    12.339013    7.123933   12.014952    ( 0.0000,  0.0000,  0.0000)
  35 Li     7.403408    4.274360   13.022429    ( 0.0000,  0.0000,  0.0000)
  36 Li     9.872531    5.699908   14.001256    ( 0.0000,  0.0000,  0.0000)
  37 Li    12.332496    7.120170   15.083137    ( 0.0000,  0.0000,  0.0000)
  38 Li     7.375465    4.258227   15.800208    ( 0.0000,  0.0000,  0.0000)
  39 Li     9.869915    5.698398   16.923285    ( 0.0000,  0.0000,  0.0000)
  40 Li     9.871211    8.548719   10.000000    ( 0.0000,  0.0000,  0.0000)
  41 Li    12.339013    9.973506   11.007476    ( 0.0000,  0.0000,  0.0000)
  42 Li    14.806816   11.398292   12.014952    ( 0.0000,  0.0000,  0.0000)
  43 Li     9.871211    8.548719   13.022429    ( 0.0000,  0.0000,  0.0000)
  44 Li    12.345304    9.966861   14.028292    ( 0.0000,  0.0000,  0.0000)
  45 Li    14.808465   11.387617   15.095446    ( 0.0000,  0.0000,  0.0000)
  46 Li     9.869825    8.576979   15.797403    ( 0.0000,  0.0000,  0.0000)
  47 Li    12.279172    9.948567   16.977219    ( 0.0000,  0.0000,  0.0000)
  48 Li     9.871211    0.000000   10.000000    ( 0.0000,  0.0000,  0.0000)
  49 Li    12.339013    1.424787   11.007476    ( 0.0000,  0.0000,  0.0000)
  50 Li    14.806816    2.849573   12.014952    ( 0.0000,  0.0000,  0.0000)
  51 Li     9.871211    0.000000   13.022429    ( 0.0000,  0.0000,  0.0000)
  52 Li    12.331324    1.419039   14.029897    ( 0.0000,  0.0000,  0.0000)
  53 Li    14.810431    2.844875   15.033170    ( 0.0000,  0.0000,  0.0000)
  54 Li     9.867515    0.007318   15.852376    ( 0.0000,  0.0000,  0.0000)
  55 Li    12.346580    1.486146   16.980502    ( 0.0000,  0.0000,  0.0000)
  56 Li    12.339013    4.274360   10.000000    ( 0.0000,  0.0000,  0.0000)
  57 Li    14.806816    5.699146   11.007476    ( 0.0000,  0.0000,  0.0000)
  58 Li    17.274619    7.123933   12.014952    ( 0.0000,  0.0000,  0.0000)
  59 Li    12.339013    4.274360   13.022429    ( 0.0000,  0.0000,  0.0000)
  60 Li    14.804207    5.707917   14.028292    ( 0.0000,  0.0000,  0.0000)
  61 Li    17.266198    7.130699   15.095446    ( 0.0000,  0.0000,  0.0000)
  62 Li    12.362794    4.259030   15.797403    ( 0.0000,  0.0000,  0.0000)
  63 Li    14.755298    5.659792   16.977219    ( 0.0000,  0.0000,  0.0000)
  64 Li    14.806816    8.548719   10.000000    ( 0.0000,  0.0000,  0.0000)
  65 Li    17.274619    9.973506   11.007476    ( 0.0000,  0.0000,  0.0000)
  66 Li    19.742421   11.398292   12.014952    ( 0.0000,  0.0000,  0.0000)
  67 Li    14.806816    8.548719   13.022429    ( 0.0000,  0.0000,  0.0000)
  68 Li    17.270919    9.971370   14.019938    ( 0.0000,  0.0000,  0.0000)
  69 Li    19.730019   11.391132   15.097381    ( 0.0000,  0.0000,  0.0000)
  70 Li    14.792866    8.540665   15.852163    ( 0.0000,  0.0000,  0.0000)
  71 Li    17.266780    9.968980   16.934610    ( 0.0000,  0.0000,  0.0000)
  72 Li     2.478624    1.431034   18.618216    ( 0.0000,  0.0000,  0.0000)

Unit cell:
           periodic     x           y           z      points  spacing
  1. axis:    yes   14.806816    0.000000    0.000000    60     0.2137
  2. axis:    yes    7.403408   12.823079    0.000000    60     0.2137
  3. axis:    no     0.000000    0.000000   27.052334   112     0.2415

  Lengths:  14.806816  14.806816  27.052334
  Angles:   90.000000  90.000000  60.000000

Effective grid spacing dv^(1/3) = 0.2335

     iter     time        total  log10-change:
                         energy   eigst   dens
iter:   1 05:20:32  -134.435257
iter:   2 05:20:47  -130.158780   -0.95  -0.52
iter:   3 05:21:02  -125.873512   -0.80  -0.63
iter:   4 05:21:18  -127.317437   -1.29  -0.89
iter:   5 05:21:33  -126.701678   -1.96  -0.82
iter:   6 05:21:49  -126.147972   -1.01  -0.87
iter:   7 05:22:04  -125.079062   -2.00  -0.98
iter:   8 05:22:20  -125.114110   -2.36  -1.38
iter:   9 05:22:36  -125.142786   -2.57  -1.44
iter:  10 05:22:51  -125.112992c  -3.11  -1.47
iter:  11 05:23:06  -125.136018c  -2.68  -1.66
iter:  12 05:23:20  -125.120413c  -3.54  -1.75
iter:  13 05:23:35  -125.109534c  -3.30  -1.94
iter:  14 05:23:49  -125.110623c  -3.97  -2.26
iter:  15 05:24:04  -125.109142c  -4.19  -2.33
iter:  16 05:24:18  -125.109026c  -4.58  -2.55
iter:  17 05:24:33  -125.109064c  -4.49  -2.59
iter:  18 05:24:48  -125.108765c  -4.69  -2.78
iter:  19 05:25:02  -125.108729c  -4.93  -2.93
iter:  20 05:25:16  -125.108686c  -5.21  -3.11
iter:  21 05:25:31  -125.108448c  -5.08  -3.11
iter:  22 05:25:46  -125.108365c  -5.40c -3.33
iter:  23 05:26:00  -125.108289c  -5.50c -3.47
iter:  24 05:26:15  -125.108197c  -5.42c -3.49
iter:  25 05:26:29  -125.108172c  -5.34c -3.53
iter:  26 05:26:44  -125.108128c  -5.65c -3.76
iter:  27 05:26:59  -125.108079c  -5.53c -3.86
iter:  28 05:27:13  -125.108045c  -5.70c -3.95
iter:  29 05:27:28  -125.108001c  -5.65c -4.09c

Converged after 29 iterations.

Dipole moment: (-10.537229, -6.083672, 0.332306) |e|*Ang

Energy contributions relative to reference atoms: (reference = -14803.510878)

Kinetic:        +98.723520
Potential:      -88.309968
External:        +0.000000
XC:            -134.482046
Entropy (-ST):   -1.214847
Local:           -0.432083
SIC:             +0.000000
--------------------------
Free energy:   -125.715424
Extrapolated:  -125.108001

Showing only first 2 kpts
 Kpt  Band  Eigenvalues  Occupancy
  0    34     -1.90258    1.51300
  0    35     -1.85128    1.30068
  0    36     -1.81546    1.13042
  0    37     -1.77721    0.94000

  1    34     -2.09948    1.91400
  1    35     -2.05225    1.86556
  1    36     -1.94763    1.65955
  1    37     -1.82221    1.16343


Fermi level: -1.78922

No gap
No difference between direct/indirect transitions
Timing:                              incl.     excl.
-----------------------------------------------------------
Hamiltonian:                         1.662     0.004   0.0% |
 Atomic:                             0.451     0.002   0.0% |
  XC Correction:                     0.450     0.450   0.1% |
 Calculate atomic Hamiltonians:      0.828     0.828   0.2% |
 Communicate:                        0.000     0.000   0.0% |
 Initialize Hamiltonian:             0.000     0.000   0.0% |
 Poisson:                            0.003     0.003   0.0% |
 XC 3D grid:                         0.376     0.376   0.1% |
LCAO initialization:                65.740     0.003   0.0% |
 LCAO eigensolver:                   0.579     0.000   0.0% |
  Calculate projections:             0.007     0.007   0.0% |
  DenseAtomicCorrection:             0.092     0.092   0.0% |
  Distribute overlap matrix:         0.001     0.001   0.0% |
  Orbital Layouts:                   0.153     0.153   0.0% |
  Potential matrix:                  0.321     0.321   0.1% |
  Sum over cells:                    0.005     0.005   0.0% |
 LCAO to grid:                      64.290    64.290  12.9% |----|
 Set positions (LCAO WFS):           0.869     0.181   0.0% |
  Basic WFS set positions:           0.001     0.001   0.0% |
  Basis functions set positions:     0.000     0.000   0.0% |
  P tci:                             0.561     0.561   0.1% |
  ST tci:                            0.115     0.115   0.0% |
  mktci:                             0.010     0.010   0.0% |
PWDescriptor:                        0.037     0.037   0.0% |
SCF-cycle:                         429.420     0.029   0.0% |
 Davidson:                         338.302    59.385  11.9% |----|
  Apply H:                          60.914    60.374  12.1% |----|
   HMM T:                            0.541     0.541   0.1% |
  Subspace diag:                    68.574     0.012   0.0% |
   calc_h_matrix:                   63.831     3.550   0.7% |
    Apply H:                        60.280    59.747  12.0% |----|
     HMM T:                          0.533     0.533   0.1% |
   diagonalize:                      0.087     0.087   0.0% |
   rotate_psi:                       4.645     4.645   0.9% |
  calc. matrices:                  139.290    17.441   3.5% ||
   Apply H:                        121.848   120.755  24.2% |---------|
    HMM T:                           1.093     1.093   0.2% |
  diagonalize:                       0.679     0.679   0.1% |
  rotate_psi:                        9.460     9.460   1.9% ||
 Density:                           47.568     0.000   0.0% |
  Atomic density matrices:           0.097     0.097   0.0% |
  Mix:                              17.777    17.777   3.6% ||
  Multipole moments:                 0.011     0.011   0.0% |
  Pseudo density:                   29.684    29.574   5.9% |-|
   Symmetrize density:               0.110     0.110   0.0% |
 Hamiltonian:                       42.842     0.104   0.0% |
  Atomic:                           11.760     0.042   0.0% |
   XC Correction:                   11.718    11.718   2.3% ||
  Calculate atomic Hamiltonians:    21.314    21.314   4.3% |-|
  Communicate:                       0.000     0.000   0.0% |
  Poisson:                           0.063     0.063   0.0% |
  XC 3D grid:                        9.601     9.601   1.9% ||
 Orthonormalize:                     0.678     0.000   0.0% |
  calc_s_matrix:                     0.079     0.079   0.0% |
  inverse-cholesky:                  0.001     0.001   0.0% |
  projections:                       0.497     0.497   0.1% |
  rotate_psi_s:                      0.101     0.101   0.0% |
Set symmetry:                        0.000     0.000   0.0% |
Other:                               2.836     2.836   0.6% |
-----------------------------------------------------------
Total:                                       499.695 100.0%

Memory usage: 6.03 GiB
Date: Tue Nov 25 05:27:28 2025
