
  ___ ___ ___ _ _ _  
 |   |   |_  | | | | 
 | | | | | . | | | | 
 |__ |  _|___|_____|  25.7.0
 |___|_|             

User:   tew@Mathuss-MacBook-Air-357.local
Date:   Wed Nov 26 03:20:04 2025
Arch:   arm64
Pid:    20322
CWD:    /Users/tew/Documents/Project/GitHub/chem-com
Python: 3.13.5
gpaw:   /Users/tew/Documents/Project/GitHub/chem-com/.venv/lib/python3.13/site-packages/gpaw
_gpaw:  /Users/tew/Documents/Project/GitHub/chem-com/.venv/lib/python3.13/site-packages/
        _gpaw.cpython-313-darwin.so
ase:    /Users/tew/Documents/Project/GitHub/chem-com/.venv/lib/python3.13/site-packages/ase (version 3.26.0)
numpy:  /Users/tew/Documents/Project/GitHub/chem-com/.venv/lib/python3.13/site-packages/numpy (version 2.3.5)
scipy:  /Users/tew/Documents/Project/GitHub/chem-com/.venv/lib/python3.13/site-packages/scipy (version 1.16.3)
libxc:  2.x.y
units:  Angstrom and eV
cores: 1
OpenMP: False
OMP_NUM_THREADS: 1

Input parameters:
  convergence: {density: 0.0001,
                eigenstates: 5e-06}
  kpts: [2 2 1]
  mode: {ecut: 300.0,
         name: pw}
  xc: PBE

System changes: positions, numbers, cell, pbc, initial_charges, initial_magmoms 

Initialize ...

species:
  K:
    name: Potassium
    id: 04190408da443a44668134082ce1c192
    Z: 19.0
    valence: 9
    core: 10
    charge: 0.0
    file: /Users/tew/Documents/Project/GitHub/chem-com/.venv/lib/python3.13/site-packages/gpaw_data/setups/K.PBE.gz
    compensation charges: {type: gauss,
                           rc: 0.35,
                           lmax: 2}
    cutoffs: {filter: 1.91,
              core: 1.27}
    projectors:
      #              energy  rcut
      - 3s(2.00)   -35.338   1.122
      - 4s(1.00)    -2.319   1.122
      - 3p(6.00)   -18.813   1.106
      -  p           8.398   1.106
      -  d           0.000   0.937
  
    # Using partial waves for K as LCAO basis

Reference energy: -1195904.484944  # eV

Spin-paired calculation

Convergence criteria:
 Maximum [total energy] change in last 3 cyles: 0.0005 eV / valence electron
 Maximum integral of absolute [dens]ity change: 0.0001 electrons / valence electron
 Maximum integral of absolute [eigenst]ate change: 5e-06 eV^2 / valence electron
 Maximum number of scf [iter]ations: 333
 (Square brackets indicate name in SCF output, whereas a 'c' in
 the SCF output indicates the quantity has converged.)

Symmetries present (total): 2

  ( 1  0  0)  ( 1  0  0)
  ( 0  1  0)  ( 0 -1  0)
  ( 0  0  1)  ( 0  0  1)

4 k-points: 2 x 2 x 1 Monkhorst-Pack grid
1 k-point in the irreducible part of the Brillouin zone
       k-points in crystal coordinates                weights
   0:     0.25000000    0.25000000    0.00000000          4/4

Wave functions: Plane wave expansion
  Cutoff energy: 300.000 eV
  Number of coefficients (min, max): 127743, 127743
  Pulay-stress correction: 0.000000 eV/Ang^3 (de/decut=0.000000)
  Using Numpy's FFT
  ScaLapack parameters: grid=1x1, blocksize=None
  Wavefunction extrapolation:
    Improved wavefunction reuse through dual PAW basis 

Occupation numbers: Fermi-Dirac:
  width: 0.1000  # eV
 

Eigensolver
   Davidson(niter=2) 

Densities:
  Coarse grid: 90*63*125 grid
  Fine grid: 180*126*250 grid
  Total Charge: 0.000000 

Density mixing:
  Method: separate
  Backend: pulay
  Linear mixing parameter: 0.05
  old densities: 5
  Damping of long wavelength oscillations: 50 

Hamiltonian:
  XC and Coulomb potentials evaluated on a 180*126*250 grid
  Using the PBE Exchange-Correlation functional
  External potential:
    NoExternalPotential
 

XC parameters: PBE with 2 nearest neighbor stencil

Memory estimate:
  Process memory now: 426.31 MiB
  Calculator: 1925.32 MiB
    Density: 329.72 MiB
      Arrays: 140.59 MiB
      Localized functions: 135.06 MiB
      Mixer: 54.07 MiB
    Hamiltonian: 94.68 MiB
      Arrays: 91.92 MiB
      XC: 0.00 MiB
      Poisson: 0.00 MiB
      vbar: 2.76 MiB
    Wavefunctions: 1500.92 MiB
      Arrays psit_nG: 711.46 MiB
      Eigensolver: 741.54 MiB
      Projections: 5.29 MiB
      Projectors: 13.64 MiB
      PW-descriptor: 28.99 MiB

Total number of cores used: 1

Number of atoms: 73
Number of atomic orbitals: 365
Number of bands in calculation: 365
Number of valence electrons: 657
Bands to converge: occupied

... initialized

Initializing position-dependent things.

Density initialized from atomic densities
Creating initial wave functions:
  365 bands from LCAO basis set

           .------------------------------------------------------.  
          /|                                                      |  
         / |                                                      |  
        /  |                                                      |  
       /   |                                                      |  
      /    |                                                      |  
     /     |                                                      |  
    /      |                                                      |  
   /       |                                                      |  
  /        |                                                      |  
 *         |                                                      |  
 |         |                                                      |  
 |         |                                                      |  
 |         |                                                      |  
 |        K|               K                  K                   |  
 |         |     K                                                |  
 |         |                       K                  K           |  
 |    K    |            K                  K                      |  
 |        K|                         K                 K          |  
 |         | K    K             K                 K               |  
 | K       |         K    K                 K                  K  |  
 |         |                           K                          |  
 |         |   K            K     K            K    K             |  
 |       KK|           K    K            K    K            K      |  
 |         |                                                      |  
 |         |K    K            K    K            K    K            |  
 |    K    |            K                  K                      |  
 |         |       K                 KK                KK         |  
 |         | K                  K                 K               |  
 |      K  |              K                 K                     |  
 | K       |         K                 K                          |  
 |        K|   K             K   K             K    K             |  
 |  K      |           K                 K                        |  
 |         |                                                      |  
 |         |K                 K                  K                |  
 |         |                                                      |  
 K         |       K                  K                           |  
 |         |                                                      |  
 |         .------------------------------------------------------.  
 |        /                                                      /   
 |       /                                                      /    
 |      /                                                      /     
 |     /                                                      /      
 |    /                                                      /       
 |   /                                                      /        
 |  /                                                      /         
 | /                                                      /          
 |/                                                      /           
 *------------------------------------------------------*            

Atomic positions and initial magnetic moments

Positions:
   0 K      0.000000    0.000000   10.000000    ( 0.0000,  0.0000,  0.0000)
   1 K      3.698168    2.615000   10.000000    ( 0.0000,  0.0000,  0.0000)
   2 K      3.698168    0.000000   13.698168    ( 0.0000,  0.0000,  0.0000)
   3 K      0.000000    2.615000   13.698168    ( 0.0000,  0.0000,  0.0000)
   4 K     -0.028983    0.000000   17.346053    ( 0.0000,  0.0000,  0.0000)
   5 K      3.698168    2.835248   17.184393    ( 0.0000,  0.0000,  0.0000)
   6 K      3.698168    0.000000   20.215997    ( 0.0000,  0.0000,  0.0000)
   7 K      0.102635    2.531033   21.279365    ( 0.0000,  0.0000,  0.0000)
   8 K      0.000000    5.230000   10.000000    ( 0.0000,  0.0000,  0.0000)
   9 K      3.698168    7.845000   10.000000    ( 0.0000,  0.0000,  0.0000)
  10 K      3.698168    5.230000   13.698168    ( 0.0000,  0.0000,  0.0000)
  11 K      0.000000    7.845000   13.698168    ( 0.0000,  0.0000,  0.0000)
  12 K     -0.030147    5.221905   17.453813    ( 0.0000,  0.0000,  0.0000)
  13 K      3.698168    7.845000   17.451906    ( 0.0000,  0.0000,  0.0000)
  14 K      3.698168    5.148165   21.216706    ( 0.0000,  0.0000,  0.0000)
  15 K      0.020305    7.845000   21.119136    ( 0.0000,  0.0000,  0.0000)
  16 K      0.000000   10.460000   10.000000    ( 0.0000,  0.0000,  0.0000)
  17 K      3.698168   13.075000   10.000000    ( 0.0000,  0.0000,  0.0000)
  18 K      3.698168   10.460000   13.698168    ( 0.0000,  0.0000,  0.0000)
  19 K      0.000000   13.075000   13.698168    ( 0.0000,  0.0000,  0.0000)
  20 K     -0.030147   10.468095   17.453813    ( 0.0000,  0.0000,  0.0000)
  21 K      3.698168   12.854752   17.184393    ( 0.0000,  0.0000,  0.0000)
  22 K      3.698168   10.541835   21.216706    ( 0.0000,  0.0000,  0.0000)
  23 K      0.102635   13.158967   21.279365    ( 0.0000,  0.0000,  0.0000)
  24 K      7.396337    0.000000   10.000000    ( 0.0000,  0.0000,  0.0000)
  25 K     11.094505    2.615000   10.000000    ( 0.0000,  0.0000,  0.0000)
  26 K     11.094505    0.000000   13.698168    ( 0.0000,  0.0000,  0.0000)
  27 K      7.396337    2.615000   13.698168    ( 0.0000,  0.0000,  0.0000)
  28 K      7.425320    0.000000   17.346053    ( 0.0000,  0.0000,  0.0000)
  29 K     11.110086    2.619177   17.416373    ( 0.0000,  0.0000,  0.0000)
  30 K     11.075588    0.000000   21.120456    ( 0.0000,  0.0000,  0.0000)
  31 K      7.293702    2.531033   21.279365    ( 0.0000,  0.0000,  0.0000)
  32 K      7.396337    5.230000   10.000000    ( 0.0000,  0.0000,  0.0000)
  33 K     11.094505    7.845000   10.000000    ( 0.0000,  0.0000,  0.0000)
  34 K     11.094505    5.230000   13.698168    ( 0.0000,  0.0000,  0.0000)
  35 K      7.396337    7.845000   13.698168    ( 0.0000,  0.0000,  0.0000)
  36 K      7.426484    5.221905   17.453813    ( 0.0000,  0.0000,  0.0000)
  37 K     11.100021    7.845000   17.414062    ( 0.0000,  0.0000,  0.0000)
  38 K     11.076152    5.217811   21.111007    ( 0.0000,  0.0000,  0.0000)
  39 K      7.376032    7.845000   21.119136    ( 0.0000,  0.0000,  0.0000)
  40 K      7.396337   10.460000   10.000000    ( 0.0000,  0.0000,  0.0000)
  41 K     11.094505   13.075000   10.000000    ( 0.0000,  0.0000,  0.0000)
  42 K     11.094505   10.460000   13.698168    ( 0.0000,  0.0000,  0.0000)
  43 K      7.396337   13.075000   13.698168    ( 0.0000,  0.0000,  0.0000)
  44 K      7.426484   10.468095   17.453813    ( 0.0000,  0.0000,  0.0000)
  45 K     11.110086   13.070823   17.416373    ( 0.0000,  0.0000,  0.0000)
  46 K     11.076152   10.472189   21.111007    ( 0.0000,  0.0000,  0.0000)
  47 K      7.293702   13.158967   21.279365    ( 0.0000,  0.0000,  0.0000)
  48 K     14.792674    0.000000   10.000000    ( 0.0000,  0.0000,  0.0000)
  49 K     18.490842    2.615000   10.000000    ( 0.0000,  0.0000,  0.0000)
  50 K     18.490842    0.000000   13.698168    ( 0.0000,  0.0000,  0.0000)
  51 K     14.792674    2.615000   13.698168    ( 0.0000,  0.0000,  0.0000)
  52 K     14.792674    0.000000   17.413860    ( 0.0000,  0.0000,  0.0000)
  53 K     18.475261    2.619177   17.416373    ( 0.0000,  0.0000,  0.0000)
  54 K     18.509760    0.000000   21.120456    ( 0.0000,  0.0000,  0.0000)
  55 K     14.792674    2.614903   21.114404    ( 0.0000,  0.0000,  0.0000)
  56 K     14.792674    5.230000   10.000000    ( 0.0000,  0.0000,  0.0000)
  57 K     18.490842    7.845000   10.000000    ( 0.0000,  0.0000,  0.0000)
  58 K     18.490842    5.230000   13.698168    ( 0.0000,  0.0000,  0.0000)
  59 K     14.792674    7.845000   13.698168    ( 0.0000,  0.0000,  0.0000)
  60 K     14.792674    5.232163   17.412282    ( 0.0000,  0.0000,  0.0000)
  61 K     18.485327    7.845000   17.414062    ( 0.0000,  0.0000,  0.0000)
  62 K     18.509196    5.217811   21.111007    ( 0.0000,  0.0000,  0.0000)
  63 K     14.792674    7.845000   21.119302    ( 0.0000,  0.0000,  0.0000)
  64 K     14.792674   10.460000   10.000000    ( 0.0000,  0.0000,  0.0000)
  65 K     18.490842   13.075000   10.000000    ( 0.0000,  0.0000,  0.0000)
  66 K     18.490842   10.460000   13.698168    ( 0.0000,  0.0000,  0.0000)
  67 K     14.792674   13.075000   13.698168    ( 0.0000,  0.0000,  0.0000)
  68 K     14.792674   10.457837   17.412282    ( 0.0000,  0.0000,  0.0000)
  69 K     18.475261   13.070823   17.416373    ( 0.0000,  0.0000,  0.0000)
  70 K     18.509196   10.472189   21.111007    ( 0.0000,  0.0000,  0.0000)
  71 K     14.792674   13.075097   21.114404    ( 0.0000,  0.0000,  0.0000)
  72 K      3.698168    0.000000   24.243093    ( 0.0000,  0.0000,  0.0000)

Unit cell:
           periodic     x           y           z      points  spacing
  1. axis:    yes   22.189011    0.000000    0.000000    90     0.2465
  2. axis:    yes    0.000000   15.690000    0.000000    63     0.2490
  3. axis:    no     0.000000    0.000000   31.094505   125     0.2488

  Lengths:  22.189011  15.690000  31.094505
  Angles:   90.000000  90.000000  90.000000

Effective grid spacing dv^(1/3) = 0.2481

     iter     time        total  log10-change:
                         energy   eigst   dens
iter:   1 03:29:40   -79.680879
iter:   2 03:31:06   -77.582594   -1.83  -1.32
iter:   3 03:32:17   -64.932659   -0.91  -1.34
iter:   4 03:33:29   -63.123345   -2.68  -1.55
iter:   5 03:34:41   -63.015775   -2.96  -1.71
iter:   6 03:35:56   -63.384016   -3.05  -1.78
iter:   7 03:37:12   -63.192005   -3.28  -1.84
iter:   8 03:38:34   -63.005761   -3.05  -2.11
iter:   9 03:39:45   -62.998530c  -4.49  -2.76
iter:  10 03:40:53   -62.996451c  -4.76  -2.82
iter:  11 03:42:10   -62.997861c  -4.64  -2.89
iter:  12 03:43:31   -62.996853c  -5.34c -3.09
iter:  13 03:44:43   -62.996438c  -5.28  -3.15
iter:  14 03:45:53   -62.997211c  -5.68c -3.20
iter:  15 03:47:03   -62.997462c  -6.26c -3.34
iter:  16 03:48:17   -62.997269c  -6.69c -3.45
iter:  17 03:49:30   -62.996943c  -6.37c -3.53
iter:  18 03:50:47   -62.997099c  -6.66c -3.70
iter:  19 03:52:00   -62.997059c  -6.85c -3.86
iter:  20 03:53:15   -62.996989c  -7.15c -3.91
iter:  21 03:54:27   -62.997062c  -7.27c -3.99
iter:  22 03:55:37   -62.997044c  -7.57c -4.26c

Converged after 22 iterations.

Dipole moment: (-18.965229, 0.000000, 0.390742) |e|*Ang

Energy contributions relative to reference atoms: (reference = -1195904.484944)

Kinetic:       -152.114037
Potential:     +179.854366
External:        +0.000000
XC:             -70.534680
Entropy (-ST):   -2.074679
Local:          -19.165354
SIC:             +0.000000
--------------------------
Free energy:    -64.034383
Extrapolated:   -62.997044

 Band  Eigenvalues  Occupancy
    0    -33.46441    2.00000
    1    -32.99863    2.00000
    2    -32.99835    2.00000
    3    -32.99511    2.00000
    4    -32.99497    2.00000
    5    -32.99468    2.00000
    6    -32.99443    2.00000
    7    -32.99424    2.00000
    8    -32.99300    2.00000
    9    -32.99292    2.00000
   10    -32.99286    2.00000
   11    -32.99243    2.00000
   12    -32.99118    2.00000
   13    -32.99062    2.00000
   14    -32.99018    2.00000
   15    -32.98975    2.00000
   16    -32.98966    2.00000
   17    -32.98945    2.00000
   18    -32.98922    2.00000
   19    -32.98902    2.00000
   20    -32.98871    2.00000
   21    -32.98868    2.00000
   22    -32.98859    2.00000
   23    -32.98836    2.00000
   24    -32.98804    2.00000
   25    -32.98785    2.00000
   26    -32.98765    2.00000
   27    -32.98723    2.00000
   28    -32.98545    2.00000
   29    -32.98499    2.00000
   30    -32.98298    2.00000
   31    -32.98267    2.00000
   32    -32.97093    2.00000
   33    -32.97089    2.00000
   34    -32.97080    2.00000
   35    -32.97072    2.00000
   36    -32.84029    2.00000
   37    -32.79687    2.00000
   38    -32.79679    2.00000
   39    -32.79331    2.00000
   40    -32.79309    2.00000
   41    -32.79296    2.00000
   42    -32.79287    2.00000
   43    -32.79088    2.00000
   44    -32.79075    2.00000
   45    -32.78867    2.00000
   46    -32.78865    2.00000
   47    -32.78862    2.00000
   48    -32.78858    2.00000
   49    -32.78539    2.00000
   50    -32.78490    2.00000
   51    -32.78469    2.00000
   52    -32.78461    2.00000
   53    -32.78454    2.00000
   54    -32.78415    2.00000
   55    -32.78390    2.00000
   56    -32.78260    2.00000
   57    -32.78181    2.00000
   58    -32.78176    2.00000
   59    -32.78173    2.00000
   60    -32.78162    2.00000
   61    -32.78070    2.00000
   62    -32.78044    2.00000
   63    -32.77940    2.00000
   64    -32.77915    2.00000
   65    -32.77289    2.00000
   66    -32.77268    2.00000
   67    -32.77248    2.00000
   68    -32.77244    2.00000
   69    -32.77185    2.00000
   70    -32.76831    2.00000
   71    -32.76681    2.00000
   72    -32.76681    2.00000
   73    -16.93205    2.00000
   74    -16.91015    2.00000
   75    -16.90936    2.00000
   76    -16.47730    2.00000
   77    -16.47442    2.00000
   78    -16.47433    2.00000
   79    -16.47384    2.00000
   80    -16.47271    2.00000
   81    -16.47165    2.00000
   82    -16.47099    2.00000
   83    -16.46974    2.00000
   84    -16.46966    2.00000
   85    -16.46914    2.00000
   86    -16.46870    2.00000
   87    -16.46863    2.00000
   88    -16.46811    2.00000
   89    -16.46778    2.00000
   90    -16.46766    2.00000
   91    -16.46761    2.00000
   92    -16.46758    2.00000
   93    -16.46752    2.00000
   94    -16.46733    2.00000
   95    -16.46719    2.00000
   96    -16.46675    2.00000
   97    -16.46636    2.00000
   98    -16.46610    2.00000
   99    -16.46585    2.00000
  100    -16.46582    2.00000
  101    -16.46519    2.00000
  102    -16.46497    2.00000
  103    -16.46448    2.00000
  104    -16.46426    2.00000
  105    -16.46386    2.00000
  106    -16.46370    2.00000
  107    -16.46360    2.00000
  108    -16.46330    2.00000
  109    -16.46308    2.00000
  110    -16.46268    2.00000
  111    -16.46260    2.00000
  112    -16.46250    2.00000
  113    -16.46236    2.00000
  114    -16.46223    2.00000
  115    -16.46142    2.00000
  116    -16.46115    2.00000
  117    -16.46052    2.00000
  118    -16.46049    2.00000
  119    -16.45986    2.00000
  120    -16.45909    2.00000
  121    -16.45853    2.00000
  122    -16.45690    2.00000
  123    -16.45664    2.00000
  124    -16.45652    2.00000
  125    -16.45617    2.00000
  126    -16.45557    2.00000
  127    -16.45538    2.00000
  128    -16.45469    2.00000
  129    -16.45406    2.00000
  130    -16.45070    2.00000
  131    -16.44893    2.00000
  132    -16.44818    2.00000
  133    -16.44655    2.00000
  134    -16.44639    2.00000
  135    -16.44581    2.00000
  136    -16.44542    2.00000
  137    -16.44505    2.00000
  138    -16.44423    2.00000
  139    -16.44334    2.00000
  140    -16.44238    2.00000
  141    -16.44220    2.00000
  142    -16.44214    2.00000
  143    -16.44176    2.00000
  144    -16.44121    2.00000
  145    -16.44026    2.00000
  146    -16.43975    2.00000
  147    -16.43948    2.00000
  148    -16.43872    2.00000
  149    -16.43770    2.00000
  150    -16.43643    2.00000
  151    -16.43523    2.00000
  152    -16.43313    2.00000
  153    -16.43260    2.00000
  154    -16.43243    2.00000
  155    -16.43206    2.00000
  156    -16.43049    2.00000
  157    -16.43022    2.00000
  158    -16.43008    2.00000
  159    -16.42866    2.00000
  160    -16.42756    2.00000
  161    -16.42739    2.00000
  162    -16.42709    2.00000
  163    -16.42627    2.00000
  164    -16.42337    2.00000
  165    -16.42291    2.00000
  166    -16.42248    2.00000
  167    -16.42175    2.00000
  168    -16.41972    2.00000
  169    -16.41951    2.00000
  170    -16.41934    2.00000
  171    -16.41897    2.00000
  172    -16.41881    2.00000
  173    -16.41841    2.00000
  174    -16.41753    2.00000
  175    -16.41726    2.00000
  176    -16.41679    2.00000
  177    -16.41619    2.00000
  178    -16.41587    2.00000
  179    -16.41338    2.00000
  180    -16.41198    2.00000
  181    -16.33539    2.00000
  182    -16.32483    2.00000
  183    -16.30169    2.00000
  184    -16.28504    2.00000
  185    -16.28238    2.00000
  186    -16.28105    2.00000
  187    -16.28064    2.00000
  188    -16.27912    2.00000
  189    -16.27892    2.00000
  190    -16.27812    2.00000
  191    -16.27719    2.00000
  192    -16.27601    2.00000
  193    -16.27573    2.00000
  194    -16.27509    2.00000
  195    -16.27443    2.00000
  196    -16.27411    2.00000
  197    -16.27276    2.00000
  198    -16.27231    2.00000
  199    -16.27112    2.00000
  200    -16.26998    2.00000
  201    -16.26933    2.00000
  202    -16.26904    2.00000
  203    -16.26771    2.00000
  204    -16.26722    2.00000
  205    -16.26673    2.00000
  206    -16.26574    2.00000
  207    -16.26529    2.00000
  208    -16.26463    2.00000
  209    -16.26345    2.00000
  210    -16.26341    2.00000
  211    -16.26276    2.00000
  212    -16.26234    2.00000
  213    -16.26003    2.00000
  214    -16.25974    2.00000
  215    -16.25895    2.00000
  216    -16.25827    2.00000
  217    -16.25785    2.00000
  218    -16.25661    2.00000
  219    -16.25550    2.00000
  220    -16.25476    2.00000
  221    -16.25450    2.00000
  222    -16.25376    2.00000
  223    -16.25353    2.00000
  224    -16.25279    2.00000
  225    -16.25184    2.00000
  226    -16.25079    2.00000
  227    -16.24919    2.00000
  228    -16.24894    2.00000
  229    -16.24809    2.00000
  230    -16.24705    2.00000
  231    -16.24671    2.00000
  232    -16.24627    2.00000
  233    -16.24614    2.00000
  234    -16.24555    2.00000
  235    -16.24497    2.00000
  236    -16.24481    2.00000
  237    -16.24366    2.00000
  238    -16.24314    2.00000
  239    -16.24266    2.00000
  240    -16.24165    2.00000
  241    -16.24149    2.00000
  242    -16.24139    2.00000
  243    -16.24068    2.00000
  244    -16.24023    2.00000
  245    -16.23951    2.00000
  246    -16.23856    2.00000
  247    -16.23771    2.00000
  248    -16.23740    2.00000
  249    -16.23718    2.00000
  250    -16.23670    2.00000
  251    -16.23626    2.00000
  252    -16.23579    2.00000
  253    -16.23508    2.00000
  254    -16.23409    2.00000
  255    -16.23349    2.00000
  256    -16.23313    2.00000
  257    -16.23288    2.00000
  258    -16.23225    2.00000
  259    -16.23176    2.00000
  260    -16.23134    2.00000
  261    -16.23098    2.00000
  262    -16.23029    2.00000
  263    -16.22992    2.00000
  264    -16.22974    2.00000
  265    -16.22944    2.00000
  266    -16.22874    2.00000
  267    -16.22811    2.00000
  268    -16.22746    2.00000
  269    -16.22720    2.00000
  270    -16.22663    2.00000
  271    -16.22644    2.00000
  272    -16.22632    2.00000
  273    -16.22590    2.00000
  274    -16.22579    2.00000
  275    -16.22434    2.00000
  276    -16.22377    2.00000
  277    -16.22318    2.00000
  278    -16.22305    2.00000
  279    -16.22242    2.00000
  280    -16.22199    2.00000
  281    -16.22079    2.00000
  282    -16.22049    2.00000
  283    -16.22022    2.00000
  284    -16.21959    2.00000
  285    -16.21877    2.00000
  286    -16.21825    2.00000
  287    -16.21794    2.00000
  288    -16.21611    2.00000
  289    -16.21559    2.00000
  290    -16.21549    2.00000
  291    -16.21233    2.00000
  292     -2.63963    2.00000
  293     -2.46585    2.00000
  294     -2.29574    2.00000
  295     -2.27086    2.00000
  296     -2.13104    2.00000
  297     -2.12325    2.00000
  298     -2.09936    2.00000
  299     -1.93454    2.00000
  300     -1.79906    1.99998
  301     -1.77676    1.99998
  302     -1.76098    1.99997
  303     -1.66763    1.99993
  304     -1.63818    1.99991
  305     -1.63324    1.99991
  306     -1.50251    1.99966
  307     -1.47852    1.99957
  308     -1.44772    1.99941
  309     -1.34027    1.99828
  310     -1.32017    1.99789
  311     -1.29400    1.99726
  312     -1.28276    1.99694
  313     -1.18935    1.99223
  314     -1.16954    1.99054
  315     -1.16864    1.99045
  316     -1.13679    1.98689
  317     -1.02086    1.95881
  318     -0.98486    1.94149
  319     -0.93441    1.90492
  320     -0.86127    1.81206
  321     -0.84058    1.77374
  322     -0.76798    1.58275
  323     -0.72921    1.44042
  324     -0.72300    1.41505
  325     -0.72068    1.40540
  326     -0.70736    1.34830
  327     -0.70316    1.32971
  328     -0.68777    1.25946
  329     -0.60110    0.83376
  330     -0.58442    0.75394
  331     -0.56496    0.66496
  332     -0.46224    0.30266
  333     -0.43086    0.23053
  334     -0.41360    0.19760
  335     -0.40640    0.18514
  336     -0.40174    0.17746
  337     -0.39593    0.16829
  338     -0.31769    0.08065
  339     -0.30494    0.07134
  340     -0.29303    0.06358
  341     -0.27276    0.05222
  342     -0.20390    0.02657
  343     -0.16072    0.01734
  344     -0.14345    0.01461
  345     -0.10704    0.01017
  346     -0.03641    0.00503
  347     -0.02927    0.00469
  348     -0.00974    0.00386
  349      0.01239    0.00309
  350      0.02738    0.00266
  351      0.08818    0.00145
  352      0.09300    0.00138
  353      0.11138    0.00115
  354      0.12840    0.00097
  355      0.13139    0.00094
  356      0.15450    0.00075
  357      0.17476    0.00061
  358      0.18763    0.00054
  359      0.24174    0.00031
  360      0.26748    0.00024
  361      0.28206    0.00021
  362      0.28817    0.00020
  363      0.33411    0.00012
  364      0.38705    0.00007

Fermi level: -0.63466

Gap: 0.087 eV
Transition (v -> c):
  (s=0, k=0, n=328, [0.25, 0.25, 0.00]) -> (s=0, k=0, n=329, [0.25, 0.25, 0.00])
No difference between direct/indirect transitions
Timing:                              incl.     excl.
-----------------------------------------------------------
Hamiltonian:                        20.302     0.058   0.0% |
 Atomic:                             3.827     0.012   0.0% |
  XC Correction:                     3.815     3.815   0.2% |
 Calculate atomic Hamiltonians:      8.357     8.357   0.4% |
 Communicate:                        0.000     0.000   0.0% |
 Initialize Hamiltonian:             0.002     0.002   0.0% |
 Poisson:                            0.063     0.063   0.0% |
 XC 3D grid:                         7.995     7.995   0.4% |
LCAO initialization:               460.049     0.040   0.0% |
 LCAO eigensolver:                   1.121     0.008   0.0% |
  Calculate projections:             0.051     0.051   0.0% |
  DenseAtomicCorrection:             0.086     0.086   0.0% |
  Distribute overlap matrix:         0.001     0.001   0.0% |
  Orbital Layouts:                   0.172     0.172   0.0% |
  Potential matrix:                  0.784     0.784   0.0% |
  Sum over cells:                    0.018     0.018   0.0% |
 LCAO to grid:                     457.900   457.900  21.5% |--------|
 Set positions (LCAO WFS):           0.988     0.353   0.0% |
  Basic WFS set positions:           0.007     0.007   0.0% |
  Basis functions set positions:     0.000     0.000   0.0% |
  P tci:                             0.336     0.336   0.0% |
  ST tci:                            0.139     0.139   0.0% |
  mktci:                             0.152     0.152   0.0% |
PWDescriptor:                        0.077     0.077   0.0% |
SCF-cycle:                        1627.880     0.089   0.0% |
 Davidson:                        1353.672   224.777  10.5% |---|
  Apply H:                         176.128   172.264   8.1% |--|
   HMM T:                            3.865     3.865   0.2% |
  Subspace diag:                   283.329     0.019   0.0% |
   calc_h_matrix:                  231.752    45.354   2.1% ||
    Apply H:                       186.398   176.510   8.3% |--|
     HMM T:                          9.888     9.888   0.5% |
   diagonalize:                      0.960     0.960   0.0% |
   rotate_psi:                      50.598    50.598   2.4% ||
  calc. matrices:                  565.638   206.342   9.7% |---|
   Apply H:                        359.296   347.558  16.3% |------|
    HMM T:                          11.738    11.738   0.6% |
  diagonalize:                      16.027    16.027   0.8% |
  rotate_psi:                       87.772    87.772   4.1% |-|
 Density:                          169.845     0.001   0.0% |
  Atomic density matrices:           0.148     0.148   0.0% |
  Mix:                              82.290    82.290   3.9% |-|
  Multipole moments:                 0.030     0.030   0.0% |
  Pseudo density:                   87.377    87.164   4.1% |-|
   Symmetrize density:               0.213     0.213   0.0% |
 Hamiltonian:                       97.306     0.478   0.0% |
  Atomic:                           26.405     0.074   0.0% |
   XC Correction:                   26.331    26.331   1.2% |
  Calculate atomic Hamiltonians:    47.757    47.757   2.2% ||
  Communicate:                       0.000     0.000   0.0% |
  Poisson:                           1.334     1.334   0.1% |
  XC 3D grid:                       21.332    21.332   1.0% |
 Orthonormalize:                     6.967     0.004   0.0% |
  calc_s_matrix:                     1.218     1.218   0.1% |
  inverse-cholesky:                  0.022     0.022   0.0% |
  projections:                       3.632     3.632   0.2% |
  rotate_psi_s:                      2.092     2.092   0.1% |
Set symmetry:                        0.002     0.002   0.0% |
Other:                              25.153    25.153   1.2% |
-----------------------------------------------------------
Total:                                      2133.462 100.0%

Memory usage: 6.20 GiB
Date: Wed Nov 26 03:55:37 2025
