
  ___ ___ ___ _ _ _  
 |   |   |_  | | | | 
 | | | | | . | | | | 
 |__ |  _|___|_____|  25.7.0
 |___|_|             

User:   tew@Mathuss-MacBook-Air-357.local
Date:   Sat Nov 29 06:05:47 2025
Arch:   arm64
Pid:    24788
CWD:    /Users/tew/Documents/Project/GitHub/chem-com/step_v2
Python: 3.13.5
gpaw:   /Users/tew/Documents/Project/GitHub/chem-com/.venv/lib/python3.13/site-packages/gpaw
_gpaw:  /Users/tew/Documents/Project/GitHub/chem-com/.venv/lib/python3.13/site-packages/
        _gpaw.cpython-313-darwin.so
ase:    /Users/tew/Documents/Project/GitHub/chem-com/.venv/lib/python3.13/site-packages/ase (version 3.26.0)
numpy:  /Users/tew/Documents/Project/GitHub/chem-com/.venv/lib/python3.13/site-packages/numpy (version 2.2.6)
scipy:  /Users/tew/Documents/Project/GitHub/chem-com/.venv/lib/python3.13/site-packages/scipy (version 1.16.3)
libxc:  2.x.y
units:  Angstrom and eV
cores: 1
OpenMP: False
OMP_NUM_THREADS: 1

Input parameters:
  kpts: [2 2 1]
  mode: {interpolation: 3,
         name: lcao}
  occupations: {name: fermi-dirac,
                width: 0.1}
  xc: PBE

System changes: positions, numbers, cell, pbc, initial_charges, initial_magmoms 

Initialize ...

species:
  Li:
    name: Lithium
    id: 830b4218f175192f93f959cfc0aad614
    Z: 3.0
    valence: 1
    core: 2
    charge: 0.0
    file: /Users/tew/Documents/Project/GitHub/chem-com/.venv/lib/python3.13/site-packages/gpaw_data/setups/Li.PBE.gz
    compensation charges: {type: gauss,
                           rc: 0.33,
                           lmax: 2}
    cutoffs: {filter: 1.91,
              core: 2.55}
    projectors:
      #              energy  rcut
      - 2s(1.00)    -2.874   1.058
      - 2p(0.00)    -1.090   1.058
      -  s          24.337   1.058
  
    # Using partial waves for Li as LCAO basis

Reference energy: -18048.116001  # eV

Spin-paired calculation

Convergence criteria:
 Maximum [total energy] change in last 3 cyles: 0.0005 eV / valence electron
 Maximum integral of absolute [dens]ity change: 0.0001 electrons / valence electron
 Maximum integral of absolute [eigenst]ate change: 4e-08 eV^2 / valence electron
 Maximum number of scf [iter]ations: 333
 (Square brackets indicate name in SCF output, whereas a 'c' in
 the SCF output indicates the quantity has converged.)

Symmetries present (total): 1

  ( 1  0  0)
  ( 0  1  0)
  ( 0  0  1)

4 k-points: 2 x 2 x 1 Monkhorst-Pack grid
2 k-points in the irreducible part of the Brillouin zone
       k-points in crystal coordinates                weights
   0:     0.25000000   -0.25000000    0.00000000          2/4
   1:     0.25000000    0.25000000    0.00000000          2/4

Wave functions: LCAO
  Diagonalizer: Serial LAPACK
  Atomic Correction: dense with blas
  Data-type: complex
 

Occupation numbers: Fermi-Dirac:
  width: 0.1000  # eV
 

Eigensolver
   LCAO using direct dense diagonalizer 

Densities:
  Coarse grid: 68*48*140 grid
  Fine grid: 136*96*280 grid
  Total Charge: 0.000000 

Density mixing:
  Method: separate
  Backend: pulay
  Linear mixing parameter: 0.05
  old densities: 5
  Damping of long wavelength oscillations: 50 

Hamiltonian:
  XC and Coulomb potentials evaluated on a 136*96*280 grid
  Using the PBE Exchange-Correlation functional
  Interpolation: tri-quintic (5. degree polynomial)
  Poisson solver: FastPoissonSolver using
    Stencil: 6*3+1=19 point O(h^6) finite-difference Laplacian
    FFT axes: [np.int64(0), np.int64(1)]
    FST axes: [np.int64(2)]
 

XC parameters: PBE with 2 nearest neighbor stencil

Memory estimate:
  Process memory now: 3158.27 MiB
  Calculator: 544.81 MiB
    Density: 357.68 MiB
      Arrays: 90.30 MiB
      Localized functions: 232.77 MiB
      Mixer: 34.61 MiB
    Hamiltonian: 77.45 MiB
      Arrays: 59.04 MiB
      XC: 0.00 MiB
      Poisson: 0.00 MiB
      vbar: 18.41 MiB
    Wavefunctions: 109.67 MiB
      C [qnM]: 0.63 MiB
      S, T [2 x qmm]: 7.74 MiB
      P [aqMi]: 0.30 MiB
      BasisFunctions: 101.00 MiB
      Eigensolver: 0.00 MiB

Total number of cores used: 1

Number of atoms: 89
Number of atomic orbitals: 356
Number of bands in calculation: 58
Number of valence electrons: 89
Bands to converge: occupied

... initialized

Initializing position-dependent things.

Density initialized from atomic densities
       .---------------------------------.  
      /|                                 |  
     / |                                 |  
    /  |                                 |  
   /   |                                 |  
  /    |                                 |  
 *     |                                 |  
 |     |                                 |  
 |     |                                 |  
 |     |                                 |  
 |     |  Li       Li      Li      Li    |  
 |     |                                 |  
 |  Li |     Li     LLi      Li      Li  |  
 |     |                                 |  
 |    Li      LLi     Li       Li        |  
 |     |Li       Li      Li       Li     |  
 |     |                                 |  
 |     |  LLi     LiLi     LLi     LLi   |  
 |    Li              Li                 |  
 |  Li |     Li      Li      Li          |  
 |     Li      Li       Li      Li       |  
 |    Li      Li       Li  Li  Li  Li    |  
 |     |LLi      LLi     Li       Li     |  
 |     |                                 |  
 |Li   |  LLi     LLi      LLi     Li    |  
 |  LLi|     LLi     LLi      LLi        |  
 |     |                                 |  
 |    LLi     LLi      LLi     LLi       |  
 Li    |LLi      LLi     LiLi     Li     |  
 |     |                                 |  
 |Li   |   Li      Li       Li           |  
 |   Li|      Li      Li       Li        |  
 |     |                                 |  
 |     |                                 |  
 |     |                                 |  
 |     .---------------------------------.  
 |    /                                 /   
 |   /                                 /    
 |  /                                 /     
 | /                                 /      
 |/                                 /       
 *---------------------------------*        

Atomic positions and initial magnetic moments

Positions:
   0 Li     0.000000    2.467803    8.000000    ( 0.0000,  0.0000,  0.0000)
   1 Li     3.490000    2.467803    8.000000    ( 0.0000,  0.0000,  0.0000)
   2 Li     6.980000    2.467803    8.000000    ( 0.0000,  0.0000,  0.0000)
   3 Li    10.470000    2.467803    8.000000    ( 0.0000,  0.0000,  0.0000)
   4 Li     1.745000    4.935605    8.000000    ( 0.0000,  0.0000,  0.0000)
   5 Li     5.235000    4.935605    8.000000    ( 0.0000,  0.0000,  0.0000)
   6 Li     8.725000    4.935605    8.000000    ( 0.0000,  0.0000,  0.0000)
   7 Li    12.215000    4.935605    8.000000    ( 0.0000,  0.0000,  0.0000)
   8 Li     0.000000    7.403408    8.000000    ( 0.0000,  0.0000,  0.0000)
   9 Li     3.490000    7.403408    8.000000    ( 0.0000,  0.0000,  0.0000)
  10 Li     6.980000    7.403408    8.000000    ( 0.0000,  0.0000,  0.0000)
  11 Li    10.470000    7.403408    8.000000    ( 0.0000,  0.0000,  0.0000)
  12 Li     1.745000    9.871211    8.000000    ( 0.0000,  0.0000,  0.0000)
  13 Li     5.235000    9.871211    8.000000    ( 0.0000,  0.0000,  0.0000)
  14 Li     8.725000    9.871211    8.000000    ( 0.0000,  0.0000,  0.0000)
  15 Li    12.215000    9.871211    8.000000    ( 0.0000,  0.0000,  0.0000)
  16 Li     0.000000    0.000000   10.467803    ( 0.0000,  0.0000,  0.0000)
  17 Li     3.490000    0.000000   10.467803    ( 0.0000,  0.0000,  0.0000)
  18 Li     6.980000    0.000000   10.467803    ( 0.0000,  0.0000,  0.0000)
  19 Li    10.470000    0.000000   10.467803    ( 0.0000,  0.0000,  0.0000)
  20 Li     1.745000    2.467803   10.467803    ( 0.0000,  0.0000,  0.0000)
  21 Li     5.235000    2.467803   10.467803    ( 0.0000,  0.0000,  0.0000)
  22 Li     8.725000    2.467803   10.467803    ( 0.0000,  0.0000,  0.0000)
  23 Li    12.215000    2.467803   10.467803    ( 0.0000,  0.0000,  0.0000)
  24 Li     0.000000    4.935605   10.467803    ( 0.0000,  0.0000,  0.0000)
  25 Li     3.490000    4.935605   10.467803    ( 0.0000,  0.0000,  0.0000)
  26 Li     6.980000    4.935605   10.467803    ( 0.0000,  0.0000,  0.0000)
  27 Li    10.470000    4.935605   10.467803    ( 0.0000,  0.0000,  0.0000)
  28 Li     1.745000    7.403408   10.467803    ( 0.0000,  0.0000,  0.0000)
  29 Li     5.235000    7.403408   10.467803    ( 0.0000,  0.0000,  0.0000)
  30 Li     8.725000    7.403408   10.467803    ( 0.0000,  0.0000,  0.0000)
  31 Li    12.215000    7.403408   10.467803    ( 0.0000,  0.0000,  0.0000)
  32 Li     0.000000    2.467803   12.935605    ( 0.0000,  0.0000,  0.0000)
  33 Li     3.490000    2.467803   12.935605    ( 0.0000,  0.0000,  0.0000)
  34 Li     6.980000    2.467803   12.935605    ( 0.0000,  0.0000,  0.0000)
  35 Li    10.470000    2.467803   12.935605    ( 0.0000,  0.0000,  0.0000)
  36 Li     1.745000    4.935605   12.935605    ( 0.0000,  0.0000,  0.0000)
  37 Li     5.235000    4.935605   12.935605    ( 0.0000,  0.0000,  0.0000)
  38 Li     8.725000    4.935605   12.935605    ( 0.0000,  0.0000,  0.0000)
  39 Li    12.215000    4.935605   12.935605    ( 0.0000,  0.0000,  0.0000)
  40 Li     0.000000    7.403408   12.935605    ( 0.0000,  0.0000,  0.0000)
  41 Li     3.490000    7.403408   12.935605    ( 0.0000,  0.0000,  0.0000)
  42 Li     6.980000    7.403408   12.935605    ( 0.0000,  0.0000,  0.0000)
  43 Li    10.470000    7.403408   12.935605    ( 0.0000,  0.0000,  0.0000)
  44 Li     1.745000    9.871211   12.935605    ( 0.0000,  0.0000,  0.0000)
  45 Li     5.235000    9.871211   12.935605    ( 0.0000,  0.0000,  0.0000)
  46 Li     8.725000    9.871211   12.935605    ( 0.0000,  0.0000,  0.0000)
  47 Li    12.215000    9.871211   12.935605    ( 0.0000,  0.0000,  0.0000)
  48 Li    -0.002451    0.010177   15.806604    ( 0.0000,  0.0000,  0.0000)
  49 Li     3.460085    0.005152   15.673090    ( 0.0000,  0.0000,  0.0000)
  50 Li     7.009915    0.005152   15.673090    ( 0.0000,  0.0000,  0.0000)
  51 Li    10.472451    0.010177   15.806604    ( 0.0000,  0.0000,  0.0000)
  52 Li     1.739310    2.471872   15.736572    ( 0.0000,  0.0000,  0.0000)
  53 Li     5.235000    2.451161   15.696404    ( 0.0000,  0.0000,  0.0000)
  54 Li     8.730690    2.471872   15.736572    ( 0.0000,  0.0000,  0.0000)
  55 Li    12.215000    2.463992   15.747102    ( 0.0000,  0.0000,  0.0000)
  56 Li     0.004388    4.942110   15.581824    ( 0.0000,  0.0000,  0.0000)
  57 Li     3.497029    4.930810   15.628893    ( 0.0000,  0.0000,  0.0000)
  58 Li     6.972971    4.930810   15.628893    ( 0.0000,  0.0000,  0.0000)
  59 Li    10.465612    4.942110   15.581824    ( 0.0000,  0.0000,  0.0000)
  60 Li     1.752660    7.406343   15.619909    ( 0.0000,  0.0000,  0.0000)
  61 Li     5.235000    7.427845   15.624436    ( 0.0000,  0.0000,  0.0000)
  62 Li     8.717340    7.406343   15.619909    ( 0.0000,  0.0000,  0.0000)
  63 Li    12.215000    7.406530   15.627059    ( 0.0000,  0.0000,  0.0000)
  64 Li    -0.014827    2.502046   18.528341    ( 0.0000,  0.0000,  0.0000)
  65 Li     3.472797    2.573739   18.482520    ( 0.0000,  0.0000,  0.0000)
  66 Li     6.997203    2.573739   18.482520    ( 0.0000,  0.0000,  0.0000)
  67 Li    10.484827    2.502046   18.528341    ( 0.0000,  0.0000,  0.0000)
  68 Li     1.699014    4.991962   18.249118    ( 0.0000,  0.0000,  0.0000)
  69 Li     5.235000    4.920014   18.357248    ( 0.0000,  0.0000,  0.0000)
  70 Li     8.770986    4.991962   18.249118    ( 0.0000,  0.0000,  0.0000)
  71 Li    12.215000    5.010909   18.249271    ( 0.0000,  0.0000,  0.0000)
  72 Li     0.019911    7.440336   18.315997    ( 0.0000,  0.0000,  0.0000)
  73 Li     3.484429    7.356211   18.324264    ( 0.0000,  0.0000,  0.0000)
  74 Li     6.985571    7.356211   18.324264    ( 0.0000,  0.0000,  0.0000)
  75 Li    10.450089    7.440336   18.315997    ( 0.0000,  0.0000,  0.0000)
  76 Li     1.865730    9.901493   18.566737    ( 0.0000,  0.0000,  0.0000)
  77 Li     5.235000    9.868839   18.304649    ( 0.0000,  0.0000,  0.0000)
  78 Li     8.604270    9.901493   18.566737    ( 0.0000,  0.0000,  0.0000)
  79 Li    12.215000    9.856577   18.638516    ( 0.0000,  0.0000,  0.0000)
  80 Li     0.037803    4.859496   20.881268    ( 0.0000,  0.0000,  0.0000)
  81 Li     3.523964    4.882573   20.920970    ( 0.0000,  0.0000,  0.0000)
  82 Li     6.946036    4.882573   20.920970    ( 0.0000,  0.0000,  0.0000)
  83 Li    10.432197    4.859496   20.881268    ( 0.0000,  0.0000,  0.0000)
  84 Li     1.750028    7.756371   20.948961    ( 0.0000,  0.0000,  0.0000)
  85 Li     5.235000    7.917078   20.867222    ( 0.0000,  0.0000,  0.0000)
  86 Li     8.719972    7.756371   20.948961    ( 0.0000,  0.0000,  0.0000)
  87 Li    12.215000    7.588900   20.967539    ( 0.0000,  0.0000,  0.0000)
  88 Li     5.235000    1.660895   20.962422    ( 0.0000,  0.0000,  0.0000)

Unit cell:
           periodic     x           y           z      points  spacing
  1. axis:    yes   13.960000    0.000000    0.000000    68     0.2053
  2. axis:    yes    0.000000    9.871211    0.000000    48     0.2057
  3. axis:    no     0.000000    0.000000   28.339013   140     0.2024

  Lengths:  13.960000   9.871211  28.339013
  Angles:   90.000000  90.000000  90.000000

Effective grid spacing dv^(1/3) = 0.2045

     iter     time        total  log10-change:
                         energy   eigst   dens
iter:   1 19:15:43  -151.959529        c
iter:   2 19:15:46  -147.946552        c -0.68
iter:   3 19:15:49  -146.873036        c -0.81
iter:   4 19:15:52  -146.001303        c -0.89
iter:   5 19:15:55  -144.711921        c -1.00
iter:   6 19:15:57  -144.560792        c -1.22
iter:   7 19:16:00  -144.106066        c -1.26
iter:   8 19:16:03  -143.958166        c -1.48
iter:   9 19:16:06  -143.944148        c -1.67
iter:  10 19:16:08  -143.899246        c -1.70
iter:  11 19:16:11  -143.875707        c -1.85
iter:  12 19:16:14  -143.863592c       c -1.99
iter:  13 19:16:17  -143.863113c       c -2.31
iter:  14 19:16:19  -143.862399c       c -2.42
iter:  15 19:16:22  -143.863464c       c -2.56
iter:  16 19:16:25  -143.862055c       c -2.58
iter:  17 19:16:28  -143.862039c       c -2.74
iter:  18 19:16:31  -143.862002c       c -2.81
iter:  19 19:16:33  -143.862102c       c -2.87
iter:  20 19:16:36  -143.862040c       c -3.01
iter:  21 19:16:39  -143.862234c       c -3.09
iter:  22 19:16:42  -143.861759c       c -3.14
iter:  23 19:16:44  -143.861786c       c -3.27
iter:  24 19:16:47  -143.861794c       c -3.39
iter:  25 19:16:50  -143.861839c       c -3.48
iter:  26 19:16:53  -143.861824c       c -3.59
iter:  27 19:16:55  -143.861860c       c -3.66
iter:  28 19:16:58  -143.861806c       c -3.73
iter:  29 19:17:01  -143.861827c       c -3.79
iter:  30 19:17:04  -143.861827c       c -3.92
iter:  31 19:17:06  -143.861832c       c -4.02c

Converged after 31 iterations.

Dipole moment: (-10.568931, -14.986929, 0.930399) |e|*Ang

Energy contributions relative to reference atoms: (reference = -18048.116001)

Kinetic:       +231.176133
Potential:     -196.251730
External:        +0.000000
XC:            -177.410120
Entropy (-ST):   -1.631223
Local:           -0.560503
SIC:             +0.000000
--------------------------
Free energy:   -144.677443
Extrapolated:  -143.861832

Showing all kpts
 Kpt  Band  Eigenvalues  Occupancy
  0    42     -2.68244    1.00862
  0    43     -2.66300    0.91163
  0    44     -2.64707    0.83333
  0    45     -2.61946    0.70294

  1    42     -2.68244    1.00862
  1    43     -2.66300    0.91163
  1    44     -2.64707    0.83333
  1    45     -2.61946    0.70294


Fermi level: -2.68072

Gap: 0.019 eV
Transition (v -> c):
  (s=0, k=0, n=42, [0.25, -0.25, 0.00]) -> (s=0, k=1, n=43, [0.25, 0.25, 0.00])
Direct/indirect transitions are different
Direct gap: 0.019 eV
Transition at: (s=0, k=0, n=42, [0.25, -0.25, 0.00])
