
  ___ ___ ___ _ _ _  
 |   |   |_  | | | | 
 | | | | | . | | | | 
 |__ |  _|___|_____|  25.7.0
 |___|_|             

User:   tew@Mathuss-MacBook-Air-357.local
Date:   Sat Nov 29 05:38:40 2025
Arch:   arm64
Pid:    24788
CWD:    /Users/tew/Documents/Project/GitHub/chem-com/step_v2
Python: 3.13.5
gpaw:   /Users/tew/Documents/Project/GitHub/chem-com/.venv/lib/python3.13/site-packages/gpaw
_gpaw:  /Users/tew/Documents/Project/GitHub/chem-com/.venv/lib/python3.13/site-packages/
        _gpaw.cpython-313-darwin.so
ase:    /Users/tew/Documents/Project/GitHub/chem-com/.venv/lib/python3.13/site-packages/ase (version 3.26.0)
numpy:  /Users/tew/Documents/Project/GitHub/chem-com/.venv/lib/python3.13/site-packages/numpy (version 2.2.6)
scipy:  /Users/tew/Documents/Project/GitHub/chem-com/.venv/lib/python3.13/site-packages/scipy (version 1.16.3)
libxc:  2.x.y
units:  Angstrom and eV
cores: 1
OpenMP: False
OMP_NUM_THREADS: 1

Input parameters:
  kpts: [2 2 1]
  mode: {interpolation: 3,
         name: lcao}
  occupations: {name: fermi-dirac,
                width: 0.1}
  xc: PBE

System changes: positions, numbers, cell, pbc, initial_charges, initial_magmoms 

Initialize ...

species:
  Li:
    name: Lithium
    id: 830b4218f175192f93f959cfc0aad614
    Z: 3.0
    valence: 1
    core: 2
    charge: 0.0
    file: /Users/tew/Documents/Project/GitHub/chem-com/.venv/lib/python3.13/site-packages/gpaw_data/setups/Li.PBE.gz
    compensation charges: {type: gauss,
                           rc: 0.33,
                           lmax: 2}
    cutoffs: {filter: 1.91,
              core: 2.55}
    projectors:
      #              energy  rcut
      - 2s(1.00)    -2.874   1.058
      - 2p(0.00)    -1.090   1.058
      -  s          24.337   1.058
  
    # Using partial waves for Li as LCAO basis

Reference energy: -18048.116001  # eV

Spin-paired calculation

Convergence criteria:
 Maximum [total energy] change in last 3 cyles: 0.0005 eV / valence electron
 Maximum integral of absolute [dens]ity change: 0.0001 electrons / valence electron
 Maximum integral of absolute [eigenst]ate change: 4e-08 eV^2 / valence electron
 Maximum number of scf [iter]ations: 333
 (Square brackets indicate name in SCF output, whereas a 'c' in
 the SCF output indicates the quantity has converged.)

Symmetries present (total): 1

  ( 1  0  0)
  ( 0  1  0)
  ( 0  0  1)

4 k-points: 2 x 2 x 1 Monkhorst-Pack grid
2 k-points in the irreducible part of the Brillouin zone
       k-points in crystal coordinates                weights
   0:     0.25000000   -0.25000000    0.00000000          2/4
   1:     0.25000000    0.25000000    0.00000000          2/4

Wave functions: LCAO
  Diagonalizer: Serial LAPACK
  Atomic Correction: dense with blas
  Data-type: complex
 

Occupation numbers: Fermi-Dirac:
  width: 0.1000  # eV
 

Eigensolver
   LCAO using direct dense diagonalizer 

Densities:
  Coarse grid: 68*48*140 grid
  Fine grid: 136*96*280 grid
  Total Charge: 0.000000 

Density mixing:
  Method: separate
  Backend: pulay
  Linear mixing parameter: 0.05
  old densities: 5
  Damping of long wavelength oscillations: 50 

Hamiltonian:
  XC and Coulomb potentials evaluated on a 136*96*280 grid
  Using the PBE Exchange-Correlation functional
  Interpolation: tri-quintic (5. degree polynomial)
  Poisson solver: FastPoissonSolver using
    Stencil: 6*3+1=19 point O(h^6) finite-difference Laplacian
    FFT axes: [np.int64(0), np.int64(1)]
    FST axes: [np.int64(2)]
 

XC parameters: PBE with 2 nearest neighbor stencil

Memory estimate:
  Process memory now: 1342.64 MiB
  Calculator: 544.81 MiB
    Density: 357.68 MiB
      Arrays: 90.30 MiB
      Localized functions: 232.77 MiB
      Mixer: 34.61 MiB
    Hamiltonian: 77.45 MiB
      Arrays: 59.04 MiB
      XC: 0.00 MiB
      Poisson: 0.00 MiB
      vbar: 18.41 MiB
    Wavefunctions: 109.67 MiB
      C [qnM]: 0.63 MiB
      S, T [2 x qmm]: 7.74 MiB
      P [aqMi]: 0.30 MiB
      BasisFunctions: 101.00 MiB
      Eigensolver: 0.00 MiB

Total number of cores used: 1

Number of atoms: 89
Number of atomic orbitals: 356
Number of bands in calculation: 58
Number of valence electrons: 89
Bands to converge: occupied

... initialized

Initializing position-dependent things.

Density initialized from atomic densities
       .---------------------------------.  
      /|                                 |  
     / |                                 |  
    /  |                                 |  
   /   |                                 |  
  /    |                                 |  
 *     |                                 |  
 |     |                                 |  
 |     |                                 |  
 |     |                                 |  
 |     |                                 |  
 |     |  Li      Li       Li      Li    |  
 |     |                                 |  
 |  Li |     Li      Li       Li         |  
 |    Li      LiLi     Li      Li        |  
 |     |                                 |  
 |     |Li       Li      Li       Li     |  
 |Li   |  LLi     LLi      LLi     Li    |  
 |     |                                 |  
 |  LLi|     LLi     LLi      LLi        |  
 |     Li      Li       Li      Li       |  
 |    Li      Li       Li      Li        |  
 Li    |LLi      LLi     LiLi     Li     |  
 |     |                                 |  
 |Li   |  LLi     LLi      LLi     Li    |  
 |  LLi|     LLi     LLi      LLi        |  
 |     |                                 |  
 |    LLi     LLi      LLi     LLi       |  
 Li    |LLi      LLi     LiLi     Li     |  
 |     |                                 |  
 |Li   |   Li      Li       Li           |  
 |   Li|      Li      Li       Li        |  
 |     |                                 |  
 |     |                                 |  
 |     |                                 |  
 |     .---------------------------------.  
 |    /                                 /   
 |   /                                 /    
 |  /                                 /     
 | /                                 /      
 |/                                 /       
 *---------------------------------*        

Atomic positions and initial magnetic moments

Positions:
   0 Li     0.000000    2.467803    8.000000    ( 0.0000,  0.0000,  0.0000)
   1 Li     3.490000    2.467803    8.000000    ( 0.0000,  0.0000,  0.0000)
   2 Li     6.980000    2.467803    8.000000    ( 0.0000,  0.0000,  0.0000)
   3 Li    10.470000    2.467803    8.000000    ( 0.0000,  0.0000,  0.0000)
   4 Li     1.745000    4.935605    8.000000    ( 0.0000,  0.0000,  0.0000)
   5 Li     5.235000    4.935605    8.000000    ( 0.0000,  0.0000,  0.0000)
   6 Li     8.725000    4.935605    8.000000    ( 0.0000,  0.0000,  0.0000)
   7 Li    12.215000    4.935605    8.000000    ( 0.0000,  0.0000,  0.0000)
   8 Li     0.000000    7.403408    8.000000    ( 0.0000,  0.0000,  0.0000)
   9 Li     3.490000    7.403408    8.000000    ( 0.0000,  0.0000,  0.0000)
  10 Li     6.980000    7.403408    8.000000    ( 0.0000,  0.0000,  0.0000)
  11 Li    10.470000    7.403408    8.000000    ( 0.0000,  0.0000,  0.0000)
  12 Li     1.745000    9.871211    8.000000    ( 0.0000,  0.0000,  0.0000)
  13 Li     5.235000    9.871211    8.000000    ( 0.0000,  0.0000,  0.0000)
  14 Li     8.725000    9.871211    8.000000    ( 0.0000,  0.0000,  0.0000)
  15 Li    12.215000    9.871211    8.000000    ( 0.0000,  0.0000,  0.0000)
  16 Li     0.000000    0.000000   10.467803    ( 0.0000,  0.0000,  0.0000)
  17 Li     3.490000    0.000000   10.467803    ( 0.0000,  0.0000,  0.0000)
  18 Li     6.980000    0.000000   10.467803    ( 0.0000,  0.0000,  0.0000)
  19 Li    10.470000    0.000000   10.467803    ( 0.0000,  0.0000,  0.0000)
  20 Li     1.745000    2.467803   10.467803    ( 0.0000,  0.0000,  0.0000)
  21 Li     5.235000    2.467803   10.467803    ( 0.0000,  0.0000,  0.0000)
  22 Li     8.725000    2.467803   10.467803    ( 0.0000,  0.0000,  0.0000)
  23 Li    12.215000    2.467803   10.467803    ( 0.0000,  0.0000,  0.0000)
  24 Li     0.000000    4.935605   10.467803    ( 0.0000,  0.0000,  0.0000)
  25 Li     3.490000    4.935605   10.467803    ( 0.0000,  0.0000,  0.0000)
  26 Li     6.980000    4.935605   10.467803    ( 0.0000,  0.0000,  0.0000)
  27 Li    10.470000    4.935605   10.467803    ( 0.0000,  0.0000,  0.0000)
  28 Li     1.745000    7.403408   10.467803    ( 0.0000,  0.0000,  0.0000)
  29 Li     5.235000    7.403408   10.467803    ( 0.0000,  0.0000,  0.0000)
  30 Li     8.725000    7.403408   10.467803    ( 0.0000,  0.0000,  0.0000)
  31 Li    12.215000    7.403408   10.467803    ( 0.0000,  0.0000,  0.0000)
  32 Li     0.000000    2.467803   12.935605    ( 0.0000,  0.0000,  0.0000)
  33 Li     3.490000    2.467803   12.935605    ( 0.0000,  0.0000,  0.0000)
  34 Li     6.980000    2.467803   12.935605    ( 0.0000,  0.0000,  0.0000)
  35 Li    10.470000    2.467803   12.935605    ( 0.0000,  0.0000,  0.0000)
  36 Li     1.745000    4.935605   12.935605    ( 0.0000,  0.0000,  0.0000)
  37 Li     5.235000    4.935605   12.935605    ( 0.0000,  0.0000,  0.0000)
  38 Li     8.725000    4.935605   12.935605    ( 0.0000,  0.0000,  0.0000)
  39 Li    12.215000    4.935605   12.935605    ( 0.0000,  0.0000,  0.0000)
  40 Li     0.000000    7.403408   12.935605    ( 0.0000,  0.0000,  0.0000)
  41 Li     3.490000    7.403408   12.935605    ( 0.0000,  0.0000,  0.0000)
  42 Li     6.980000    7.403408   12.935605    ( 0.0000,  0.0000,  0.0000)
  43 Li    10.470000    7.403408   12.935605    ( 0.0000,  0.0000,  0.0000)
  44 Li     1.745000    9.871211   12.935605    ( 0.0000,  0.0000,  0.0000)
  45 Li     5.235000    9.871211   12.935605    ( 0.0000,  0.0000,  0.0000)
  46 Li     8.725000    9.871211   12.935605    ( 0.0000,  0.0000,  0.0000)
  47 Li    12.215000    9.871211   12.935605    ( 0.0000,  0.0000,  0.0000)
  48 Li     0.000000    0.000000   15.403408    ( 0.0000,  0.0000,  0.0000)
  49 Li     3.490000    0.000000   15.403408    ( 0.0000,  0.0000,  0.0000)
  50 Li     6.980000    0.000000   15.403408    ( 0.0000,  0.0000,  0.0000)
  51 Li    10.470000    0.000000   15.403408    ( 0.0000,  0.0000,  0.0000)
  52 Li     1.745000    2.467803   15.403408    ( 0.0000,  0.0000,  0.0000)
  53 Li     5.235000    2.467803   15.403408    ( 0.0000,  0.0000,  0.0000)
  54 Li     8.725000    2.467803   15.403408    ( 0.0000,  0.0000,  0.0000)
  55 Li    12.215000    2.467803   15.403408    ( 0.0000,  0.0000,  0.0000)
  56 Li     0.000000    4.935605   15.403408    ( 0.0000,  0.0000,  0.0000)
  57 Li     3.490000    4.935605   15.403408    ( 0.0000,  0.0000,  0.0000)
  58 Li     6.980000    4.935605   15.403408    ( 0.0000,  0.0000,  0.0000)
  59 Li    10.470000    4.935605   15.403408    ( 0.0000,  0.0000,  0.0000)
  60 Li     1.745000    7.403408   15.403408    ( 0.0000,  0.0000,  0.0000)
  61 Li     5.235000    7.403408   15.403408    ( 0.0000,  0.0000,  0.0000)
  62 Li     8.725000    7.403408   15.403408    ( 0.0000,  0.0000,  0.0000)
  63 Li    12.215000    7.403408   15.403408    ( 0.0000,  0.0000,  0.0000)
  64 Li     0.000000    2.467803   17.871211    ( 0.0000,  0.0000,  0.0000)
  65 Li     3.490000    2.467803   17.871211    ( 0.0000,  0.0000,  0.0000)
  66 Li     6.980000    2.467803   17.871211    ( 0.0000,  0.0000,  0.0000)
  67 Li    10.470000    2.467803   17.871211    ( 0.0000,  0.0000,  0.0000)
  68 Li     1.745000    4.935605   17.871211    ( 0.0000,  0.0000,  0.0000)
  69 Li     5.235000    4.935605   17.871211    ( 0.0000,  0.0000,  0.0000)
  70 Li     8.725000    4.935605   17.871211    ( 0.0000,  0.0000,  0.0000)
  71 Li    12.215000    4.935605   17.871211    ( 0.0000,  0.0000,  0.0000)
  72 Li     0.000000    7.403408   17.871211    ( 0.0000,  0.0000,  0.0000)
  73 Li     3.490000    7.403408   17.871211    ( 0.0000,  0.0000,  0.0000)
  74 Li     6.980000    7.403408   17.871211    ( 0.0000,  0.0000,  0.0000)
  75 Li    10.470000    7.403408   17.871211    ( 0.0000,  0.0000,  0.0000)
  76 Li     1.745000    9.871211   17.871211    ( 0.0000,  0.0000,  0.0000)
  77 Li     5.235000    9.871211   17.871211    ( 0.0000,  0.0000,  0.0000)
  78 Li     8.725000    9.871211   17.871211    ( 0.0000,  0.0000,  0.0000)
  79 Li    12.215000    9.871211   17.871211    ( 0.0000,  0.0000,  0.0000)
  80 Li     0.000000    4.935605   20.339013    ( 0.0000,  0.0000,  0.0000)
  81 Li     3.490000    4.935605   20.339013    ( 0.0000,  0.0000,  0.0000)
  82 Li     6.980000    4.935605   20.339013    ( 0.0000,  0.0000,  0.0000)
  83 Li    10.470000    4.935605   20.339013    ( 0.0000,  0.0000,  0.0000)
  84 Li     1.745000    7.403408   20.339013    ( 0.0000,  0.0000,  0.0000)
  85 Li     5.235000    7.403408   20.339013    ( 0.0000,  0.0000,  0.0000)
  86 Li     8.725000    7.403408   20.339013    ( 0.0000,  0.0000,  0.0000)
  87 Li    12.215000    7.403408   20.339013    ( 0.0000,  0.0000,  0.0000)
  88 Li     5.235000    3.331534   19.871210    ( 0.0000,  0.0000,  0.0000)

Unit cell:
           periodic     x           y           z      points  spacing
  1. axis:    yes   13.960000    0.000000    0.000000    68     0.2053
  2. axis:    yes    0.000000    9.871211    0.000000    48     0.2057
  3. axis:    no     0.000000    0.000000   28.339013   140     0.2024

  Lengths:  13.960000   9.871211  28.339013
  Angles:   90.000000  90.000000  90.000000

Effective grid spacing dv^(1/3) = 0.2045

     iter     time        total  log10-change:
                         energy   eigst   dens
iter:   1 05:38:45  -150.148089        c
iter:   2 05:38:48  -145.018179        c -0.66
iter:   3 05:38:51  -144.228800        c -0.90
iter:   4 05:38:54  -143.973812        c -0.97
iter:   5 05:38:57  -142.340277        c -0.97
iter:   6 05:38:59  -141.963059        c -1.27
iter:   7 05:39:02  -141.641849        c -1.41
iter:   8 05:39:05  -141.523787        c -1.59
iter:   9 05:39:08  -141.444233        c -1.70
iter:  10 05:39:12  -141.440019        c -1.83
iter:  11 05:39:15  -141.406481c       c -1.80
iter:  12 05:39:19  -141.381944        c -2.00
iter:  13 05:39:22  -141.374168c       c -2.16
iter:  14 05:39:25  -141.370841c       c -2.32
iter:  15 05:39:28  -141.369804c       c -2.44
iter:  16 05:39:31  -141.368580c       c -2.59
iter:  17 05:39:34  -141.369063c       c -2.59
iter:  18 05:39:38  -141.368605c       c -2.77
iter:  19 05:39:40  -141.368426c       c -2.95
iter:  20 05:39:43  -141.368396c       c -3.06
iter:  21 05:39:47  -141.368350c       c -3.19
iter:  22 05:39:50  -141.368471c       c -3.29
iter:  23 05:39:53  -141.368316c       c -3.33
iter:  24 05:39:55  -141.368407c       c -3.40
iter:  25 05:39:58  -141.368397c       c -3.58
iter:  26 05:40:01  -141.368349c       c -3.69
iter:  27 05:40:05  -141.368335c       c -3.84
iter:  28 05:40:07  -141.368294c       c -3.95
iter:  29 05:40:11  -141.368327c       c -4.05c

Converged after 29 iterations.

Dipole moment: (-9.782909, -13.877160, 0.551397) |e|*Ang

Energy contributions relative to reference atoms: (reference = -18048.116001)

Kinetic:       +283.196815
Potential:     -233.560678
External:        +0.000000
XC:            -189.610310
Entropy (-ST):   -1.663945
Local:           -0.562181
SIC:             +0.000000
--------------------------
Free energy:   -142.200299
Extrapolated:  -141.368327

Showing all kpts
 Kpt  Band  Eigenvalues  Occupancy
  0    42     -2.84715    1.23621
  0    43     -2.81634    1.08650
  0    44     -2.79848    0.99741
  0    45     -2.75320    0.77491

  1    42     -2.84715    1.23621
  1    43     -2.81634    1.08650
  1    44     -2.79848    0.99741
  1    45     -2.75320    0.77491


Fermi level: -2.79900

Gap: 0.018 eV
Transition (v -> c):
  (s=0, k=1, n=43, [0.25, 0.25, 0.00]) -> (s=0, k=0, n=44, [0.25, -0.25, 0.00])
Direct/indirect transitions are different
Direct gap: 0.018 eV
Transition at: (s=0, k=1, n=43, [0.25, 0.25, 0.00])

Forces in eV/Ang:
  0 Li    0.00092   -0.00388   -0.16987
  1 Li    0.00056   -0.00921   -0.17150
  2 Li   -0.00056   -0.00921   -0.17150
  3 Li   -0.00092   -0.00388   -0.16987
  4 Li   -0.00294   -0.00713   -0.16144
  5 Li   -0.00000   -0.00784   -0.15893
  6 Li    0.00294   -0.00713   -0.16144
  7 Li   -0.00000   -0.00732   -0.16165
  8 Li    0.00077    0.00797   -0.16400
  9 Li   -0.00159    0.01077   -0.16004
 10 Li    0.00159    0.01077   -0.16004
 11 Li   -0.00077    0.00797   -0.16400
 12 Li    0.00143    0.00373   -0.17072
 13 Li    0.00000    0.00671   -0.17320
 14 Li   -0.00143    0.00373   -0.17072
 15 Li    0.00000    0.00392   -0.17306
 16 Li   -0.00046   -0.00134   -0.07414
 17 Li   -0.00114   -0.00188   -0.07019
 18 Li    0.00114   -0.00188   -0.07019
 19 Li    0.00046   -0.00134   -0.07414
 20 Li   -0.00040    0.00036   -0.07555
 21 Li    0.00000    0.00363   -0.07713
 22 Li    0.00040    0.00036   -0.07555
 23 Li    0.00000    0.00556   -0.07367
 24 Li   -0.00262   -0.00208   -0.07307
 25 Li   -0.00118   -0.00171   -0.07625
 26 Li    0.00118   -0.00171   -0.07625
 27 Li    0.00262   -0.00208   -0.07307
 28 Li    0.00089    0.00032   -0.07701
 29 Li    0.00000    0.00233   -0.07793
 30 Li   -0.00089    0.00032   -0.07701
 31 Li    0.00000    0.00095   -0.07527
 32 Li   -0.00328    0.00891   -0.00710
 33 Li   -0.00040    0.00306    0.00146
 34 Li    0.00040    0.00306    0.00146
 35 Li    0.00328    0.00891   -0.00710
 36 Li    0.00225   -0.00928   -0.00183
 37 Li   -0.00000   -0.00398   -0.00568
 38 Li   -0.00225   -0.00928   -0.00183
 39 Li    0.00000   -0.01011   -0.00283
 40 Li   -0.00192    0.01076   -0.00514
 41 Li   -0.00150    0.00498    0.00375
 42 Li    0.00150    0.00498    0.00375
 43 Li    0.00192    0.01076   -0.00514
 44 Li   -0.00222   -0.00722   -0.01420
 45 Li   -0.00000   -0.00092   -0.00519
 46 Li    0.00222   -0.00722   -0.01420
 47 Li   -0.00000   -0.00751    0.00436
 48 Li    0.01272    0.02557    0.03455
 49 Li   -0.01196    0.00739    0.00270
 50 Li    0.01196    0.00739    0.00270
 51 Li   -0.01272    0.02557    0.03455
 52 Li   -0.01522   -0.02811    0.00279
 53 Li   -0.00000   -0.00165    0.07573
 54 Li    0.01522   -0.02811    0.00279
 55 Li   -0.00000   -0.01812    0.02770
 56 Li   -0.00070    0.01901    0.01182
 57 Li    0.00375    0.01454    0.01175
 58 Li   -0.00375    0.01454    0.01175
 59 Li    0.00070    0.01901    0.01182
 60 Li   -0.00428   -0.01179    0.00370
 61 Li    0.00000   -0.00910    0.00861
 62 Li    0.00428   -0.01179    0.00370
 63 Li   -0.00000   -0.02283    0.01836
 64 Li   -0.00795    0.04065    0.27198
 65 Li   -0.24224   -0.07089   -0.01862
 66 Li    0.24224   -0.07089   -0.01862
 67 Li    0.00795    0.04065    0.27198
 68 Li    0.07641    0.02686    0.08760
 69 Li    0.00000    0.38725   -0.33669
 70 Li   -0.07641    0.02686    0.08760
 71 Li   -0.00000    0.07312    0.03712
 72 Li    0.00177   -0.07746    0.04885
 73 Li   -0.00175   -0.06975    0.01857
 74 Li    0.00175   -0.06975    0.01857
 75 Li   -0.00177   -0.07746    0.04885
 76 Li    0.01296   -0.03653    0.29359
 77 Li   -0.00000    0.04954    0.33898
 78 Li   -0.01296   -0.03653    0.29359
 79 Li    0.00000   -0.04763    0.27296
 80 Li   -0.00308   -0.33589    0.13989
 81 Li   -0.69241    0.36687    0.31814
 82 Li    0.69241    0.36687    0.31814
 83 Li    0.00308   -0.33589    0.13989
 84 Li   -0.02440    0.36464    0.14451
 85 Li    0.00000    0.18468    0.15285
 86 Li    0.02440    0.36464    0.14451
 87 Li   -0.00000    0.32373    0.13416
 88 Li   -0.00000   -1.39213    0.43354

System changes: positions 

Initializing position-dependent things.

Density initialized from wave functions
       .---------------------------------.  
      /|                                 |  
     / |                                 |  
    /  |                                 |  
   /   |                                 |  
  /    |                                 |  
 *     |                                 |  
 |     |                                 |  
 |     |                                 |  
 |     |                                 |  
 |     |                                 |  
 |     |  Li      Li       Li      Li    |  
 |     |                                 |  
 |     |   LLi       Li     LLi      LLi |  
 |   Li|      LiLi    Li       Li        |  
 |     |                                 |  
 |     |Li       Li      Li       Li     |  
 |     |  LLi     LiLi     LLi     LiLi  |  
 |     |                                 |  
 |     |     LLi     Li       Li      Li |  
 |     Li      Li       Li      Li       |  
 |    Li      Li       Li      Li        |  
 Li    |LLi      LLi     LLi      Li     |  
 |     |                                 |  
 |Li   |  LLi     LLi      LLi     Li    |  
 |  LLi|     LLi     LLi      LLi        |  
 |     |                                 |  
 |    LLi     LLi      LLi     LLi       |  
 Li    |LLi      LLi     LiLi     Li     |  
 |     |                                 |  
 |Li   |   Li      Li       Li           |  
 |   Li|      Li      Li       Li        |  
 |     |                                 |  
 |     |                                 |  
 |     |                                 |  
 |     .---------------------------------.  
 |    /                                 /   
 |   /                                 /    
 |  /                                 /     
 | /                                 /      
 |/                                 /       
 *---------------------------------*        

Atomic positions and initial magnetic moments

Positions:
   0 Li     0.000000    2.467803    8.000000    ( 0.0000,  0.0000,  0.0000)
   1 Li     3.490000    2.467803    8.000000    ( 0.0000,  0.0000,  0.0000)
   2 Li     6.980000    2.467803    8.000000    ( 0.0000,  0.0000,  0.0000)
   3 Li    10.470000    2.467803    8.000000    ( 0.0000,  0.0000,  0.0000)
   4 Li     1.745000    4.935605    8.000000    ( 0.0000,  0.0000,  0.0000)
   5 Li     5.235000    4.935605    8.000000    ( 0.0000,  0.0000,  0.0000)
   6 Li     8.725000    4.935605    8.000000    ( 0.0000,  0.0000,  0.0000)
   7 Li    12.215000    4.935605    8.000000    ( 0.0000,  0.0000,  0.0000)
   8 Li     0.000000    7.403408    8.000000    ( 0.0000,  0.0000,  0.0000)
   9 Li     3.490000    7.403408    8.000000    ( 0.0000,  0.0000,  0.0000)
  10 Li     6.980000    7.403408    8.000000    ( 0.0000,  0.0000,  0.0000)
  11 Li    10.470000    7.403408    8.000000    ( 0.0000,  0.0000,  0.0000)
  12 Li     1.745000    9.871211    8.000000    ( 0.0000,  0.0000,  0.0000)
  13 Li     5.235000    9.871211    8.000000    ( 0.0000,  0.0000,  0.0000)
  14 Li     8.725000    9.871211    8.000000    ( 0.0000,  0.0000,  0.0000)
  15 Li    12.215000    9.871211    8.000000    ( 0.0000,  0.0000,  0.0000)
  16 Li     0.000000    0.000000   10.467803    ( 0.0000,  0.0000,  0.0000)
  17 Li     3.490000    0.000000   10.467803    ( 0.0000,  0.0000,  0.0000)
  18 Li     6.980000    0.000000   10.467803    ( 0.0000,  0.0000,  0.0000)
  19 Li    10.470000    0.000000   10.467803    ( 0.0000,  0.0000,  0.0000)
  20 Li     1.745000    2.467803   10.467803    ( 0.0000,  0.0000,  0.0000)
  21 Li     5.235000    2.467803   10.467803    ( 0.0000,  0.0000,  0.0000)
  22 Li     8.725000    2.467803   10.467803    ( 0.0000,  0.0000,  0.0000)
  23 Li    12.215000    2.467803   10.467803    ( 0.0000,  0.0000,  0.0000)
  24 Li     0.000000    4.935605   10.467803    ( 0.0000,  0.0000,  0.0000)
  25 Li     3.490000    4.935605   10.467803    ( 0.0000,  0.0000,  0.0000)
  26 Li     6.980000    4.935605   10.467803    ( 0.0000,  0.0000,  0.0000)
  27 Li    10.470000    4.935605   10.467803    ( 0.0000,  0.0000,  0.0000)
  28 Li     1.745000    7.403408   10.467803    ( 0.0000,  0.0000,  0.0000)
  29 Li     5.235000    7.403408   10.467803    ( 0.0000,  0.0000,  0.0000)
  30 Li     8.725000    7.403408   10.467803    ( 0.0000,  0.0000,  0.0000)
  31 Li    12.215000    7.403408   10.467803    ( 0.0000,  0.0000,  0.0000)
  32 Li     0.000000    2.467803   12.935605    ( 0.0000,  0.0000,  0.0000)
  33 Li     3.490000    2.467803   12.935605    ( 0.0000,  0.0000,  0.0000)
  34 Li     6.980000    2.467803   12.935605    ( 0.0000,  0.0000,  0.0000)
  35 Li    10.470000    2.467803   12.935605    ( 0.0000,  0.0000,  0.0000)
  36 Li     1.745000    4.935605   12.935605    ( 0.0000,  0.0000,  0.0000)
  37 Li     5.235000    4.935605   12.935605    ( 0.0000,  0.0000,  0.0000)
  38 Li     8.725000    4.935605   12.935605    ( 0.0000,  0.0000,  0.0000)
  39 Li    12.215000    4.935605   12.935605    ( 0.0000,  0.0000,  0.0000)
  40 Li     0.000000    7.403408   12.935605    ( 0.0000,  0.0000,  0.0000)
  41 Li     3.490000    7.403408   12.935605    ( 0.0000,  0.0000,  0.0000)
  42 Li     6.980000    7.403408   12.935605    ( 0.0000,  0.0000,  0.0000)
  43 Li    10.470000    7.403408   12.935605    ( 0.0000,  0.0000,  0.0000)
  44 Li     1.745000    9.871211   12.935605    ( 0.0000,  0.0000,  0.0000)
  45 Li     5.235000    9.871211   12.935605    ( 0.0000,  0.0000,  0.0000)
  46 Li     8.725000    9.871211   12.935605    ( 0.0000,  0.0000,  0.0000)
  47 Li    12.215000    9.871211   12.935605    ( 0.0000,  0.0000,  0.0000)
  48 Li     0.000182    0.000365   15.403902    ( 0.0000,  0.0000,  0.0000)
  49 Li     3.489829    0.000106   15.403447    ( 0.0000,  0.0000,  0.0000)
  50 Li     6.980171    0.000106   15.403447    ( 0.0000,  0.0000,  0.0000)
  51 Li    10.469818    0.000365   15.403902    ( 0.0000,  0.0000,  0.0000)
  52 Li     1.744783    2.467401   15.403448    ( 0.0000,  0.0000,  0.0000)
  53 Li     5.235000    2.467779   15.404490    ( 0.0000,  0.0000,  0.0000)
  54 Li     8.725217    2.467401   15.403448    ( 0.0000,  0.0000,  0.0000)
  55 Li    12.215000    2.467544   15.403804    ( 0.0000,  0.0000,  0.0000)
  56 Li    -0.000010    4.935877   15.403577    ( 0.0000,  0.0000,  0.0000)
  57 Li     3.490054    4.935813   15.403576    ( 0.0000,  0.0000,  0.0000)
  58 Li     6.979946    4.935813   15.403576    ( 0.0000,  0.0000,  0.0000)
  59 Li    10.470010    4.935877   15.403577    ( 0.0000,  0.0000,  0.0000)
  60 Li     1.744939    7.403240   15.403461    ( 0.0000,  0.0000,  0.0000)
  61 Li     5.235000    7.403278   15.403531    ( 0.0000,  0.0000,  0.0000)
  62 Li     8.725061    7.403240   15.403461    ( 0.0000,  0.0000,  0.0000)
  63 Li    12.215000    7.403082   15.403670    ( 0.0000,  0.0000,  0.0000)
  64 Li    -0.000114    2.468383   17.875096    ( 0.0000,  0.0000,  0.0000)
  65 Li     3.486539    2.466790   17.870945    ( 0.0000,  0.0000,  0.0000)
  66 Li     6.983461    2.466790   17.870945    ( 0.0000,  0.0000,  0.0000)
  67 Li    10.470114    2.468383   17.875096    ( 0.0000,  0.0000,  0.0000)
  68 Li     1.746092    4.935989   17.872462    ( 0.0000,  0.0000,  0.0000)
  69 Li     5.235000    4.941138   17.866401    ( 0.0000,  0.0000,  0.0000)
  70 Li     8.723908    4.935989   17.872462    ( 0.0000,  0.0000,  0.0000)
  71 Li    12.215000    4.936650   17.871741    ( 0.0000,  0.0000,  0.0000)
  72 Li     0.000025    7.402301   17.871909    ( 0.0000,  0.0000,  0.0000)
  73 Li     3.489975    7.402412   17.871476    ( 0.0000,  0.0000,  0.0000)
  74 Li     6.980025    7.402412   17.871476    ( 0.0000,  0.0000,  0.0000)
  75 Li    10.469975    7.402301   17.871909    ( 0.0000,  0.0000,  0.0000)
  76 Li     1.745185    9.870689   17.875405    ( 0.0000,  0.0000,  0.0000)
  77 Li     5.235000    9.871918   17.876053    ( 0.0000,  0.0000,  0.0000)
  78 Li     8.724815    9.870689   17.875405    ( 0.0000,  0.0000,  0.0000)
  79 Li    12.215000    9.870530   17.875110    ( 0.0000,  0.0000,  0.0000)
  80 Li    -0.000044    4.930807   20.341012    ( 0.0000,  0.0000,  0.0000)
  81 Li     3.480108    4.940846   20.343558    ( 0.0000,  0.0000,  0.0000)
  82 Li     6.989892    4.940846   20.343558    ( 0.0000,  0.0000,  0.0000)
  83 Li    10.470044    4.930807   20.341012    ( 0.0000,  0.0000,  0.0000)
  84 Li     1.744651    7.408617   20.341078    ( 0.0000,  0.0000,  0.0000)
  85 Li     5.235000    7.406046   20.341197    ( 0.0000,  0.0000,  0.0000)
  86 Li     8.725349    7.408617   20.341078    ( 0.0000,  0.0000,  0.0000)
  87 Li    12.215000    7.408033   20.340930    ( 0.0000,  0.0000,  0.0000)
  88 Li     5.235000    3.311646   19.877403    ( 0.0000,  0.0000,  0.0000)

Unit cell:
           periodic     x           y           z      points  spacing
  1. axis:    yes   13.960000    0.000000    0.000000    68     0.2053
  2. axis:    yes    0.000000    9.871211    0.000000    48     0.2057
  3. axis:    no     0.000000    0.000000   28.339013   140     0.2024

  Lengths:  13.960000   9.871211  28.339013
  Angles:   90.000000  90.000000  90.000000

Effective grid spacing dv^(1/3) = 0.2045

     iter     time        total  log10-change:
                         energy   eigst   dens
iter:   1 05:40:23  -141.442302        c
iter:   2 05:40:26  -141.442612        c -2.84
iter:   3 05:40:29  -141.441922c       c -2.86
iter:   4 05:40:32  -141.442131c       c -3.07
iter:   5 05:40:35  -141.442096c       c -3.34
iter:   6 05:40:38  -141.442124c       c -3.52
iter:   7 05:40:41  -141.442130c       c -3.69
iter:   8 05:40:44  -141.442127c       c -3.83
iter:   9 05:40:46  -141.442137c       c -4.00c

Converged after 9 iterations.

Dipole moment: (-9.777125, -13.870819, 0.557458) |e|*Ang

Energy contributions relative to reference atoms: (reference = -18048.116001)

Kinetic:       +282.852511
Potential:     -233.344279
External:        +0.000000
XC:            -189.525608
Entropy (-ST):   -1.664109
Local:           -0.592707
SIC:             +0.000000
--------------------------
Free energy:   -142.274191
Extrapolated:  -141.442137

Showing all kpts
 Kpt  Band  Eigenvalues  Occupancy
  0    42     -2.84467    1.23328
  0    43     -2.81433    1.08576
  0    44     -2.79616    0.99513
  0    45     -2.75137    0.77511

  1    42     -2.84467    1.23328
  1    43     -2.81433    1.08576
  1    44     -2.79616    0.99513
  1    45     -2.75137    0.77511


Fermi level: -2.79714

Gap: 0.018 eV
Transition (v -> c):
  (s=0, k=1, n=43, [0.25, 0.25, 0.00]) -> (s=0, k=0, n=44, [0.25, -0.25, 0.00])
Direct/indirect transitions are different
Direct gap: 0.018 eV
Transition at: (s=0, k=0, n=43, [0.25, -0.25, 0.00])

Forces in eV/Ang:
  0 Li    0.00085   -0.00373   -0.16996
  1 Li    0.00066   -0.00904   -0.17148
  2 Li   -0.00066   -0.00904   -0.17148
  3 Li   -0.00085   -0.00373   -0.16996
  4 Li   -0.00285   -0.00709   -0.16147
  5 Li    0.00000   -0.00781   -0.15888
  6 Li    0.00285   -0.00709   -0.16147
  7 Li    0.00000   -0.00739   -0.16184
  8 Li    0.00083    0.00778   -0.16397
  9 Li   -0.00151    0.01058   -0.16011
 10 Li    0.00151    0.01058   -0.16011
 11 Li   -0.00083    0.00778   -0.16397
 12 Li    0.00151    0.00371   -0.17085
 13 Li    0.00000    0.00671   -0.17314
 14 Li   -0.00151    0.00371   -0.17085
 15 Li   -0.00000    0.00402   -0.17299
 16 Li   -0.00043   -0.00147   -0.07392
 17 Li   -0.00104   -0.00195   -0.07022
 18 Li    0.00104   -0.00195   -0.07022
 19 Li    0.00043   -0.00147   -0.07392
 20 Li   -0.00024    0.00050   -0.07547
 21 Li   -0.00000    0.00373   -0.07719
 22 Li    0.00024    0.00050   -0.07547
 23 Li    0.00000    0.00559   -0.07365
 24 Li   -0.00253   -0.00196   -0.07307
 25 Li   -0.00110   -0.00172   -0.07626
 26 Li    0.00110   -0.00172   -0.07626
 27 Li    0.00253   -0.00196   -0.07307
 28 Li    0.00088    0.00024   -0.07697
 29 Li    0.00000    0.00232   -0.07779
 30 Li   -0.00088    0.00024   -0.07697
 31 Li    0.00000    0.00088   -0.07495
 32 Li   -0.00348    0.00877   -0.00719
 33 Li   -0.00016    0.00302    0.00193
 34 Li    0.00016    0.00302    0.00193
 35 Li    0.00348    0.00877   -0.00719
 36 Li    0.00209   -0.00913   -0.00206
 37 Li   -0.00000   -0.00401   -0.00477
 38 Li   -0.00209   -0.00913   -0.00206
 39 Li    0.00000   -0.01019   -0.00253
 40 Li   -0.00184    0.01091   -0.00485
 41 Li   -0.00150    0.00494    0.00350
 42 Li    0.00150    0.00494    0.00350
 43 Li    0.00184    0.01091   -0.00485
 44 Li   -0.00236   -0.00736   -0.01422
 45 Li   -0.00000   -0.00068   -0.00563
 46 Li    0.00236   -0.00736   -0.01422
 47 Li   -0.00000   -0.00748    0.00484
 48 Li    0.01237    0.02450    0.03770
 49 Li   -0.01106    0.00688    0.00605
 50 Li    0.01106    0.00688    0.00605
 51 Li   -0.01237    0.02450    0.03770
 52 Li   -0.01646   -0.02648    0.00406
 53 Li    0.00000   -0.00191    0.07604
 54 Li    0.01646   -0.02648    0.00406
 55 Li    0.00000   -0.01762    0.03034
 56 Li    0.00023    0.01742    0.01303
 57 Li    0.00129    0.01379    0.00787
 58 Li   -0.00129    0.01379    0.00787
 59 Li   -0.00023    0.01742    0.01303
 60 Li   -0.00382   -0.01157    0.00496
 61 Li   -0.00000   -0.00727    0.00742
 62 Li    0.00382   -0.01157    0.00496
 63 Li   -0.00000   -0.02090    0.01806
 64 Li   -0.00823    0.03968    0.26922
 65 Li   -0.23456   -0.06148   -0.01616
 66 Li    0.23456   -0.06148   -0.01616
 67 Li    0.00823    0.03968    0.26922
 68 Li    0.07118    0.02642    0.08532
 69 Li    0.00000    0.35407   -0.29061
 70 Li   -0.07118    0.02642    0.08532
 71 Li   -0.00000    0.07130    0.03834
 72 Li    0.00243   -0.07691    0.04980
 73 Li   -0.00374   -0.06223    0.01955
 74 Li    0.00374   -0.06223    0.01955
 75 Li   -0.00243   -0.07691    0.04980
 76 Li    0.01175   -0.03586    0.29078
 77 Li    0.00000    0.04532    0.33432
 78 Li   -0.01175   -0.03586    0.29078
 79 Li    0.00000   -0.04659    0.26977
 80 Li   -0.00516   -0.32594    0.13863
 81 Li   -0.63918    0.33633    0.30055
 82 Li    0.63918    0.33633    0.30055
 83 Li    0.00516   -0.32594    0.13863
 84 Li   -0.02890    0.36253    0.14335
 85 Li    0.00000    0.18296    0.15087
 86 Li    0.02890    0.36253    0.14335
 87 Li    0.00000    0.31436    0.13336
 88 Li    0.00000   -1.32860    0.42950

System changes: positions 

Initializing position-dependent things.

Density initialized from wave functions
       .---------------------------------.  
      /|                                 |  
     / |                                 |  
    /  |                                 |  
   /   |                                 |  
  /    |                                 |  
 *     |                                 |  
 |     |                                 |  
 |     |                                 |  
 |     |                                 |  
 |     |                                 |  
 |     |  Li      Li       Li      Li    |  
 |     |                                 |  
 |     |   LLi       Li     LLi      LLi |  
 |   Li|      LiLi    Li       Li        |  
 |     |                                 |  
 |     |Li       Li      Li       Li     |  
 |     |  LLi     LiLi     LLi     LiLi  |  
 |     |                                 |  
 |  Li |     LLi     Li       Li         |  
 |     Li      Li       Li      Li       |  
 |    Li      Li       Li      Li        |  
 Li    |LLi      LLi     LLi      Li     |  
 |     |                                 |  
 |Li   |  LLi     LLi      LLi     Li    |  
 |  LLi|     LLi     LLi      LLi        |  
 |     |                                 |  
 |    LLi     LLi      LLi     LLi       |  
 Li    |LLi      LLi     LiLi     Li     |  
 |     |                                 |  
 |Li   |   Li      Li       Li           |  
 |   Li|      Li      Li       Li        |  
 |     |                                 |  
 |     |                                 |  
 |     |                                 |  
 |     .---------------------------------.  
 |    /                                 /   
 |   /                                 /    
 |  /                                 /     
 | /                                 /      
 |/                                 /       
 *---------------------------------*        

Atomic positions and initial magnetic moments

Positions:
   0 Li     0.000000    2.467803    8.000000    ( 0.0000,  0.0000,  0.0000)
   1 Li     3.490000    2.467803    8.000000    ( 0.0000,  0.0000,  0.0000)
   2 Li     6.980000    2.467803    8.000000    ( 0.0000,  0.0000,  0.0000)
   3 Li    10.470000    2.467803    8.000000    ( 0.0000,  0.0000,  0.0000)
   4 Li     1.745000    4.935605    8.000000    ( 0.0000,  0.0000,  0.0000)
   5 Li     5.235000    4.935605    8.000000    ( 0.0000,  0.0000,  0.0000)
   6 Li     8.725000    4.935605    8.000000    ( 0.0000,  0.0000,  0.0000)
   7 Li    12.215000    4.935605    8.000000    ( 0.0000,  0.0000,  0.0000)
   8 Li     0.000000    7.403408    8.000000    ( 0.0000,  0.0000,  0.0000)
   9 Li     3.490000    7.403408    8.000000    ( 0.0000,  0.0000,  0.0000)
  10 Li     6.980000    7.403408    8.000000    ( 0.0000,  0.0000,  0.0000)
  11 Li    10.470000    7.403408    8.000000    ( 0.0000,  0.0000,  0.0000)
  12 Li     1.745000    9.871211    8.000000    ( 0.0000,  0.0000,  0.0000)
  13 Li     5.235000    9.871211    8.000000    ( 0.0000,  0.0000,  0.0000)
  14 Li     8.725000    9.871211    8.000000    ( 0.0000,  0.0000,  0.0000)
  15 Li    12.215000    9.871211    8.000000    ( 0.0000,  0.0000,  0.0000)
  16 Li     0.000000    0.000000   10.467803    ( 0.0000,  0.0000,  0.0000)
  17 Li     3.490000    0.000000   10.467803    ( 0.0000,  0.0000,  0.0000)
  18 Li     6.980000    0.000000   10.467803    ( 0.0000,  0.0000,  0.0000)
  19 Li    10.470000    0.000000   10.467803    ( 0.0000,  0.0000,  0.0000)
  20 Li     1.745000    2.467803   10.467803    ( 0.0000,  0.0000,  0.0000)
  21 Li     5.235000    2.467803   10.467803    ( 0.0000,  0.0000,  0.0000)
  22 Li     8.725000    2.467803   10.467803    ( 0.0000,  0.0000,  0.0000)
  23 Li    12.215000    2.467803   10.467803    ( 0.0000,  0.0000,  0.0000)
  24 Li     0.000000    4.935605   10.467803    ( 0.0000,  0.0000,  0.0000)
  25 Li     3.490000    4.935605   10.467803    ( 0.0000,  0.0000,  0.0000)
  26 Li     6.980000    4.935605   10.467803    ( 0.0000,  0.0000,  0.0000)
  27 Li    10.470000    4.935605   10.467803    ( 0.0000,  0.0000,  0.0000)
  28 Li     1.745000    7.403408   10.467803    ( 0.0000,  0.0000,  0.0000)
  29 Li     5.235000    7.403408   10.467803    ( 0.0000,  0.0000,  0.0000)
  30 Li     8.725000    7.403408   10.467803    ( 0.0000,  0.0000,  0.0000)
  31 Li    12.215000    7.403408   10.467803    ( 0.0000,  0.0000,  0.0000)
  32 Li     0.000000    2.467803   12.935605    ( 0.0000,  0.0000,  0.0000)
  33 Li     3.490000    2.467803   12.935605    ( 0.0000,  0.0000,  0.0000)
  34 Li     6.980000    2.467803   12.935605    ( 0.0000,  0.0000,  0.0000)
  35 Li    10.470000    2.467803   12.935605    ( 0.0000,  0.0000,  0.0000)
  36 Li     1.745000    4.935605   12.935605    ( 0.0000,  0.0000,  0.0000)
  37 Li     5.235000    4.935605   12.935605    ( 0.0000,  0.0000,  0.0000)
  38 Li     8.725000    4.935605   12.935605    ( 0.0000,  0.0000,  0.0000)
  39 Li    12.215000    4.935605   12.935605    ( 0.0000,  0.0000,  0.0000)
  40 Li     0.000000    7.403408   12.935605    ( 0.0000,  0.0000,  0.0000)
  41 Li     3.490000    7.403408   12.935605    ( 0.0000,  0.0000,  0.0000)
  42 Li     6.980000    7.403408   12.935605    ( 0.0000,  0.0000,  0.0000)
  43 Li    10.470000    7.403408   12.935605    ( 0.0000,  0.0000,  0.0000)
  44 Li     1.745000    9.871211   12.935605    ( 0.0000,  0.0000,  0.0000)
  45 Li     5.235000    9.871211   12.935605    ( 0.0000,  0.0000,  0.0000)
  46 Li     8.725000    9.871211   12.935605    ( 0.0000,  0.0000,  0.0000)
  47 Li    12.215000    9.871211   12.935605    ( 0.0000,  0.0000,  0.0000)
  48 Li     0.001953    0.003874   15.409289    ( 0.0000,  0.0000,  0.0000)
  49 Li     3.488244    0.001091   15.404304    ( 0.0000,  0.0000,  0.0000)
  50 Li     6.981756    0.001091   15.404304    ( 0.0000,  0.0000,  0.0000)
  51 Li    10.468047    0.003874   15.409289    ( 0.0000,  0.0000,  0.0000)
  52 Li     1.742430    2.463608   15.404026    ( 0.0000,  0.0000,  0.0000)
  53 Li     5.235000    2.467506   15.415372    ( 0.0000,  0.0000,  0.0000)
  54 Li     8.727570    2.463608   15.404026    ( 0.0000,  0.0000,  0.0000)
  55 Li    12.215000    2.465021   15.408140    ( 0.0000,  0.0000,  0.0000)
  56 Li     0.000021    4.938373   15.405439    ( 0.0000,  0.0000,  0.0000)
  57 Li     3.490245    4.937789   15.404713    ( 0.0000,  0.0000,  0.0000)
  58 Li     6.979755    4.937789   15.404713    ( 0.0000,  0.0000,  0.0000)
  59 Li    10.469979    4.938373   15.405439    ( 0.0000,  0.0000,  0.0000)
  60 Li     1.744390    7.401583   15.404168    ( 0.0000,  0.0000,  0.0000)
  61 Li     5.235000    7.402234   15.404597    ( 0.0000,  0.0000,  0.0000)
  62 Li     8.725610    7.401583   15.404168    ( 0.0000,  0.0000,  0.0000)
  63 Li    12.215000    7.400086   15.406255    ( 0.0000,  0.0000,  0.0000)
  64 Li    -0.001291    2.474065   17.913634    ( 0.0000,  0.0000,  0.0000)
  65 Li     3.452948    2.457967   17.868626    ( 0.0000,  0.0000,  0.0000)
  66 Li     7.017052    2.457967   17.868626    ( 0.0000,  0.0000,  0.0000)
  67 Li    10.471291    2.474065   17.913634    ( 0.0000,  0.0000,  0.0000)
  68 Li     1.756293    4.939771   17.884679    ( 0.0000,  0.0000,  0.0000)
  69 Li     5.235000    4.991898   17.824691    ( 0.0000,  0.0000,  0.0000)
  70 Li     8.713707    4.939771   17.884679    ( 0.0000,  0.0000,  0.0000)
  71 Li    12.215000    4.946859   17.877225    ( 0.0000,  0.0000,  0.0000)
  72 Li     0.000371    7.391292   17.879033    ( 0.0000,  0.0000,  0.0000)
  73 Li     3.489445    7.393486   17.874272    ( 0.0000,  0.0000,  0.0000)
  74 Li     6.980555    7.393486   17.874272    ( 0.0000,  0.0000,  0.0000)
  75 Li    10.469629    7.391292   17.879033    ( 0.0000,  0.0000,  0.0000)
  76 Li     1.746870    9.865555   17.917029    ( 0.0000,  0.0000,  0.0000)
  77 Li     5.235000    9.878415   17.923915    ( 0.0000,  0.0000,  0.0000)
  78 Li     8.723130    9.865555   17.917029    ( 0.0000,  0.0000,  0.0000)
  79 Li    12.215000    9.863860   17.913728    ( 0.0000,  0.0000,  0.0000)
  80 Li    -0.000777    4.884132   20.360856    ( 0.0000,  0.0000,  0.0000)
  81 Li     3.388491    4.989061   20.386619    ( 0.0000,  0.0000,  0.0000)
  82 Li     7.081509    4.989061   20.386619    ( 0.0000,  0.0000,  0.0000)
  83 Li    10.470777    4.884132   20.360856    ( 0.0000,  0.0000,  0.0000)
  84 Li     1.740527    7.460509   20.361598    ( 0.0000,  0.0000,  0.0000)
  85 Li     5.235000    7.432237   20.362795    ( 0.0000,  0.0000,  0.0000)
  86 Li     8.729473    7.460509   20.361598    ( 0.0000,  0.0000,  0.0000)
  87 Li    12.215000    7.453049   20.360020    ( 0.0000,  0.0000,  0.0000)
  88 Li     5.235000    3.121331   19.938886    ( 0.0000,  0.0000,  0.0000)

Unit cell:
           periodic     x           y           z      points  spacing
  1. axis:    yes   13.960000    0.000000    0.000000    68     0.2053
  2. axis:    yes    0.000000    9.871211    0.000000    48     0.2057
  3. axis:    no     0.000000    0.000000   28.339013   140     0.2024

  Lengths:  13.960000   9.871211  28.339013
  Angles:   90.000000  90.000000  90.000000

Effective grid spacing dv^(1/3) = 0.2045

     iter     time        total  log10-change:
                         energy   eigst   dens
iter:   1 05:40:57  -142.113049        c
iter:   2 05:41:00  -142.230402        c -1.50
iter:   3 05:41:03  -141.991132        c -1.28
iter:   4 05:41:06  -141.988941        c -2.17
iter:   5 05:41:08  -141.986410c       c -2.35
iter:   6 05:41:11  -141.985384c       c -2.54
iter:   7 05:41:14  -141.984992c       c -2.74
iter:   8 05:41:17  -141.984700c       c -2.89
iter:   9 05:41:19  -141.985208c       c -2.96
iter:  10 05:41:22  -141.984546c       c -2.88
iter:  11 05:41:25  -141.984521c       c -3.21
iter:  12 05:41:28  -141.984498c       c -3.34
iter:  13 05:41:30  -141.984465c       c -3.50
iter:  14 05:41:33  -141.984477c       c -3.62
iter:  15 05:41:36  -141.984437c       c -3.71
iter:  16 05:41:39  -141.984526c       c -3.73
iter:  17 05:41:42  -141.984469c       c -3.73
iter:  18 05:41:44  -141.984465c       c -4.07c

Converged after 18 iterations.

Dipole moment: (-9.731889, -13.793173, 0.607688) |e|*Ang

Energy contributions relative to reference atoms: (reference = -18048.116001)

Kinetic:       +278.126287
Potential:     -230.178655
External:        +0.000000
XC:            -188.510770
Entropy (-ST):   -1.665529
Local:           -0.588562
SIC:             +0.000000
--------------------------
Free energy:   -142.817230
Extrapolated:  -141.984465

Showing all kpts
 Kpt  Band  Eigenvalues  Occupancy
  0    42     -2.82273    1.20642
  0    43     -2.79692    1.08022
  0    44     -2.77403    0.96593
  0    45     -2.73513    0.77532

  1    42     -2.82273    1.20642
  1    43     -2.79692    1.08022
  1    44     -2.77403    0.96593
  1    45     -2.73513    0.77532


Fermi level: -2.78084

Gap: 0.023 eV
Transition (v -> c):
  (s=0, k=1, n=43, [0.25, 0.25, 0.00]) -> (s=0, k=1, n=44, [0.25, 0.25, 0.00])
No difference between direct/indirect transitions

Forces in eV/Ang:
  0 Li    0.00001   -0.00401   -0.16994
  1 Li    0.00086   -0.00897   -0.17104
  2 Li   -0.00086   -0.00897   -0.17104
  3 Li   -0.00001   -0.00401   -0.16994
  4 Li   -0.00271   -0.00703   -0.16102
  5 Li   -0.00000   -0.00789   -0.15814
  6 Li    0.00271   -0.00703   -0.16102
  7 Li    0.00000   -0.00805   -0.16203
  8 Li    0.00069    0.00770   -0.16323
  9 Li   -0.00142    0.01012   -0.15974
 10 Li    0.00142    0.01012   -0.15974
 11 Li   -0.00069    0.00770   -0.16323
 12 Li    0.00123    0.00409   -0.17094
 13 Li    0.00000    0.00722   -0.17247
 14 Li   -0.00123    0.00409   -0.17094
 15 Li    0.00000    0.00487   -0.17231
 16 Li   -0.00095   -0.00141   -0.07367
 17 Li   -0.00100   -0.00195   -0.07131
 18 Li    0.00100   -0.00195   -0.07131
 19 Li    0.00095   -0.00141   -0.07367
 20 Li   -0.00016    0.00041   -0.07548
 21 Li   -0.00000    0.00352   -0.07779
 22 Li    0.00016    0.00041   -0.07548
 23 Li    0.00000    0.00460   -0.07426
 24 Li   -0.00254   -0.00217   -0.07421
 25 Li   -0.00080   -0.00218   -0.07650
 26 Li    0.00080   -0.00218   -0.07650
 27 Li    0.00254   -0.00217   -0.07421
 28 Li    0.00039    0.00085   -0.07830
 29 Li    0.00000    0.00294   -0.07800
 30 Li   -0.00039    0.00085   -0.07830
 31 Li   -0.00000    0.00156   -0.07405
 32 Li   -0.00505    0.00878   -0.00828
 33 Li    0.00245    0.00332    0.00780
 34 Li   -0.00245    0.00332    0.00780
 35 Li    0.00505    0.00878   -0.00828
 36 Li    0.00098   -0.00903   -0.00233
 37 Li    0.00000   -0.00509    0.00298
 38 Li   -0.00098   -0.00903   -0.00233
 39 Li   -0.00000   -0.01203    0.00055
 40 Li   -0.00107    0.01219   -0.00183
 41 Li   -0.00099    0.00481    0.00317
 42 Li    0.00099    0.00481    0.00317
 43 Li    0.00107    0.01219   -0.00183
 44 Li   -0.00340   -0.00828   -0.01444
 45 Li    0.00000    0.00126   -0.00645
 46 Li    0.00340   -0.00828   -0.01444
 47 Li   -0.00000   -0.00733    0.00857
 48 Li    0.01068    0.01652    0.06821
 49 Li   -0.00256   -0.00027    0.03687
 50 Li    0.00256   -0.00027    0.03687
 51 Li   -0.01068    0.01652    0.06821
 52 Li   -0.02884   -0.01322    0.01373
 53 Li   -0.00000   -0.00428    0.07758
 54 Li    0.02884   -0.01322    0.01373
 55 Li   -0.00000   -0.01308    0.05694
 56 Li    0.00764    0.00248    0.02283
 57 Li   -0.02103    0.00456   -0.02291
 58 Li    0.02103    0.00456   -0.02291
 59 Li   -0.00764    0.00248    0.02283
 60 Li   -0.00024   -0.00671    0.01591
 61 Li    0.00000    0.01545   -0.00237
 62 Li    0.00024   -0.00671    0.01591
 63 Li    0.00000   -0.00508    0.01487
 64 Li   -0.01446    0.03062    0.23560
 65 Li   -0.15563    0.01764    0.01295
 66 Li    0.15563    0.01764    0.01295
 67 Li    0.01446    0.03062    0.23560
 68 Li    0.02648    0.02561    0.06398
 69 Li   -0.00000    0.07585    0.07045
 70 Li   -0.02648    0.02561    0.06398
 71 Li   -0.00000    0.05401    0.05391
 72 Li    0.01022   -0.06981    0.06447
 73 Li   -0.01871   -0.00174    0.03268
 74 Li    0.01871   -0.00174    0.03268
 75 Li   -0.01022   -0.06981    0.06447
 76 Li    0.00216   -0.03296    0.25638
 77 Li   -0.00000    0.00913    0.27738
 78 Li   -0.00216   -0.03296    0.25638
 79 Li   -0.00000   -0.03692    0.23556
 80 Li   -0.03007   -0.23438    0.12625
 81 Li   -0.21869    0.07968    0.16532
 82 Li    0.21869    0.07968    0.16532
 83 Li    0.03007   -0.23438    0.12625
 84 Li   -0.06593    0.33380    0.13065
 85 Li    0.00000    0.17009    0.13284
 86 Li    0.06593    0.33380    0.13065
 87 Li    0.00000    0.22291    0.12316
 88 Li    0.00000   -0.81055    0.38384

System changes: positions 

Initializing position-dependent things.

Density initialized from wave functions
       .---------------------------------.  
      /|                                 |  
     / |                                 |  
    /  |                                 |  
   /   |                                 |  
  /    |                                 |  
 *     |                                 |  
 |     |                                 |  
 |     |                                 |  
 |     |                                 |  
 |     |                                 |  
 |     |  Li      Li       Li      Li    |  
 |     |                                 |  
 |     |   LLi        Li    LLi      LLi |  
 |   Li|      Li      Li       Li        |  
 |     |        Li                       |  
 |     |Li       Li      Li       Li     |  
 |     |  LLi     LiLi     LLi     LiLi  |  
 |     |                                 |  
 |  Li |     LLi     Li       Li         |  
 |     Li      Li       Li      Li       |  
 |    Li      Li       Li      Li        |  
 Li    |LLi      LLi     LLi      Li     |  
 |     |                                 |  
 |Li   |  LLi     LLi      LLi     Li    |  
 |  LLi|     LLi     LLi      LLi        |  
 |     |                                 |  
 |    LLi     LLi      LLi     LLi       |  
 Li    |LLi      LLi     LiLi     Li     |  
 |     |                                 |  
 |Li   |   Li      Li       Li           |  
 |   Li|      Li      Li       Li        |  
 |     |                                 |  
 |     |                                 |  
 |     |                                 |  
 |     .---------------------------------.  
 |    /                                 /   
 |   /                                 /    
 |  /                                 /     
 | /                                 /      
 |/                                 /       
 *---------------------------------*        

Atomic positions and initial magnetic moments

Positions:
   0 Li     0.000000    2.467803    8.000000    ( 0.0000,  0.0000,  0.0000)
   1 Li     3.490000    2.467803    8.000000    ( 0.0000,  0.0000,  0.0000)
   2 Li     6.980000    2.467803    8.000000    ( 0.0000,  0.0000,  0.0000)
   3 Li    10.470000    2.467803    8.000000    ( 0.0000,  0.0000,  0.0000)
   4 Li     1.745000    4.935605    8.000000    ( 0.0000,  0.0000,  0.0000)
   5 Li     5.235000    4.935605    8.000000    ( 0.0000,  0.0000,  0.0000)
   6 Li     8.725000    4.935605    8.000000    ( 0.0000,  0.0000,  0.0000)
   7 Li    12.215000    4.935605    8.000000    ( 0.0000,  0.0000,  0.0000)
   8 Li     0.000000    7.403408    8.000000    ( 0.0000,  0.0000,  0.0000)
   9 Li     3.490000    7.403408    8.000000    ( 0.0000,  0.0000,  0.0000)
  10 Li     6.980000    7.403408    8.000000    ( 0.0000,  0.0000,  0.0000)
  11 Li    10.470000    7.403408    8.000000    ( 0.0000,  0.0000,  0.0000)
  12 Li     1.745000    9.871211    8.000000    ( 0.0000,  0.0000,  0.0000)
  13 Li     5.235000    9.871211    8.000000    ( 0.0000,  0.0000,  0.0000)
  14 Li     8.725000    9.871211    8.000000    ( 0.0000,  0.0000,  0.0000)
  15 Li    12.215000    9.871211    8.000000    ( 0.0000,  0.0000,  0.0000)
  16 Li     0.000000    0.000000   10.467803    ( 0.0000,  0.0000,  0.0000)
  17 Li     3.490000    0.000000   10.467803    ( 0.0000,  0.0000,  0.0000)
  18 Li     6.980000    0.000000   10.467803    ( 0.0000,  0.0000,  0.0000)
  19 Li    10.470000    0.000000   10.467803    ( 0.0000,  0.0000,  0.0000)
  20 Li     1.745000    2.467803   10.467803    ( 0.0000,  0.0000,  0.0000)
  21 Li     5.235000    2.467803   10.467803    ( 0.0000,  0.0000,  0.0000)
  22 Li     8.725000    2.467803   10.467803    ( 0.0000,  0.0000,  0.0000)
  23 Li    12.215000    2.467803   10.467803    ( 0.0000,  0.0000,  0.0000)
  24 Li     0.000000    4.935605   10.467803    ( 0.0000,  0.0000,  0.0000)
  25 Li     3.490000    4.935605   10.467803    ( 0.0000,  0.0000,  0.0000)
  26 Li     6.980000    4.935605   10.467803    ( 0.0000,  0.0000,  0.0000)
  27 Li    10.470000    4.935605   10.467803    ( 0.0000,  0.0000,  0.0000)
  28 Li     1.745000    7.403408   10.467803    ( 0.0000,  0.0000,  0.0000)
  29 Li     5.235000    7.403408   10.467803    ( 0.0000,  0.0000,  0.0000)
  30 Li     8.725000    7.403408   10.467803    ( 0.0000,  0.0000,  0.0000)
  31 Li    12.215000    7.403408   10.467803    ( 0.0000,  0.0000,  0.0000)
  32 Li     0.000000    2.467803   12.935605    ( 0.0000,  0.0000,  0.0000)
  33 Li     3.490000    2.467803   12.935605    ( 0.0000,  0.0000,  0.0000)
  34 Li     6.980000    2.467803   12.935605    ( 0.0000,  0.0000,  0.0000)
  35 Li    10.470000    2.467803   12.935605    ( 0.0000,  0.0000,  0.0000)
  36 Li     1.745000    4.935605   12.935605    ( 0.0000,  0.0000,  0.0000)
  37 Li     5.235000    4.935605   12.935605    ( 0.0000,  0.0000,  0.0000)
  38 Li     8.725000    4.935605   12.935605    ( 0.0000,  0.0000,  0.0000)
  39 Li    12.215000    4.935605   12.935605    ( 0.0000,  0.0000,  0.0000)
  40 Li     0.000000    7.403408   12.935605    ( 0.0000,  0.0000,  0.0000)
  41 Li     3.490000    7.403408   12.935605    ( 0.0000,  0.0000,  0.0000)
  42 Li     6.980000    7.403408   12.935605    ( 0.0000,  0.0000,  0.0000)
  43 Li    10.470000    7.403408   12.935605    ( 0.0000,  0.0000,  0.0000)
  44 Li     1.745000    9.871211   12.935605    ( 0.0000,  0.0000,  0.0000)
  45 Li     5.235000    9.871211   12.935605    ( 0.0000,  0.0000,  0.0000)
  46 Li     8.725000    9.871211   12.935605    ( 0.0000,  0.0000,  0.0000)
  47 Li    12.215000    9.871211   12.935605    ( 0.0000,  0.0000,  0.0000)
  48 Li     0.003789    0.007404   15.415691    ( 0.0000,  0.0000,  0.0000)
  49 Li     3.486763    0.001970   15.405919    ( 0.0000,  0.0000,  0.0000)
  50 Li     6.983237    0.001970   15.405919    ( 0.0000,  0.0000,  0.0000)
  51 Li    10.466211    0.007404   15.415691    ( 0.0000,  0.0000,  0.0000)
  52 Li     1.739657    2.459898   15.404860    ( 0.0000,  0.0000,  0.0000)
  53 Li     5.235000    2.467162   15.426921    ( 0.0000,  0.0000,  0.0000)
  54 Li     8.730343    2.459898   15.404860    ( 0.0000,  0.0000,  0.0000)
  55 Li    12.215000    2.462455   15.413340    ( 0.0000,  0.0000,  0.0000)
  56 Li     0.000223    4.940672   15.407634    ( 0.0000,  0.0000,  0.0000)
  57 Li     3.489935    4.939666   15.405210    ( 0.0000,  0.0000,  0.0000)
  58 Li     6.980065    4.939666   15.405210    ( 0.0000,  0.0000,  0.0000)
  59 Li    10.469777    4.940672   15.407634    ( 0.0000,  0.0000,  0.0000)
  60 Li     1.743892    7.399942   15.405167    ( 0.0000,  0.0000,  0.0000)
  61 Li     5.235000    7.401652   15.405499    ( 0.0000,  0.0000,  0.0000)
  62 Li     8.726108    7.399942   15.405167    ( 0.0000,  0.0000,  0.0000)
  63 Li    12.215000    7.397280   15.408917    ( 0.0000,  0.0000,  0.0000)
  64 Li    -0.002680    2.479868   17.953634    ( 0.0000,  0.0000,  0.0000)
  65 Li     3.419224    2.450447   17.866844    ( 0.0000,  0.0000,  0.0000)
  66 Li     7.050776    2.450447   17.866844    ( 0.0000,  0.0000,  0.0000)
  67 Li    10.472680    2.479868   17.953634    ( 0.0000,  0.0000,  0.0000)
  68 Li     1.766061    4.943756   17.897116    ( 0.0000,  0.0000,  0.0000)
  69 Li     5.235000    5.039223   17.788832    ( 0.0000,  0.0000,  0.0000)
  70 Li     8.703939    4.943756   17.897116    ( 0.0000,  0.0000,  0.0000)
  71 Li    12.215000    4.957264   17.883387    ( 0.0000,  0.0000,  0.0000)
  72 Li     0.000916    7.379808   17.886911    ( 0.0000,  0.0000,  0.0000)
  73 Li     3.488542    7.385429   17.877533    ( 0.0000,  0.0000,  0.0000)
  74 Li     6.981458    7.385429   17.877533    ( 0.0000,  0.0000,  0.0000)
  75 Li    10.469084    7.379808   17.886911    ( 0.0000,  0.0000,  0.0000)
  76 Li     1.748432    9.860189   17.960277    ( 0.0000,  0.0000,  0.0000)
  77 Li     5.235000    9.884459   17.973241    ( 0.0000,  0.0000,  0.0000)
  78 Li     8.721568    9.860189   17.960277    ( 0.0000,  0.0000,  0.0000)
  79 Li    12.215000    9.857024   17.953801    ( 0.0000,  0.0000,  0.0000)
  80 Li    -0.002126    4.836851   20.381568    ( 0.0000,  0.0000,  0.0000)
  81 Li     3.301191    5.034186   20.429081    ( 0.0000,  0.0000,  0.0000)
  82 Li     7.168809    5.034186   20.429081    ( 0.0000,  0.0000,  0.0000)
  83 Li    10.472126    4.836851   20.381568    ( 0.0000,  0.0000,  0.0000)
  84 Li     1.735314    7.514750   20.383016    ( 0.0000,  0.0000,  0.0000)
  85 Li     5.235000    7.459653   20.385233    ( 0.0000,  0.0000,  0.0000)
  86 Li     8.734686    7.514750   20.383016    ( 0.0000,  0.0000,  0.0000)
  87 Li    12.215000    7.498576   20.379982    ( 0.0000,  0.0000,  0.0000)
  88 Li     5.235000    2.931847   20.002885    ( 0.0000,  0.0000,  0.0000)

Unit cell:
           periodic     x           y           z      points  spacing
  1. axis:    yes   13.960000    0.000000    0.000000    68     0.2053
  2. axis:    yes    0.000000    9.871211    0.000000    48     0.2057
  3. axis:    no     0.000000    0.000000   28.339013   140     0.2024

  Lengths:  13.960000   9.871211  28.339013
  Angles:   90.000000  90.000000  90.000000

Effective grid spacing dv^(1/3) = 0.2045

     iter     time        total  log10-change:
                         energy   eigst   dens
iter:   1 05:41:55  -142.639765        c
iter:   2 05:41:58  -143.075914        c -1.26
iter:   3 05:42:00  -142.300844        c -1.03
iter:   4 05:42:03  -142.296521        c -2.07
iter:   5 05:42:06  -142.295038c       c -2.36
iter:   6 05:42:09  -142.293787c       c -2.51
iter:   7 05:42:12  -142.293180c       c -2.70
iter:   8 05:42:15  -142.292997c       c -2.89
iter:   9 05:42:17  -142.293146c       c -2.99
iter:  10 05:42:20  -142.292804c       c -3.10
iter:  11 05:42:23  -142.292853c       c -3.19
iter:  12 05:42:25  -142.292797c       c -3.36
iter:  13 05:42:28  -142.292753c       c -3.51
iter:  14 05:42:31  -142.292756c       c -3.67
iter:  15 05:42:34  -142.292745c       c -3.79
iter:  16 05:42:36  -142.292820c       c -3.87
iter:  17 05:42:39  -142.292756c       c -3.76
iter:  18 05:42:42  -142.292762c       c -4.11c

Converged after 18 iterations.

Dipole moment: (-9.683534, -13.690307, 0.653445) |e|*Ang

Energy contributions relative to reference atoms: (reference = -18048.116001)

Kinetic:       +273.864001
Potential:     -227.179237
External:        +0.000000
XC:            -187.560091
Entropy (-ST):   -1.666673
Local:           -0.584098
SIC:             +0.000000
--------------------------
Free energy:   -143.126099
Extrapolated:  -142.292762

Showing all kpts
 Kpt  Band  Eigenvalues  Occupancy
  0    42     -2.80297    1.18332
  0    43     -2.78129    1.07687
  0    44     -2.75151    0.92825
  0    45     -2.71919    0.77069

  1    42     -2.80297    1.18332
  1    43     -2.78129    1.07687
  1    44     -2.75151    0.92825
  1    45     -2.71919    0.77069


Fermi level: -2.76589

Gap: 0.030 eV
Transition (v -> c):
  (s=0, k=1, n=43, [0.25, 0.25, 0.00]) -> (s=0, k=1, n=44, [0.25, 0.25, 0.00])
No difference between direct/indirect transitions

Forces in eV/Ang:
  0 Li   -0.00054   -0.00423   -0.16997
  1 Li    0.00105   -0.00869   -0.17065
  2 Li   -0.00105   -0.00869   -0.17065
  3 Li    0.00054   -0.00423   -0.16997
  4 Li   -0.00248   -0.00705   -0.16042
  5 Li    0.00000   -0.00796   -0.15751
  6 Li    0.00248   -0.00705   -0.16042
  7 Li   -0.00000   -0.00840   -0.16216
  8 Li    0.00042    0.00755   -0.16254
  9 Li   -0.00123    0.00959   -0.15949
 10 Li    0.00123    0.00959   -0.15949
 11 Li   -0.00042    0.00755   -0.16254
 12 Li    0.00097    0.00449   -0.17107
 13 Li    0.00000    0.00758   -0.17193
 14 Li   -0.00097    0.00449   -0.17107
 15 Li    0.00000    0.00542   -0.17185
 16 Li   -0.00143   -0.00152   -0.07391
 17 Li   -0.00087   -0.00179   -0.07227
 18 Li    0.00087   -0.00179   -0.07227
 19 Li    0.00143   -0.00152   -0.07391
 20 Li    0.00004    0.00062   -0.07553
 21 Li   -0.00000    0.00343   -0.07866
 22 Li   -0.00004    0.00062   -0.07553
 23 Li    0.00000    0.00391   -0.07500
 24 Li   -0.00243   -0.00226   -0.07539
 25 Li   -0.00047   -0.00242   -0.07677
 26 Li    0.00047   -0.00242   -0.07677
 27 Li    0.00243   -0.00226   -0.07539
 28 Li    0.00001    0.00106   -0.07961
 29 Li    0.00000    0.00298   -0.07861
 30 Li   -0.00001    0.00106   -0.07961
 31 Li    0.00000    0.00203   -0.07350
 32 Li   -0.00684    0.00857   -0.00856
 33 Li    0.00478    0.00300    0.01453
 34 Li   -0.00478    0.00300    0.01453
 35 Li    0.00684    0.00857   -0.00856
 36 Li   -0.00083   -0.00936   -0.00290
 37 Li   -0.00000   -0.00607    0.01028
 38 Li    0.00083   -0.00936   -0.00290
 39 Li    0.00000   -0.01405    0.00458
 40 Li   -0.00047    0.01352    0.00161
 41 Li   -0.00042    0.00547    0.00369
 42 Li    0.00042    0.00547    0.00369
 43 Li    0.00047    0.01352    0.00161
 44 Li   -0.00440   -0.00896   -0.01339
 45 Li   -0.00000    0.00304   -0.00672
 46 Li    0.00440   -0.00896   -0.01339
 47 Li   -0.00000   -0.00673    0.01392
 48 Li    0.00856    0.00820    0.09738
 49 Li    0.00518   -0.00677    0.06622
 50 Li   -0.00518   -0.00677    0.06622
 51 Li   -0.00856    0.00820    0.09738
 52 Li   -0.04005   -0.00124    0.02226
 53 Li    0.00000   -0.00545    0.07840
 54 Li    0.04005   -0.00124    0.02226
 55 Li   -0.00000   -0.00840    0.08138
 56 Li    0.01397   -0.01179    0.03249
 57 Li   -0.04077   -0.00478   -0.04770
 58 Li    0.04077   -0.00478   -0.04770
 59 Li   -0.01397   -0.01179    0.03249
 60 Li    0.00277   -0.00148    0.02565
 61 Li   -0.00000    0.03719   -0.01217
 62 Li   -0.00277   -0.00148    0.02565
 63 Li    0.00000    0.01056    0.01321
 64 Li   -0.02261    0.02145    0.19996
 65 Li   -0.07105    0.08635    0.05425
 66 Li    0.07105    0.08635    0.05425
 67 Li    0.02261    0.02145    0.19996
 68 Li   -0.01254    0.02500    0.04455
 69 Li    0.00000   -0.13806    0.31212
 70 Li    0.01254    0.02500    0.04455
 71 Li   -0.00000    0.03449    0.06931
 72 Li    0.01738   -0.05949    0.07942
 73 Li   -0.03181    0.05181    0.04977
 74 Li    0.03181    0.05181    0.04977
 75 Li   -0.01738   -0.05949    0.07942
 76 Li   -0.00517   -0.02855    0.22125
 77 Li    0.00000   -0.02887    0.21497
 78 Li    0.00517   -0.02855    0.22125
 79 Li    0.00000   -0.02808    0.19999
 80 Li   -0.05816   -0.15155    0.11443
 81 Li    0.06358   -0.10098    0.08402
 82 Li   -0.06358   -0.10098    0.08402
 83 Li    0.05816   -0.15155    0.11443
 84 Li   -0.09458    0.31090    0.11392
 85 Li    0.00000    0.15676    0.11376
 86 Li    0.09458    0.31090    0.11392
 87 Li   -0.00000    0.14157    0.10856
 88 Li   -0.00000   -0.45447    0.32800

System changes: positions 

Initializing position-dependent things.

Density initialized from wave functions
       .---------------------------------.  
      /|                                 |  
     / |                                 |  
    /  |                                 |  
   /   |                                 |  
  /    |                                 |  
 *     |                                 |  
 |     |                                 |  
 |     |                                 |  
 |     |                                 |  
 |     |                                 |  
 |     |  Li      Li       Li      Li    |  
 |     |                                 |  
 |     |   LLi        Li    LLi      LLi |  
 |   Li|      Li      Li       Li        |  
 |     |       Li                        |  
 |     |Li       Li      Li       Li     |  
 |     |  LLi     LiLi     LLi     LiLi  |  
 |     |                                 |  
 |  Li |     LLi     Li       Li         |  
 |     Li      Li       Li      Li       |  
 |    Li      Li       Li      Li        |  
 Li    |LLi      LLi     LLi      Li     |  
 |     |                                 |  
 |Li   |  LLi     LLi      LLi     Li    |  
 |  LLi|     LLi     LLi      LLi        |  
 |     |                                 |  
 |    LLi     LLi      LLi     LLi       |  
 Li    |LLi      LLi     LiLi     Li     |  
 |     |                                 |  
 |Li   |   Li      Li       Li           |  
 |   Li|      Li      Li       Li        |  
 |     |                                 |  
 |     |                                 |  
 |     |                                 |  
 |     .---------------------------------.  
 |    /                                 /   
 |   /                                 /    
 |  /                                 /     
 | /                                 /      
 |/                                 /       
 *---------------------------------*        

Atomic positions and initial magnetic moments

Positions:
   0 Li     0.000000    2.467803    8.000000    ( 0.0000,  0.0000,  0.0000)
   1 Li     3.490000    2.467803    8.000000    ( 0.0000,  0.0000,  0.0000)
   2 Li     6.980000    2.467803    8.000000    ( 0.0000,  0.0000,  0.0000)
   3 Li    10.470000    2.467803    8.000000    ( 0.0000,  0.0000,  0.0000)
   4 Li     1.745000    4.935605    8.000000    ( 0.0000,  0.0000,  0.0000)
   5 Li     5.235000    4.935605    8.000000    ( 0.0000,  0.0000,  0.0000)
   6 Li     8.725000    4.935605    8.000000    ( 0.0000,  0.0000,  0.0000)
   7 Li    12.215000    4.935605    8.000000    ( 0.0000,  0.0000,  0.0000)
   8 Li     0.000000    7.403408    8.000000    ( 0.0000,  0.0000,  0.0000)
   9 Li     3.490000    7.403408    8.000000    ( 0.0000,  0.0000,  0.0000)
  10 Li     6.980000    7.403408    8.000000    ( 0.0000,  0.0000,  0.0000)
  11 Li    10.470000    7.403408    8.000000    ( 0.0000,  0.0000,  0.0000)
  12 Li     1.745000    9.871211    8.000000    ( 0.0000,  0.0000,  0.0000)
  13 Li     5.235000    9.871211    8.000000    ( 0.0000,  0.0000,  0.0000)
  14 Li     8.725000    9.871211    8.000000    ( 0.0000,  0.0000,  0.0000)
  15 Li    12.215000    9.871211    8.000000    ( 0.0000,  0.0000,  0.0000)
  16 Li     0.000000    0.000000   10.467803    ( 0.0000,  0.0000,  0.0000)
  17 Li     3.490000    0.000000   10.467803    ( 0.0000,  0.0000,  0.0000)
  18 Li     6.980000    0.000000   10.467803    ( 0.0000,  0.0000,  0.0000)
  19 Li    10.470000    0.000000   10.467803    ( 0.0000,  0.0000,  0.0000)
  20 Li     1.745000    2.467803   10.467803    ( 0.0000,  0.0000,  0.0000)
  21 Li     5.235000    2.467803   10.467803    ( 0.0000,  0.0000,  0.0000)
  22 Li     8.725000    2.467803   10.467803    ( 0.0000,  0.0000,  0.0000)
  23 Li    12.215000    2.467803   10.467803    ( 0.0000,  0.0000,  0.0000)
  24 Li     0.000000    4.935605   10.467803    ( 0.0000,  0.0000,  0.0000)
  25 Li     3.490000    4.935605   10.467803    ( 0.0000,  0.0000,  0.0000)
  26 Li     6.980000    4.935605   10.467803    ( 0.0000,  0.0000,  0.0000)
  27 Li    10.470000    4.935605   10.467803    ( 0.0000,  0.0000,  0.0000)
  28 Li     1.745000    7.403408   10.467803    ( 0.0000,  0.0000,  0.0000)
  29 Li     5.235000    7.403408   10.467803    ( 0.0000,  0.0000,  0.0000)
  30 Li     8.725000    7.403408   10.467803    ( 0.0000,  0.0000,  0.0000)
  31 Li    12.215000    7.403408   10.467803    ( 0.0000,  0.0000,  0.0000)
  32 Li     0.000000    2.467803   12.935605    ( 0.0000,  0.0000,  0.0000)
  33 Li     3.490000    2.467803   12.935605    ( 0.0000,  0.0000,  0.0000)
  34 Li     6.980000    2.467803   12.935605    ( 0.0000,  0.0000,  0.0000)
  35 Li    10.470000    2.467803   12.935605    ( 0.0000,  0.0000,  0.0000)
  36 Li     1.745000    4.935605   12.935605    ( 0.0000,  0.0000,  0.0000)
  37 Li     5.235000    4.935605   12.935605    ( 0.0000,  0.0000,  0.0000)
  38 Li     8.725000    4.935605   12.935605    ( 0.0000,  0.0000,  0.0000)
  39 Li    12.215000    4.935605   12.935605    ( 0.0000,  0.0000,  0.0000)
  40 Li     0.000000    7.403408   12.935605    ( 0.0000,  0.0000,  0.0000)
  41 Li     3.490000    7.403408   12.935605    ( 0.0000,  0.0000,  0.0000)
  42 Li     6.980000    7.403408   12.935605    ( 0.0000,  0.0000,  0.0000)
  43 Li    10.470000    7.403408   12.935605    ( 0.0000,  0.0000,  0.0000)
  44 Li     1.745000    9.871211   12.935605    ( 0.0000,  0.0000,  0.0000)
  45 Li     5.235000    9.871211   12.935605    ( 0.0000,  0.0000,  0.0000)
  46 Li     8.725000    9.871211   12.935605    ( 0.0000,  0.0000,  0.0000)
  47 Li    12.215000    9.871211   12.935605    ( 0.0000,  0.0000,  0.0000)
  48 Li     0.005685    0.010890   15.423623    ( 0.0000,  0.0000,  0.0000)
  49 Li     3.485463    0.002667   15.408729    ( 0.0000,  0.0000,  0.0000)
  50 Li     6.984537    0.002667   15.408729    ( 0.0000,  0.0000,  0.0000)
  51 Li    10.464315    0.010890   15.423623    ( 0.0000,  0.0000,  0.0000)
  52 Li     1.736266    2.456368   15.406073    ( 0.0000,  0.0000,  0.0000)
  53 Li     5.235000    2.466740   15.439334    ( 0.0000,  0.0000,  0.0000)
  54 Li     8.733734    2.456368   15.406073    ( 0.0000,  0.0000,  0.0000)
  55 Li    12.215000    2.459874   15.419820    ( 0.0000,  0.0000,  0.0000)
  56 Li     0.000679    4.942611   15.410338    ( 0.0000,  0.0000,  0.0000)
  57 Li     3.488862    4.941340   15.404787    ( 0.0000,  0.0000,  0.0000)
  58 Li     6.981138    4.941340   15.404787    ( 0.0000,  0.0000,  0.0000)
  59 Li    10.469321    4.942611   15.410338    ( 0.0000,  0.0000,  0.0000)
  60 Li     1.743473    7.398371   15.406603    ( 0.0000,  0.0000,  0.0000)
  61 Li     5.235000    7.401830   15.406112    ( 0.0000,  0.0000,  0.0000)
  62 Li     8.726527    7.398371   15.406603    ( 0.0000,  0.0000,  0.0000)
  63 Li    12.215000    7.394840   15.411694    ( 0.0000,  0.0000,  0.0000)
  64 Li    -0.004447    2.485755   17.995225    ( 0.0000,  0.0000,  0.0000)
  65 Li     3.386095    2.444980   17.866311    ( 0.0000,  0.0000,  0.0000)
  66 Li     7.083905    2.444980   17.866311    ( 0.0000,  0.0000,  0.0000)
  67 Li    10.474447    2.485755   17.995225    ( 0.0000,  0.0000,  0.0000)
  68 Li     1.775059    4.948003   17.909719    ( 0.0000,  0.0000,  0.0000)
  69 Li     5.235000    5.081555   17.760329    ( 0.0000,  0.0000,  0.0000)
  70 Li     8.694941    4.948003   17.909719    ( 0.0000,  0.0000,  0.0000)
  71 Li    12.215000    4.967729   17.890552    ( 0.0000,  0.0000,  0.0000)
  72 Li     0.001767    7.367844   17.895894    ( 0.0000,  0.0000,  0.0000)
  73 Li     3.487081    7.378801   17.881610    ( 0.0000,  0.0000,  0.0000)
  74 Li     6.982919    7.378801   17.881610    ( 0.0000,  0.0000,  0.0000)
  75 Li    10.468233    7.367844   17.895894    ( 0.0000,  0.0000,  0.0000)
  76 Li     1.749819    9.854581   18.005353    ( 0.0000,  0.0000,  0.0000)
  77 Li     5.235000    9.889578   18.023888    ( 0.0000,  0.0000,  0.0000)
  78 Li     8.720181    9.854581   18.005353    ( 0.0000,  0.0000,  0.0000)
  79 Li    12.215000    9.850028   17.995466    ( 0.0000,  0.0000,  0.0000)
  80 Li    -0.004560    4.789271   20.403330    ( 0.0000,  0.0000,  0.0000)
  81 Li     3.219218    5.075249   20.471112    ( 0.0000,  0.0000,  0.0000)
  82 Li     7.250782    5.075249   20.471112    ( 0.0000,  0.0000,  0.0000)
  83 Li    10.474560    4.789271   20.403330    ( 0.0000,  0.0000,  0.0000)
  84 Li     1.728608    7.571985   20.405402    ( 0.0000,  0.0000,  0.0000)
  85 Li     5.235000    7.488555   20.408597    ( 0.0000,  0.0000,  0.0000)
  86 Li     8.741392    7.571985   20.405402    ( 0.0000,  0.0000,  0.0000)
  87 Li    12.215000    7.544314   20.400888    ( 0.0000,  0.0000,  0.0000)
  88 Li     5.235000    2.743282   20.069544    ( 0.0000,  0.0000,  0.0000)

Unit cell:
           periodic     x           y           z      points  spacing
  1. axis:    yes   13.960000    0.000000    0.000000    68     0.2053
  2. axis:    yes    0.000000    9.871211    0.000000    48     0.2057
  3. axis:    no     0.000000    0.000000   28.339013   140     0.2024

  Lengths:  13.960000   9.871211  28.339013
  Angles:   90.000000  90.000000  90.000000

Effective grid spacing dv^(1/3) = 0.2045

     iter     time        total  log10-change:
                         energy   eigst   dens
iter:   1 05:42:52  -143.009582        c
iter:   2 05:42:55  -143.757891        c -1.15
iter:   3 05:42:58  -142.458234        c -0.92
iter:   4 05:43:00  -142.450107        c -1.98
iter:   5 05:43:03  -142.448613c       c -2.34
iter:   6 05:43:06  -142.447534c       c -2.51
iter:   7 05:43:09  -142.446871c       c -2.67
iter:   8 05:43:11  -142.446618c       c -2.87
iter:   9 05:43:14  -142.446897c       c -2.97
iter:  10 05:43:17  -142.446461c       c -3.03
iter:  11 05:43:19  -142.446518c       c -3.17
iter:  12 05:43:22  -142.446489c       c -3.36
iter:  13 05:43:25  -142.446446c       c -3.49
iter:  14 05:43:27  -142.446446c       c -3.62
iter:  15 05:43:30  -142.446431c       c -3.78
iter:  16 05:43:33  -142.446503c       c -3.88
iter:  17 05:43:36  -142.446442c       c -3.77
iter:  18 05:43:38  -142.446447c       c -4.06c

Converged after 18 iterations.

Dipole moment: (-9.626798, -13.557170, 0.696237) |e|*Ang

Energy contributions relative to reference atoms: (reference = -18048.116001)

Kinetic:       +270.036828
Potential:     -224.395504
External:        +0.000000
XC:            -186.672891
Entropy (-ST):   -1.667259
Local:           -0.581251
SIC:             +0.000000
--------------------------
Free energy:   -143.280077
Extrapolated:  -142.446447

Showing all kpts
 Kpt  Band  Eigenvalues  Occupancy
  0    42     -2.78488    1.16421
  0    43     -2.76618    1.07211
  0    44     -2.73007    0.89210
  0    45     -2.70280    0.76009

  1    42     -2.78488    1.16421
  1    43     -2.76618    1.07211
  1    44     -2.73007    0.89210
  1    45     -2.70280    0.76009


Fermi level: -2.75173

Gap: 0.036 eV
Transition (v -> c):
  (s=0, k=1, n=43, [0.25, 0.25, 0.00]) -> (s=0, k=0, n=44, [0.25, -0.25, 0.00])
Direct/indirect transitions are different
Direct gap: 0.036 eV
Transition at: (s=0, k=0, n=43, [0.25, -0.25, 0.00])

Forces in eV/Ang:
  0 Li   -0.00084   -0.00440   -0.16982
  1 Li    0.00118   -0.00830   -0.17013
  2 Li   -0.00118   -0.00830   -0.17013
  3 Li    0.00084   -0.00440   -0.16982
  4 Li   -0.00222   -0.00714   -0.15984
  5 Li    0.00000   -0.00802   -0.15716
  6 Li    0.00222   -0.00714   -0.15984
  7 Li   -0.00000   -0.00854   -0.16221
  8 Li    0.00009    0.00735   -0.16180
  9 Li   -0.00101    0.00903   -0.15924
 10 Li    0.00101    0.00903   -0.15924
 11 Li   -0.00009    0.00735   -0.16180
 12 Li    0.00070    0.00492   -0.17093
 13 Li    0.00000    0.00783   -0.17123
 14 Li   -0.00070    0.00492   -0.17093
 15 Li    0.00000    0.00576   -0.17122
 16 Li   -0.00189   -0.00167   -0.07457
 17 Li   -0.00072   -0.00143   -0.07324
 18 Li    0.00072   -0.00143   -0.07324
 19 Li    0.00189   -0.00167   -0.07457
 20 Li    0.00027    0.00074   -0.07576
 21 Li   -0.00000    0.00313   -0.07977
 22 Li   -0.00027    0.00074   -0.07576
 23 Li    0.00000    0.00324   -0.07608
 24 Li   -0.00234   -0.00237   -0.07662
 25 Li   -0.00018   -0.00253   -0.07681
 26 Li    0.00018   -0.00253   -0.07681
 27 Li    0.00234   -0.00237   -0.07662
 28 Li   -0.00031    0.00120   -0.08088
 29 Li   -0.00000    0.00284   -0.07940
 30 Li    0.00031    0.00120   -0.08088
 31 Li    0.00000    0.00262   -0.07313
 32 Li   -0.00886    0.00819   -0.00798
 33 Li    0.00700    0.00243    0.02191
 34 Li   -0.00700    0.00243    0.02191
 35 Li    0.00886    0.00819   -0.00798
 36 Li   -0.00321   -0.00988   -0.00384
 37 Li    0.00000   -0.00702    0.01659
 38 Li    0.00321   -0.00988   -0.00384
 39 Li   -0.00000   -0.01597    0.00956
 40 Li    0.00017    0.01490    0.00536
 41 Li   -0.00003    0.00641    0.00431
 42 Li    0.00003    0.00641    0.00431
 43 Li   -0.00017    0.01490    0.00536
 44 Li   -0.00552   -0.00962   -0.01088
 45 Li    0.00000    0.00490   -0.00579
 46 Li    0.00552   -0.00962   -0.01088
 47 Li    0.00000   -0.00595    0.02102
 48 Li    0.00639   -0.00014    0.12476
 49 Li    0.01166   -0.01242    0.09367
 50 Li   -0.01166   -0.01242    0.09367
 51 Li   -0.00639   -0.00014    0.12476
 52 Li   -0.04958    0.00913    0.03053
 53 Li   -0.00000   -0.00510    0.07777
 54 Li    0.04958    0.00913    0.03053
 55 Li   -0.00000   -0.00374    0.10392
 56 Li    0.01874   -0.02485    0.04191
 57 Li   -0.05606   -0.01404   -0.06446
 58 Li    0.05606   -0.01404   -0.06446
 59 Li   -0.01874   -0.02485    0.04191
 60 Li    0.00469    0.00413    0.03424
 61 Li    0.00000    0.05700   -0.01977
 62 Li   -0.00469    0.00413    0.03424
 63 Li    0.00000    0.02482    0.01303
 64 Li   -0.03166    0.00872    0.16681
 65 Li    0.00959    0.13748    0.09998
 66 Li   -0.00959    0.13748    0.09998
 67 Li    0.03166    0.00872    0.16681
 68 Li   -0.04542    0.02495    0.02769
 69 Li    0.00000   -0.30115    0.47349
 70 Li    0.04542    0.02495    0.02769
 71 Li    0.00000    0.01272    0.08308
 72 Li    0.02371   -0.04693    0.09415
 73 Li   -0.04258    0.09746    0.06895
 74 Li    0.04258    0.09746    0.06895
 75 Li   -0.02371   -0.04693    0.09415
 76 Li   -0.01038   -0.02098    0.18791
 77 Li    0.00000   -0.06780    0.15015
 78 Li    0.01038   -0.02098    0.18791
 79 Li    0.00000   -0.01990    0.16812
 80 Li   -0.08650   -0.07637    0.10486
 81 Li    0.25363   -0.22341    0.03107
 82 Li   -0.25363   -0.22341    0.03107
 83 Li    0.08650   -0.07637    0.10486
 84 Li   -0.10943    0.27976    0.10398
 85 Li    0.00000    0.14923    0.09807
 86 Li    0.10943    0.27976    0.10398
 87 Li    0.00000    0.07343    0.09944
 88 Li    0.00000   -0.20947    0.27009

System changes: positions 

Initializing position-dependent things.

Density initialized from wave functions
       .---------------------------------.  
      /|                                 |  
     / |                                 |  
    /  |                                 |  
   /   |                                 |  
  /    |                                 |  
 *     |                                 |  
 |     |                                 |  
 |     |                                 |  
 |     |                                 |  
 |     |                                 |  
 |     |  Li      Li       Li      Li    |  
 |     |                                 |  
 |     |   LLi        Li    LLi      LLi |  
 |   Li|      Li      Li       Li        |  
 |     |       Li                        |  
 |     |Li       Li      Li       Li     |  
 |     |  LLi     LiLi     LLi     LLi   |  
 |     |                                 |  
 |  Li |    LiLi     Li       Li         |  
 |     Li      Li       Li      Li       |  
 |    Li      Li       Li      Li        |  
 Li    |LLi      LLi     LLi      Li     |  
 |     |                                 |  
 |Li   |  LLi     LLi      LLi     Li    |  
 |  LLi|     LLi     LLi      LLi        |  
 |     |                                 |  
 |    LLi     LLi      LLi     LLi       |  
 Li    |LLi      LLi     LiLi     Li     |  
 |     |                                 |  
 |Li   |   Li      Li       Li           |  
 |   Li|      Li      Li       Li        |  
 |     |                                 |  
 |     |                                 |  
 |     |                                 |  
 |     .---------------------------------.  
 |    /                                 /   
 |   /                                 /    
 |  /                                 /     
 | /                                 /      
[...]
 88 Li   -0.00000    0.04885   -0.01957

System changes: positions 

Initializing position-dependent things.

Density initialized from wave functions
       .---------------------------------.  
      /|                                 |  
     / |                                 |  
    /  |                                 |  
   /   |                                 |  
  /    |                                 |  
 *     |                                 |  
 |     |                                 |  
 |     |                                 |  
 |     |                                 |  
 |     |  Li       Li      Li      Li    |  
 |     |                                 |  
 |  Li |     Li     LLi      Li      Li  |  
 |     |                                 |  
 |    Li      LLi     Li       Li        |  
 |     |Li       Li      Li       Li     |  
 |     |                                 |  
 |     |  LLi     LiLi     LLi     LLi   |  
 |    Li              Li                 |  
 |  Li |     Li      Li      Li          |  
 |     Li      Li       Li      Li       |  
 |    Li      Li       Li  Li  Li  Li    |  
 |     |LLi      LLi     Li       Li     |  
 |     |                                 |  
 |Li   |  LLi     LLi      LLi     Li    |  
 |  LLi|     LLi     LLi      LLi        |  
 |     |                                 |  
 |    LLi     LLi      LLi     LLi       |  
 Li    |LLi      LLi     LiLi     Li     |  
 |     |                                 |  
 |Li   |   Li      Li       Li           |  
 |   Li|      Li      Li       Li        |  
 |     |                                 |  
 |     |                                 |  
 |     |                                 |  
 |     .---------------------------------.  
 |    /                                 /   
 |   /                                 /    
 |  /                                 /     
 | /                                 /      
 |/                                 /       
 *---------------------------------*        

Atomic positions and initial magnetic moments

Positions:
   0 Li     0.000000    2.467803    8.000000    ( 0.0000,  0.0000,  0.0000)
   1 Li     3.490000    2.467803    8.000000    ( 0.0000,  0.0000,  0.0000)
   2 Li     6.980000    2.467803    8.000000    ( 0.0000,  0.0000,  0.0000)
   3 Li    10.470000    2.467803    8.000000    ( 0.0000,  0.0000,  0.0000)
   4 Li     1.745000    4.935605    8.000000    ( 0.0000,  0.0000,  0.0000)
   5 Li     5.235000    4.935605    8.000000    ( 0.0000,  0.0000,  0.0000)
   6 Li     8.725000    4.935605    8.000000    ( 0.0000,  0.0000,  0.0000)
   7 Li    12.215000    4.935605    8.000000    ( 0.0000,  0.0000,  0.0000)
   8 Li     0.000000    7.403408    8.000000    ( 0.0000,  0.0000,  0.0000)
   9 Li     3.490000    7.403408    8.000000    ( 0.0000,  0.0000,  0.0000)
  10 Li     6.980000    7.403408    8.000000    ( 0.0000,  0.0000,  0.0000)
  11 Li    10.470000    7.403408    8.000000    ( 0.0000,  0.0000,  0.0000)
  12 Li     1.745000    9.871211    8.000000    ( 0.0000,  0.0000,  0.0000)
  13 Li     5.235000    9.871211    8.000000    ( 0.0000,  0.0000,  0.0000)
  14 Li     8.725000    9.871211    8.000000    ( 0.0000,  0.0000,  0.0000)
  15 Li    12.215000    9.871211    8.000000    ( 0.0000,  0.0000,  0.0000)
  16 Li     0.000000    0.000000   10.467803    ( 0.0000,  0.0000,  0.0000)
  17 Li     3.490000    0.000000   10.467803    ( 0.0000,  0.0000,  0.0000)
  18 Li     6.980000    0.000000   10.467803    ( 0.0000,  0.0000,  0.0000)
  19 Li    10.470000    0.000000   10.467803    ( 0.0000,  0.0000,  0.0000)
  20 Li     1.745000    2.467803   10.467803    ( 0.0000,  0.0000,  0.0000)
  21 Li     5.235000    2.467803   10.467803    ( 0.0000,  0.0000,  0.0000)
  22 Li     8.725000    2.467803   10.467803    ( 0.0000,  0.0000,  0.0000)
  23 Li    12.215000    2.467803   10.467803    ( 0.0000,  0.0000,  0.0000)
  24 Li     0.000000    4.935605   10.467803    ( 0.0000,  0.0000,  0.0000)
  25 Li     3.490000    4.935605   10.467803    ( 0.0000,  0.0000,  0.0000)
  26 Li     6.980000    4.935605   10.467803    ( 0.0000,  0.0000,  0.0000)
  27 Li    10.470000    4.935605   10.467803    ( 0.0000,  0.0000,  0.0000)
  28 Li     1.745000    7.403408   10.467803    ( 0.0000,  0.0000,  0.0000)
  29 Li     5.235000    7.403408   10.467803    ( 0.0000,  0.0000,  0.0000)
  30 Li     8.725000    7.403408   10.467803    ( 0.0000,  0.0000,  0.0000)
  31 Li    12.215000    7.403408   10.467803    ( 0.0000,  0.0000,  0.0000)
  32 Li     0.000000    2.467803   12.935605    ( 0.0000,  0.0000,  0.0000)
  33 Li     3.490000    2.467803   12.935605    ( 0.0000,  0.0000,  0.0000)
  34 Li     6.980000    2.467803   12.935605    ( 0.0000,  0.0000,  0.0000)
  35 Li    10.470000    2.467803   12.935605    ( 0.0000,  0.0000,  0.0000)
  36 Li     1.745000    4.935605   12.935605    ( 0.0000,  0.0000,  0.0000)
  37 Li     5.235000    4.935605   12.935605    ( 0.0000,  0.0000,  0.0000)
  38 Li     8.725000    4.935605   12.935605    ( 0.0000,  0.0000,  0.0000)
  39 Li    12.215000    4.935605   12.935605    ( 0.0000,  0.0000,  0.0000)
  40 Li     0.000000    7.403408   12.935605    ( 0.0000,  0.0000,  0.0000)
  41 Li     3.490000    7.403408   12.935605    ( 0.0000,  0.0000,  0.0000)
  42 Li     6.980000    7.403408   12.935605    ( 0.0000,  0.0000,  0.0000)
  43 Li    10.470000    7.403408   12.935605    ( 0.0000,  0.0000,  0.0000)
  44 Li     1.745000    9.871211   12.935605    ( 0.0000,  0.0000,  0.0000)
  45 Li     5.235000    9.871211   12.935605    ( 0.0000,  0.0000,  0.0000)
  46 Li     8.725000    9.871211   12.935605    ( 0.0000,  0.0000,  0.0000)
  47 Li    12.215000    9.871211   12.935605    ( 0.0000,  0.0000,  0.0000)
  48 Li    -0.002451    0.010177   15.806604    ( 0.0000,  0.0000,  0.0000)
  49 Li     3.460085    0.005152   15.673090    ( 0.0000,  0.0000,  0.0000)
  50 Li     7.009915    0.005152   15.673090    ( 0.0000,  0.0000,  0.0000)
  51 Li    10.472451    0.010177   15.806604    ( 0.0000,  0.0000,  0.0000)
  52 Li     1.739310    2.471872   15.736572    ( 0.0000,  0.0000,  0.0000)
  53 Li     5.235000    2.451161   15.696404    ( 0.0000,  0.0000,  0.0000)
  54 Li     8.730690    2.471872   15.736572    ( 0.0000,  0.0000,  0.0000)
  55 Li    12.215000    2.463992   15.747102    ( 0.0000,  0.0000,  0.0000)
  56 Li     0.004388    4.942110   15.581824    ( 0.0000,  0.0000,  0.0000)
  57 Li     3.497029    4.930810   15.628893    ( 0.0000,  0.0000,  0.0000)
  58 Li     6.972971    4.930810   15.628893    ( 0.0000,  0.0000,  0.0000)
  59 Li    10.465612    4.942110   15.581824    ( 0.0000,  0.0000,  0.0000)
  60 Li     1.752660    7.406343   15.619909    ( 0.0000,  0.0000,  0.0000)
  61 Li     5.235000    7.427845   15.624436    ( 0.0000,  0.0000,  0.0000)
  62 Li     8.717340    7.406343   15.619909    ( 0.0000,  0.0000,  0.0000)
  63 Li    12.215000    7.406530   15.627059    ( 0.0000,  0.0000,  0.0000)
  64 Li    -0.014827    2.502046   18.528341    ( 0.0000,  0.0000,  0.0000)
  65 Li     3.472797    2.573739   18.482520    ( 0.0000,  0.0000,  0.0000)
  66 Li     6.997203    2.573739   18.482520    ( 0.0000,  0.0000,  0.0000)
  67 Li    10.484827    2.502046   18.528341    ( 0.0000,  0.0000,  0.0000)
  68 Li     1.699014    4.991962   18.249118    ( 0.0000,  0.0000,  0.0000)
  69 Li     5.235000    4.920014   18.357248    ( 0.0000,  0.0000,  0.0000)
  70 Li     8.770986    4.991962   18.249118    ( 0.0000,  0.0000,  0.0000)
  71 Li    12.215000    5.010909   18.249271    ( 0.0000,  0.0000,  0.0000)
  72 Li     0.019911    7.440336   18.315997    ( 0.0000,  0.0000,  0.0000)
  73 Li     3.484429    7.356211   18.324264    ( 0.0000,  0.0000,  0.0000)
  74 Li     6.985571    7.356211   18.324264    ( 0.0000,  0.0000,  0.0000)
  75 Li    10.450089    7.440336   18.315997    ( 0.0000,  0.0000,  0.0000)
  76 Li     1.865730    9.901493   18.566737    ( 0.0000,  0.0000,  0.0000)
  77 Li     5.235000    9.868839   18.304649    ( 0.0000,  0.0000,  0.0000)
  78 Li     8.604270    9.901493   18.566737    ( 0.0000,  0.0000,  0.0000)
  79 Li    12.215000    9.856577   18.638516    ( 0.0000,  0.0000,  0.0000)
  80 Li     0.037803    4.859496   20.881268    ( 0.0000,  0.0000,  0.0000)
  81 Li     3.523964    4.882573   20.920970    ( 0.0000,  0.0000,  0.0000)
  82 Li     6.946036    4.882573   20.920970    ( 0.0000,  0.0000,  0.0000)
  83 Li    10.432197    4.859496   20.881268    ( 0.0000,  0.0000,  0.0000)
  84 Li     1.750028    7.756371   20.948961    ( 0.0000,  0.0000,  0.0000)
  85 Li     5.235000    7.917078   20.867222    ( 0.0000,  0.0000,  0.0000)
  86 Li     8.719972    7.756371   20.948961    ( 0.0000,  0.0000,  0.0000)
  87 Li    12.215000    7.588900   20.967539    ( 0.0000,  0.0000,  0.0000)
  88 Li     5.235000    1.660895   20.962422    ( 0.0000,  0.0000,  0.0000)

Unit cell:
           periodic     x           y           z      points  spacing
  1. axis:    yes   13.960000    0.000000    0.000000    68     0.2053
  2. axis:    yes    0.000000    9.871211    0.000000    48     0.2057
  3. axis:    no     0.000000    0.000000   28.339013   140     0.2024

  Lengths:  13.960000   9.871211  28.339013
  Angles:   90.000000  90.000000  90.000000

Effective grid spacing dv^(1/3) = 0.2045

     iter     time        total  log10-change:
                         energy   eigst   dens
iter:   1 06:05:13  -143.878554        c
iter:   2 06:05:16  -143.883831        c -1.98
iter:   3 06:05:19  -143.861840c       c -1.74
iter:   4 06:05:21  -143.861812c       c -3.05
iter:   5 06:05:24  -143.861810c       c -3.16
iter:   6 06:05:26  -143.861829c       c -3.32
iter:   7 06:05:29  -143.861822c       c -3.55
iter:   8 06:05:32  -143.861867c       c -3.74
iter:   9 06:05:34  -143.861789c       c -3.89
iter:  10 06:05:37  -143.861838c       c -3.90
iter:  11 06:05:40  -143.861836c       c -4.14c

Converged after 11 iterations.

Dipole moment: (-10.569077, -14.988167, 0.930174) |e|*Ang

Energy contributions relative to reference atoms: (reference = -18048.116001)

Kinetic:       +231.202434
Potential:     -196.282802
External:        +0.000000
XC:            -177.413380
Entropy (-ST):   -1.631216
Local:           -0.552479
SIC:             +0.000000
--------------------------
Free energy:   -144.677444
Extrapolated:  -143.861836

Showing all kpts
 Kpt  Band  Eigenvalues  Occupancy
  0    42     -2.68246    1.00850
  0    43     -2.66304    0.91163
  0    44     -2.64711    0.83330
  0    45     -2.61949    0.70289

  1    42     -2.68246    1.00850
  1    43     -2.66304    0.91163
  1    44     -2.64711    0.83330
  1    45     -2.61949    0.70289


Fermi level: -2.68076

Gap: 0.019 eV
Transition (v -> c):
  (s=0, k=0, n=42, [0.25, -0.25, 0.00]) -> (s=0, k=1, n=43, [0.25, 0.25, 0.00])
Direct/indirect transitions are different
Direct gap: 0.019 eV
Transition at: (s=0, k=0, n=42, [0.25, -0.25, 0.00])

Forces in eV/Ang:
  0 Li   -0.00267   -0.00299   -0.17206
  1 Li   -0.00008   -0.00421   -0.16963
  2 Li    0.00008   -0.00421   -0.16963
  3 Li    0.00267   -0.00299   -0.17206
  4 Li   -0.00172   -0.00392   -0.16712
  5 Li    0.00000   -0.00365   -0.16508
  6 Li    0.00172   -0.00392   -0.16712
  7 Li   -0.00000   -0.00724   -0.16663
  8 Li    0.00084    0.00405   -0.16555
  9 Li   -0.00136    0.00337   -0.16447
 10 Li    0.00136    0.00337   -0.16447
 11 Li   -0.00084    0.00405   -0.16555
 12 Li   -0.00128    0.00316   -0.17086
 13 Li   -0.00000    0.00527   -0.16946
 14 Li    0.00128    0.00316   -0.17086
 15 Li   -0.00000    0.00670   -0.17400
 16 Li   -0.00061   -0.00095   -0.09451
 17 Li   -0.00261    0.00021   -0.09071
 18 Li    0.00261    0.00021   -0.09071
 19 Li    0.00061   -0.00095   -0.09451
 20 Li   -0.00140   -0.00075   -0.09307
 21 Li   -0.00000    0.00020   -0.09370
 22 Li    0.00140   -0.00075   -0.09307
 23 Li   -0.00000    0.00193   -0.08586
 24 Li    0.00199   -0.00427   -0.08309
 25 Li   -0.00139   -0.00248   -0.09381
 26 Li    0.00139   -0.00248   -0.09381
 27 Li   -0.00199   -0.00427   -0.08309
 28 Li   -0.00028    0.00206   -0.08876
 29 Li    0.00000    0.00346   -0.09186
 30 Li    0.00028    0.00206   -0.08876
 31 Li    0.00000    0.00696   -0.08297
 32 Li    0.00078   -0.01056    0.29057
 33 Li   -0.00628   -0.00302    0.26921
 34 Li    0.00628   -0.00302    0.26921
 35 Li   -0.00078   -0.01056    0.29057
 36 Li    0.01664   -0.01173    0.20850
 37 Li    0.00000   -0.00279    0.21839
 38 Li   -0.01664   -0.01173    0.20850
 39 Li    0.00000   -0.01595    0.19242
 40 Li    0.00262    0.02292    0.22203
 41 Li    0.00156    0.00021    0.21312
 42 Li   -0.00156    0.00021    0.21312
 43 Li   -0.00262    0.02292    0.22203
 44 Li   -0.02924    0.00642    0.27969
 45 Li    0.00000    0.00883    0.26018
 46 Li    0.02924    0.00642    0.27969
 47 Li   -0.00000    0.00431    0.32467
 48 Li    0.00535    0.01005    0.00621
 49 Li   -0.00364    0.01426    0.00880
 50 Li    0.00364    0.01426    0.00880
 51 Li   -0.00535    0.01005    0.00621
 52 Li    0.00258   -0.01208    0.00371
 53 Li   -0.00000   -0.00315    0.01750
 54 Li   -0.00258   -0.01208    0.00371
 55 Li    0.00000   -0.00003    0.00434
 56 Li   -0.00899    0.00799    0.01994
 57 Li    0.01853    0.00869   -0.01089
 58 Li   -0.01853    0.00869   -0.01089
 59 Li    0.00899    0.00799    0.01994
 60 Li   -0.01154    0.00487    0.00342
 61 Li    0.00000   -0.02788    0.01105
 62 Li    0.01154    0.00487    0.00342
 63 Li   -0.00000   -0.00436    0.00494
 64 Li    0.00378   -0.01303   -0.00885
 65 Li    0.00244   -0.02182   -0.00468
 66 Li   -0.00244   -0.02182   -0.00468
 67 Li   -0.00378   -0.01303   -0.00885
 68 Li    0.00910    0.02601    0.01314
 69 Li    0.00000    0.02200    0.00136
 70 Li   -0.00910    0.02601    0.01314
 71 Li    0.00000    0.00543    0.01582
 72 Li   -0.01113   -0.01594    0.01298
 73 Li    0.01121   -0.02278   -0.00551
 74 Li   -0.01121   -0.02278   -0.00551
 75 Li    0.01113   -0.01594    0.01298
 76 Li   -0.00611    0.03305    0.00165
 77 Li   -0.00000    0.02107   -0.00512
 78 Li    0.00611    0.03305    0.00165
 79 Li   -0.00000    0.01537   -0.02859
 80 Li   -0.01385   -0.01622    0.01753
 81 Li    0.01310   -0.01223    0.00125
 82 Li   -0.01310   -0.01223    0.00125
 83 Li    0.01385   -0.01622    0.01753
 84 Li   -0.00530   -0.01636    0.02428
 85 Li   -0.00000   -0.02929    0.00683
 86 Li    0.00530   -0.01636    0.02428
 87 Li    0.00000    0.01492    0.00197
 88 Li   -0.00000    0.04105   -0.02116

Timing:                                       incl.     excl.
--------------------------------------------------------------------
Basic WFS set positions:                      0.051     0.026   0.0% |
 Redistribute:                                0.025     0.025   0.0% |
Basis functions set positions:                1.592     1.592   0.1% |
Forces:                                     237.775    13.943   0.9% |
 LCAO forces:                               223.831     0.078   0.0% |
  Atomic Hamiltonian force:                   8.919     8.919   0.5% |
  Initial:                                    0.079     0.000   0.0% |
   Get density matrix:                        0.079     0.079   0.0% |
  Paw correction:                             8.578     8.578   0.5% |
  Potential:                                187.153   187.153  11.5% |----|
  TCI derivative:                            19.024    19.024   1.2% |
  Wait for sum:                               0.000     0.000   0.0% |
LCAO WFS Initialize:                         66.714     0.110   0.0% |
 Density initialized from wave functions:    30.555     1.221   0.1% |
  Calculate density matrix:                   0.038     0.038   0.0% |
  Construct density:                         29.296    29.296   1.8% ||
  Symmetrize density:                         0.000     0.000   0.0% |
 Hamiltonian:                                36.048     0.001   0.0% |
  Atomic:                                    17.164     0.058   0.0% |
   XC Correction:                            17.106    17.106   1.1% |
  Calculate atomic Hamiltonians:              0.922     0.922   0.1% |
  Communicate:                                0.000     0.000   0.0% |
  Hartree integrate/restrict:                 0.275     0.275   0.0% |
  Initialize Hamiltonian:                     0.000     0.000   0.0% |
  Poisson:                                    6.986     0.221   0.0% |
   Communicate from 1D:                       0.712     0.712   0.0% |
   Communicate from 2D:                       0.673     0.673   0.0% |
   Communicate to 1D:                         0.509     0.509   0.0% |
   Communicate to 2D:                         0.695     0.695   0.0% |
   FFT 1D:                                    2.063     2.063   0.1% |
   FFT 2D:                                    2.114     2.114   0.1% |
  XC 3D grid:                                10.639    10.639   0.7% |
  vbar:                                       0.060     0.060   0.0% |
P tci:                                        8.563     8.563   0.5% |
Redistribute:                                 0.004     0.004   0.0% |
SCF-cycle:                                 1296.451     0.172   0.0% |
 Density:                                   440.132     0.003   0.0% |
  Atomic density matrices:                    0.914     0.914   0.1% |
  Mix:                                       20.400    20.400   1.3% ||
  Multipole moments:                          0.186     0.186   0.0% |
  Normalize:                                  0.074     0.074   0.0% |
  Pseudo density:                           418.555     0.160   0.0% |
   Calculate density matrix:                  0.521     0.521   0.0% |
   Construct density:                       417.871   417.871  25.7% |---------|
   Symmetrize density:                        0.004     0.004   0.0% |
 Hamiltonian:                               489.527     0.017   0.0% |
  Atomic:                                   233.138     0.803   0.0% |
   XC Correction:                           232.336   232.336  14.3% |-----|
  Calculate atomic Hamiltonians:             12.403    12.403   0.8% |
  Communicate:                                0.001     0.001   0.0% |
  Hartree integrate/restrict:                 3.711     3.711   0.2% |
  Poisson:                                   96.330     2.896   0.2% |
   Communicate from 1D:                       9.442     9.442   0.6% |
   Communicate from 2D:                       9.291     9.291   0.6% |
   Communicate to 1D:                         7.013     7.013   0.4% |
   Communicate to 2D:                         9.603     9.603   0.6% |
   FFT 1D:                                   28.681    28.681   1.8% ||
   FFT 2D:                                   29.404    29.404   1.8% ||
  XC 3D grid:                               143.001   143.001   8.8% |---|
  vbar:                                       0.926     0.926   0.1% |
 LCAO eigensolver:                          366.620     0.096   0.0% |
  Calculate projections:                      1.742     1.742   0.1% |
  DenseAtomicCorrection:                     25.299    25.299   1.6% ||
  Distribute overlap matrix:                  0.169     0.169   0.0% |
  Orbital Layouts:                           39.718    39.718   2.4% ||
  Potential matrix:                         298.121   298.121  18.3% |------|
  Sum over cells:                             1.475     1.475   0.1% |
ST tci:                                       3.909     3.909   0.2% |
Set symmetry:                                 0.000     0.000   0.0% |
TCI: Evaluate splines:                        0.003     0.003   0.0% |
mktci:                                        0.705     0.705   0.0% |
Other:                                       11.570    11.570   0.7% |
--------------------------------------------------------------------
Total:                                               1627.338 100.0%

Memory usage: 1.57 GiB
Date: Sat Nov 29 06:05:47 2025
