
  ___ ___ ___ _ _ _  
 |   |   |_  | | | | 
 | | | | | . | | | | 
 |__ |  _|___|_____|  25.7.0
 |___|_|             

User:   tew@Mathuss-MacBook-Air-357.local
Date:   Sat Nov 29 05:35:38 2025
Arch:   arm64
Pid:    24788
CWD:    /Users/tew/Documents/Project/GitHub/chem-com/step_v2
Python: 3.13.5
gpaw:   /Users/tew/Documents/Project/GitHub/chem-com/.venv/lib/python3.13/site-packages/gpaw
_gpaw:  /Users/tew/Documents/Project/GitHub/chem-com/.venv/lib/python3.13/site-packages/
        _gpaw.cpython-313-darwin.so
ase:    /Users/tew/Documents/Project/GitHub/chem-com/.venv/lib/python3.13/site-packages/ase (version 3.26.0)
numpy:  /Users/tew/Documents/Project/GitHub/chem-com/.venv/lib/python3.13/site-packages/numpy (version 2.2.6)
scipy:  /Users/tew/Documents/Project/GitHub/chem-com/.venv/lib/python3.13/site-packages/scipy (version 1.16.3)
libxc:  2.x.y
units:  Angstrom and eV
cores: 1
OpenMP: False
OMP_NUM_THREADS: 1

Input parameters:
  kpts: [2 2 1]
  mode: {interpolation: 3,
         name: lcao}
  occupations: {name: fermi-dirac,
                width: 0.1}
  xc: PBE

System changes: positions, numbers, cell, pbc, initial_charges, initial_magmoms 

Initialize ...

species:
  Li:
    name: Lithium
    id: 830b4218f175192f93f959cfc0aad614
    Z: 3.0
    valence: 1
    core: 2
    charge: 0.0
    file: /Users/tew/Documents/Project/GitHub/chem-com/.venv/lib/python3.13/site-packages/gpaw_data/setups/Li.PBE.gz
    compensation charges: {type: gauss,
                           rc: 0.33,
                           lmax: 2}
    cutoffs: {filter: 1.91,
              core: 2.55}
    projectors:
      #              energy  rcut
      - 2s(1.00)    -2.874   1.058
      - 2p(0.00)    -1.090   1.058
      -  s          24.337   1.058
  
    # Using partial waves for Li as LCAO basis

Reference energy: -18048.116001  # eV

Spin-paired calculation

Convergence criteria:
 Maximum [total energy] change in last 3 cyles: 0.0005 eV / valence electron
 Maximum integral of absolute [dens]ity change: 0.0001 electrons / valence electron
 Maximum integral of absolute [eigenst]ate change: 4e-08 eV^2 / valence electron
 Maximum number of scf [iter]ations: 333
 (Square brackets indicate name in SCF output, whereas a 'c' in
 the SCF output indicates the quantity has converged.)

Symmetries present (total): 1

  ( 1  0  0)
  ( 0  1  0)
  ( 0  0  1)

4 k-points: 2 x 2 x 1 Monkhorst-Pack grid
2 k-points in the irreducible part of the Brillouin zone
       k-points in crystal coordinates                weights
   0:     0.25000000   -0.25000000    0.00000000          2/4
   1:     0.25000000    0.25000000    0.00000000          2/4

Wave functions: LCAO
  Diagonalizer: Serial LAPACK
  Atomic Correction: dense with blas
  Data-type: complex
 

Occupation numbers: Fermi-Dirac:
  width: 0.1000  # eV
 

Eigensolver
   LCAO using direct dense diagonalizer 

Densities:
  Coarse grid: 68*48*140 grid
  Fine grid: 136*96*280 grid
  Total Charge: 0.000000 

Density mixing:
  Method: separate
  Backend: pulay
  Linear mixing parameter: 0.05
  old densities: 5
  Damping of long wavelength oscillations: 50 

Hamiltonian:
  XC and Coulomb potentials evaluated on a 136*96*280 grid
  Using the PBE Exchange-Correlation functional
  Interpolation: tri-quintic (5. degree polynomial)
  Poisson solver: FastPoissonSolver using
    Stencil: 6*3+1=19 point O(h^6) finite-difference Laplacian
    FFT axes: [np.int64(0), np.int64(1)]
    FST axes: [np.int64(2)]
 

XC parameters: PBE with 2 nearest neighbor stencil

Memory estimate:
  Process memory now: 645.42 MiB
  Calculator: 544.81 MiB
    Density: 357.68 MiB
      Arrays: 90.30 MiB
      Localized functions: 232.77 MiB
      Mixer: 34.61 MiB
    Hamiltonian: 77.45 MiB
      Arrays: 59.04 MiB
      XC: 0.00 MiB
      Poisson: 0.00 MiB
      vbar: 18.41 MiB
    Wavefunctions: 109.67 MiB
      C [qnM]: 0.63 MiB
      S, T [2 x qmm]: 7.74 MiB
      P [aqMi]: 0.30 MiB
      BasisFunctions: 101.00 MiB
      Eigensolver: 0.00 MiB

Total number of cores used: 1

Number of atoms: 89
Number of atomic orbitals: 356
Number of bands in calculation: 58
Number of valence electrons: 89
Bands to converge: occupied

... initialized

Initializing position-dependent things.

Density initialized from atomic densities
       .---------------------------------.  
      /|                                 |  
     / |                                 |  
    /  |                                 |  
   /   |                                 |  
  /    |                                 |  
 *     |                                 |  
 |     |                                 |  
 |     |                                 |  
 |     |                                 |  
 |     |                                 |  
 |     |  Li      LLi      Li      Li    |  
 |     |                                 |  
 |  Li |     Li      Li       Li         |  
 |    Li      Li       Li      Li        |  
 |     |                                 |  
 |     |Li       Li      Li       Li     |  
 |Li   |  LLi     LLi      LLi     Li    |  
 |     |                                 |  
 |  LLi|     LLi     LLi      LLi        |  
 |     Li      Li       Li      Li       |  
 |    Li      Li       Li      Li        |  
 Li    |LLi      LLi     LiLi     Li     |  
 |     |                                 |  
 |Li   |  LLi     LLi      LLi     Li    |  
 |  LLi|     LLi     LLi      LLi        |  
 |     |                                 |  
 |    LLi     LLi      LLi     LLi       |  
 Li    |LLi      LLi     LiLi     Li     |  
 |     |                                 |  
 |Li   |   Li      Li       Li           |  
 |   Li|      Li      Li       Li        |  
 |     |                                 |  
 |     |                                 |  
 |     |                                 |  
 |     .---------------------------------.  
 |    /                                 /   
 |   /                                 /    
 |  /                                 /     
 | /                                 /      
 |/                                 /       
 *---------------------------------*        

Atomic positions and initial magnetic moments

Positions:
   0 Li     0.000000    2.467803    8.000000    ( 0.0000,  0.0000,  0.0000)
   1 Li     3.490000    2.467803    8.000000    ( 0.0000,  0.0000,  0.0000)
   2 Li     6.980000    2.467803    8.000000    ( 0.0000,  0.0000,  0.0000)
   3 Li    10.470000    2.467803    8.000000    ( 0.0000,  0.0000,  0.0000)
   4 Li     1.745000    4.935605    8.000000    ( 0.0000,  0.0000,  0.0000)
   5 Li     5.235000    4.935605    8.000000    ( 0.0000,  0.0000,  0.0000)
   6 Li     8.725000    4.935605    8.000000    ( 0.0000,  0.0000,  0.0000)
   7 Li    12.215000    4.935605    8.000000    ( 0.0000,  0.0000,  0.0000)
   8 Li     0.000000    7.403408    8.000000    ( 0.0000,  0.0000,  0.0000)
   9 Li     3.490000    7.403408    8.000000    ( 0.0000,  0.0000,  0.0000)
  10 Li     6.980000    7.403408    8.000000    ( 0.0000,  0.0000,  0.0000)
  11 Li    10.470000    7.403408    8.000000    ( 0.0000,  0.0000,  0.0000)
  12 Li     1.745000    9.871211    8.000000    ( 0.0000,  0.0000,  0.0000)
  13 Li     5.235000    9.871211    8.000000    ( 0.0000,  0.0000,  0.0000)
  14 Li     8.725000    9.871211    8.000000    ( 0.0000,  0.0000,  0.0000)
  15 Li    12.215000    9.871211    8.000000    ( 0.0000,  0.0000,  0.0000)
  16 Li     0.000000    0.000000   10.467803    ( 0.0000,  0.0000,  0.0000)
  17 Li     3.490000    0.000000   10.467803    ( 0.0000,  0.0000,  0.0000)
  18 Li     6.980000    0.000000   10.467803    ( 0.0000,  0.0000,  0.0000)
  19 Li    10.470000    0.000000   10.467803    ( 0.0000,  0.0000,  0.0000)
  20 Li     1.745000    2.467803   10.467803    ( 0.0000,  0.0000,  0.0000)
  21 Li     5.235000    2.467803   10.467803    ( 0.0000,  0.0000,  0.0000)
  22 Li     8.725000    2.467803   10.467803    ( 0.0000,  0.0000,  0.0000)
  23 Li    12.215000    2.467803   10.467803    ( 0.0000,  0.0000,  0.0000)
  24 Li     0.000000    4.935605   10.467803    ( 0.0000,  0.0000,  0.0000)
  25 Li     3.490000    4.935605   10.467803    ( 0.0000,  0.0000,  0.0000)
  26 Li     6.980000    4.935605   10.467803    ( 0.0000,  0.0000,  0.0000)
  27 Li    10.470000    4.935605   10.467803    ( 0.0000,  0.0000,  0.0000)
  28 Li     1.745000    7.403408   10.467803    ( 0.0000,  0.0000,  0.0000)
  29 Li     5.235000    7.403408   10.467803    ( 0.0000,  0.0000,  0.0000)
  30 Li     8.725000    7.403408   10.467803    ( 0.0000,  0.0000,  0.0000)
  31 Li    12.215000    7.403408   10.467803    ( 0.0000,  0.0000,  0.0000)
  32 Li     0.000000    2.467803   12.935605    ( 0.0000,  0.0000,  0.0000)
  33 Li     3.490000    2.467803   12.935605    ( 0.0000,  0.0000,  0.0000)
  34 Li     6.980000    2.467803   12.935605    ( 0.0000,  0.0000,  0.0000)
  35 Li    10.470000    2.467803   12.935605    ( 0.0000,  0.0000,  0.0000)
  36 Li     1.745000    4.935605   12.935605    ( 0.0000,  0.0000,  0.0000)
  37 Li     5.235000    4.935605   12.935605    ( 0.0000,  0.0000,  0.0000)
  38 Li     8.725000    4.935605   12.935605    ( 0.0000,  0.0000,  0.0000)
  39 Li    12.215000    4.935605   12.935605    ( 0.0000,  0.0000,  0.0000)
  40 Li     0.000000    7.403408   12.935605    ( 0.0000,  0.0000,  0.0000)
  41 Li     3.490000    7.403408   12.935605    ( 0.0000,  0.0000,  0.0000)
  42 Li     6.980000    7.403408   12.935605    ( 0.0000,  0.0000,  0.0000)
  43 Li    10.470000    7.403408   12.935605    ( 0.0000,  0.0000,  0.0000)
  44 Li     1.745000    9.871211   12.935605    ( 0.0000,  0.0000,  0.0000)
  45 Li     5.235000    9.871211   12.935605    ( 0.0000,  0.0000,  0.0000)
  46 Li     8.725000    9.871211   12.935605    ( 0.0000,  0.0000,  0.0000)
  47 Li    12.215000    9.871211   12.935605    ( 0.0000,  0.0000,  0.0000)
  48 Li     0.000000    0.000000   15.403408    ( 0.0000,  0.0000,  0.0000)
  49 Li     3.490000    0.000000   15.403408    ( 0.0000,  0.0000,  0.0000)
  50 Li     6.980000    0.000000   15.403408    ( 0.0000,  0.0000,  0.0000)
  51 Li    10.470000    0.000000   15.403408    ( 0.0000,  0.0000,  0.0000)
  52 Li     1.745000    2.467803   15.403408    ( 0.0000,  0.0000,  0.0000)
  53 Li     5.235000    2.467803   15.403408    ( 0.0000,  0.0000,  0.0000)
  54 Li     8.725000    2.467803   15.403408    ( 0.0000,  0.0000,  0.0000)
  55 Li    12.215000    2.467803   15.403408    ( 0.0000,  0.0000,  0.0000)
  56 Li     0.000000    4.935605   15.403408    ( 0.0000,  0.0000,  0.0000)
  57 Li     3.490000    4.935605   15.403408    ( 0.0000,  0.0000,  0.0000)
  58 Li     6.980000    4.935605   15.403408    ( 0.0000,  0.0000,  0.0000)
  59 Li    10.470000    4.935605   15.403408    ( 0.0000,  0.0000,  0.0000)
  60 Li     1.745000    7.403408   15.403408    ( 0.0000,  0.0000,  0.0000)
  61 Li     5.235000    7.403408   15.403408    ( 0.0000,  0.0000,  0.0000)
  62 Li     8.725000    7.403408   15.403408    ( 0.0000,  0.0000,  0.0000)
  63 Li    12.215000    7.403408   15.403408    ( 0.0000,  0.0000,  0.0000)
  64 Li     0.000000    2.467803   17.871211    ( 0.0000,  0.0000,  0.0000)
  65 Li     3.490000    2.467803   17.871211    ( 0.0000,  0.0000,  0.0000)
  66 Li     6.980000    2.467803   17.871211    ( 0.0000,  0.0000,  0.0000)
  67 Li    10.470000    2.467803   17.871211    ( 0.0000,  0.0000,  0.0000)
  68 Li     1.745000    4.935605   17.871211    ( 0.0000,  0.0000,  0.0000)
  69 Li     5.235000    4.935605   17.871211    ( 0.0000,  0.0000,  0.0000)
  70 Li     8.725000    4.935605   17.871211    ( 0.0000,  0.0000,  0.0000)
  71 Li    12.215000    4.935605   17.871211    ( 0.0000,  0.0000,  0.0000)
  72 Li     0.000000    7.403408   17.871211    ( 0.0000,  0.0000,  0.0000)
  73 Li     3.490000    7.403408   17.871211    ( 0.0000,  0.0000,  0.0000)
  74 Li     6.980000    7.403408   17.871211    ( 0.0000,  0.0000,  0.0000)
  75 Li    10.470000    7.403408   17.871211    ( 0.0000,  0.0000,  0.0000)
  76 Li     1.745000    9.871211   17.871211    ( 0.0000,  0.0000,  0.0000)
  77 Li     5.235000    9.871211   17.871211    ( 0.0000,  0.0000,  0.0000)
  78 Li     8.725000    9.871211   17.871211    ( 0.0000,  0.0000,  0.0000)
  79 Li    12.215000    9.871211   17.871211    ( 0.0000,  0.0000,  0.0000)
  80 Li     0.000000    4.935605   20.339013    ( 0.0000,  0.0000,  0.0000)
  81 Li     3.490000    4.935605   20.339013    ( 0.0000,  0.0000,  0.0000)
  82 Li     6.980000    4.935605   20.339013    ( 0.0000,  0.0000,  0.0000)
  83 Li    10.470000    4.935605   20.339013    ( 0.0000,  0.0000,  0.0000)
  84 Li     1.745000    7.403408   20.339013    ( 0.0000,  0.0000,  0.0000)
  85 Li     5.235000    7.403408   20.339013    ( 0.0000,  0.0000,  0.0000)
  86 Li     8.725000    7.403408   20.339013    ( 0.0000,  0.0000,  0.0000)
  87 Li    12.215000    7.403408   20.339013    ( 0.0000,  0.0000,  0.0000)
  88 Li     6.107500    4.442045   22.339010    ( 0.0000,  0.0000,  0.0000)

Unit cell:
           periodic     x           y           z      points  spacing
  1. axis:    yes   13.960000    0.000000    0.000000    68     0.2053
  2. axis:    yes    0.000000    9.871211    0.000000    48     0.2057
  3. axis:    no     0.000000    0.000000   28.339013   140     0.2024

  Lengths:  13.960000   9.871211  28.339013
  Angles:   90.000000  90.000000  90.000000

Effective grid spacing dv^(1/3) = 0.2045

     iter     time        total  log10-change:
                         energy   eigst   dens
iter:   1 05:35:42  -150.558147        c
iter:   2 05:35:45  -145.094956        c -0.64
iter:   3 05:35:48  -144.386531        c -0.87
iter:   4 05:35:51  -143.957561        c -0.94
iter:   5 05:35:55  -142.339920        c -0.98
iter:   6 05:35:58  -142.079394        c -1.26
iter:   7 05:36:02  -141.603550        c -1.35
iter:   8 05:36:05  -141.522360        c -1.60
iter:   9 05:36:08  -141.451534        c -1.69
iter:  10 05:36:11  -141.445135        c -1.82
iter:  11 05:36:15  -141.409508c       c -1.81
iter:  12 05:36:18  -141.389805        c -1.99
iter:  13 05:36:22  -141.384163c       c -2.14
iter:  14 05:36:25  -141.377788c       c -2.22
iter:  15 05:36:29  -141.375724c       c -2.44
iter:  16 05:36:32  -141.374644c       c -2.56
iter:  17 05:36:34  -141.374927c       c -2.55
iter:  18 05:36:37  -141.374096c       c -2.73
iter:  19 05:36:41  -141.373948c       c -2.91
iter:  20 05:36:43  -141.373830c       c -3.01
iter:  21 05:36:46  -141.373786c       c -3.10
iter:  22 05:36:49  -141.373846c       c -3.21
iter:  23 05:36:52  -141.373671c       c -3.33
iter:  24 05:36:55  -141.373752c       c -3.46
iter:  25 05:36:59  -141.373725c       c -3.68
iter:  26 05:37:02  -141.373714c       c -3.85
iter:  27 05:37:06  -141.373703c       c -3.95
iter:  28 05:37:09  -141.373692c       c -4.09c

Converged after 28 iterations.

Dipole moment: (-9.809723, -14.160844, 0.932917) |e|*Ang

Energy contributions relative to reference atoms: (reference = -18048.116001)

Kinetic:       +277.110833
Potential:     -229.178752
External:        +0.000000
XC:            -187.896023
Entropy (-ST):   -1.677887
Local:           -0.570806
SIC:             +0.000000
--------------------------
Free energy:   -142.212635
Extrapolated:  -141.373692

Showing all kpts
 Kpt  Band  Eigenvalues  Occupancy
  0    42     -2.73226    1.19942
  0    43     -2.71868    1.13344
  0    44     -2.67786    0.93026
  0    45     -2.64127    0.75242

  1    42     -2.73026    1.18981
  1    43     -2.72331    1.15608
  1    44     -2.67422    0.91217
  1    45     -2.64207    0.75617


Fermi level: -2.69184

Gap: 0.041 eV
Transition (v -> c):
  (s=0, k=0, n=43, [0.25, -0.25, 0.00]) -> (s=0, k=0, n=44, [0.25, -0.25, 0.00])
No difference between direct/indirect transitions

Forces in eV/Ang:
  0 Li    0.00110   -0.00139   -0.17043
  1 Li    0.00132   -0.00735   -0.17319
  2 Li   -0.00025   -0.00962   -0.17346
  3 Li   -0.00225   -0.00455   -0.17184
  4 Li   -0.00054   -0.00723   -0.16227
  5 Li   -0.00081   -0.00626   -0.16500
  6 Li    0.00145   -0.00659   -0.16382
  7 Li    0.00018   -0.00819   -0.16179
  8 Li    0.00233    0.00496   -0.16210
  9 Li    0.00087    0.01041   -0.16502
 10 Li    0.00009    0.01127   -0.16632
 11 Li   -0.00355    0.00853   -0.16227
 12 Li    0.00507    0.00323   -0.17070
 13 Li    0.00028    0.00468   -0.17559
 14 Li   -0.00224    0.00379   -0.17297
 15 Li   -0.00303    0.00426   -0.17119
 16 Li    0.00053   -0.00214   -0.07335
 17 Li   -0.00047   -0.00233   -0.07160
 18 Li    0.00018   -0.00372   -0.06593
 19 Li   -0.00021   -0.00148   -0.07662
 20 Li    0.00026    0.00116   -0.07290
 21 Li    0.00055    0.00517   -0.07704
 22 Li   -0.00109    0.00270   -0.07516
 23 Li    0.00019    0.00254   -0.07149
 24 Li   -0.00052   -0.00224   -0.07637
 25 Li    0.00161   -0.00094   -0.06891
 26 Li   -0.00008   -0.00195   -0.07032
 27 Li   -0.00071   -0.00088   -0.07032
 28 Li    0.00137    0.00109   -0.07172
 29 Li    0.00084    0.00087   -0.07120
 30 Li   -0.00222    0.00039   -0.06885
 31 Li   -0.00022    0.00166   -0.07703
 32 Li    0.00078    0.00882   -0.00235
 33 Li    0.00082    0.00132   -0.00082
 34 Li   -0.00063    0.00021    0.00218
 35 Li   -0.00096    0.00445   -0.00300
 36 Li   -0.00247   -0.00948   -0.00576
 37 Li    0.00113   -0.00927    0.00284
 38 Li   -0.00032   -0.00866    0.00175
 39 Li    0.00218   -0.00971   -0.00592
 40 Li   -0.00161    0.00993   -0.00574
 41 Li   -0.00579    0.00928    0.00095
 42 Li    0.00196    0.00606    0.01208
 43 Li    0.00512    0.01146   -0.00752
 44 Li    0.00095   -0.00636   -0.00752
 45 Li   -0.00046    0.00315   -0.01688
 46 Li    0.00133   -0.00110   -0.01627
 47 Li   -0.00202   -0.01002   -0.00082
 48 Li    0.00325    0.01955    0.02612
 49 Li    0.00158    0.02015    0.02868
 50 Li    0.00153    0.02583    0.01876
 51 Li   -0.00694    0.01734    0.03223
 52 Li    0.00341   -0.02137    0.02896
 53 Li   -0.00070   -0.02977    0.02033
 54 Li   -0.00014   -0.02474    0.02201
 55 Li   -0.00251   -0.02175    0.02875
 56 Li    0.00035    0.02374    0.00799
 57 Li   -0.01143    0.01059    0.00758
 58 Li    0.00521    0.00427    0.02496
 59 Li    0.00678    0.01883    0.00352
 60 Li   -0.00240   -0.01477    0.00200
 61 Li   -0.00578   -0.00167    0.00104
 62 Li    0.00972   -0.00444   -0.00900
 63 Li   -0.00240   -0.02427    0.01323
 64 Li   -0.00052    0.04502    0.27287
 65 Li   -0.00635    0.03518    0.28489
 66 Li    0.00141    0.04305    0.31841
 67 Li    0.00418    0.04220    0.27491
 68 Li   -0.00782    0.08234    0.02509
 69 Li   -0.00350    0.04183    0.05759
 70 Li    0.01628    0.07238    0.00641
 71 Li   -0.00016    0.07227    0.03951
 72 Li    0.00724   -0.07690    0.05056
 73 Li   -0.01235   -0.04686    0.00245
 74 Li    0.01248   -0.02268   -0.04807
 75 Li   -0.00690   -0.07326    0.04367
 76 Li    0.00350   -0.04638    0.27415
 77 Li    0.00008   -0.06366    0.29473
 78 Li   -0.00219   -0.04915    0.28250
 79 Li   -0.00218   -0.04447    0.27574
 80 Li   -0.00169   -0.32859    0.13017
 81 Li    0.06831   -0.31121    0.18097
 82 Li    0.46121    0.06585   -1.13150
 83 Li   -0.08570   -0.34795    0.20575
 84 Li   -0.00396    0.32908    0.13977
 85 Li    0.04390    0.14675    0.29456
 86 Li   -0.07104    0.23096    0.24646
 87 Li    0.00737    0.33154    0.13113
 88 Li   -0.42316   -0.12879    0.98779

System changes: positions 

Initializing position-dependent things.

Density initialized from wave functions
Timing:                                       incl.     excl.
--------------------------------------------------------------------
Basic WFS set positions:                      0.004     0.002   0.0% |
 Redistribute:                                0.002     0.002   0.0% |
Basis functions set positions:                0.202     0.202   0.1% |
Forces:                                       7.555     0.718   0.3% |
 LCAO forces:                                 6.837     0.003   0.0% |
  Atomic Hamiltonian force:                   0.281     0.281   0.1% |
  Initial:                                    0.003     0.000   0.0% |
   Get density matrix:                        0.003     0.003   0.0% |
  Paw correction:                             0.262     0.262   0.1% |
  Potential:                                  5.661     5.661   2.0% ||
  TCI derivative:                             0.626     0.626   0.2% |
  Wait for sum:                               0.000     0.000   0.0% |
LCAO WFS Initialize:                        183.274     0.105   0.0% |
 Density initialized from wave functions:     1.049     0.093   0.0% |
  Calculate density matrix:                   0.002     0.002   0.0% |
  Construct density:                          0.954     0.954   0.3% |
  Symmetrize density:                         0.000     0.000   0.0% |
 Hamiltonian:                               182.120     0.000   0.0% |
  Atomic:                                     0.590     0.002   0.0% |
   XC Correction:                             0.588     0.588   0.2% |
  Calculate atomic Hamiltonians:              0.028     0.028   0.0% |
  Communicate:                                0.000     0.000   0.0% |
  Hartree integrate/restrict:                 0.013     0.013   0.0% |
  Initialize Hamiltonian:                     0.000     0.000   0.0% |
  Poisson:                                  180.647   180.395  64.1% |-------------------------|
   Communicate from 1D:                       0.029     0.029   0.0% |
   Communicate from 2D:                       0.023     0.023   0.0% |
   Communicate to 1D:                         0.033     0.033   0.0% |
   Communicate to 2D:                         0.023     0.023   0.0% |
   FFT 1D:                                    0.074     0.074   0.0% |
   FFT 2D:                                    0.071     0.071   0.0% |
  XC 3D grid:                                 0.829     0.829   0.3% |
  vbar:                                       0.012     0.012   0.0% |
P tci:                                        0.601     0.601   0.2% |
Redistribute:                                 0.000     0.000   0.0% |
SCF-cycle:                                   87.338     0.024   0.0% |
 Density:                                    29.485     0.000   0.0% |
  Atomic density matrices:                    0.066     0.066   0.0% |
  Mix:                                        1.884     1.884   0.7% |
  Multipole moments:                          0.011     0.011   0.0% |
  Normalize:                                  0.005     0.005   0.0% |
  Pseudo density:                            27.519     0.027   0.0% |
   Calculate density matrix:                  0.042     0.042   0.0% |
   Construct density:                        27.428    27.428   9.8% |---|
   Symmetrize density:                        0.023     0.023   0.0% |
 Hamiltonian:                                34.750     0.002   0.0% |
  Atomic:                                    16.526     0.072   0.0% |
   XC Correction:                            16.454    16.454   5.8% |-|
  Calculate atomic Hamiltonians:              1.078     1.078   0.4% |
  Communicate:                                0.000     0.000   0.0% |
  Hartree integrate/restrict:                 0.394     0.394   0.1% |
  Poisson:                                    6.889     0.299   0.1% |
   Communicate from 1D:                       0.658     0.658   0.2% |
   Communicate from 2D:                       0.648     0.648   0.2% |
   Communicate to 1D:                         0.445     0.445   0.2% |
   Communicate to 2D:                         0.787     0.787   0.3% |
   FFT 1D:                                    1.890     1.890   0.7% |
   FFT 2D:                                    2.161     2.161   0.8% |
  XC 3D grid:                                 9.688     9.688   3.4% ||
  vbar:                                       0.174     0.174   0.1% |
 LCAO eigensolver:                           23.079     0.016   0.0% |
  Calculate projections:                      0.121     0.121   0.0% |
  DenseAtomicCorrection:                      1.651     1.651   0.6% |
  Distribute overlap matrix:                  0.012     0.012   0.0% |
  Orbital Layouts:                            2.610     2.610   0.9% |
  Potential matrix:                          18.539    18.539   6.6% |--|
  Sum over cells:                             0.130     0.130   0.0% |
ST tci:                                       0.268     0.268   0.1% |
Set symmetry:                                 0.000     0.000   0.0% |
TCI: Evaluate splines:                        0.003     0.003   0.0% |
mktci:                                        0.075     0.075   0.0% |
Other:                                        1.990     1.990   0.7% |
--------------------------------------------------------------------
Total:                                                281.312 100.0%

Memory usage: 1.31 GiB
Date: Sat Nov 29 05:40:19 2025
