
  ___ ___ ___ _ _ _  
 |   |   |_  | | | | 
 | | | | | . | | | | 
 |__ |  _|___|_____|  25.7.0
 |___|_|             

User:   tew@Mathuss-MacBook-Air-357.local
Date:   Mon Dec  1 19:07:17 2025
Arch:   arm64
Pid:    60975
CWD:    /Users/tew/Documents/Project/GitHub/chem-com/step_v4
Python: 3.13.5
gpaw:   /Users/tew/Documents/Project/GitHub/chem-com/.venv/lib/python3.13/site-packages/gpaw
_gpaw:  /Users/tew/Documents/Project/GitHub/chem-com/.venv/lib/python3.13/site-packages/
        _gpaw.cpython-313-darwin.so
ase:    /Users/tew/Documents/Project/GitHub/chem-com/.venv/lib/python3.13/site-packages/ase (version 3.26.0)
numpy:  /Users/tew/Documents/Project/GitHub/chem-com/.venv/lib/python3.13/site-packages/numpy (version 2.2.6)
scipy:  /Users/tew/Documents/Project/GitHub/chem-com/.venv/lib/python3.13/site-packages/scipy (version 1.16.3)
libxc:  2.x.y
units:  Angstrom and eV
cores: 1
OpenMP: False
OMP_NUM_THREADS: 1

Input parameters:
  kpts: [2 2 1]
  mode: {interpolation: 3,
         name: lcao}
  occupations: {name: fermi-dirac,
                width: 0.1}
  xc: PBE

System changes: positions, numbers, cell, pbc, initial_charges, initial_magmoms 

Initialize ...

species:
  Li:
    name: Lithium
    id: 830b4218f175192f93f959cfc0aad614
    Z: 3.0
    valence: 1
    core: 2
    charge: 0.0
    file: /Users/tew/Documents/Project/GitHub/chem-com/.venv/lib/python3.13/site-packages/gpaw_data/setups/Li.PBE.gz
    compensation charges: {type: gauss,
                           rc: 0.33,
                           lmax: 2}
    cutoffs: {filter: 1.91,
              core: 2.55}
    projectors:
      #              energy  rcut
      - 2s(1.00)    -2.874   1.058
      - 2p(0.00)    -1.090   1.058
      -  s          24.337   1.058
  
    # Using partial waves for Li as LCAO basis

Reference energy: -18048.116001  # eV

Spin-paired calculation

Convergence criteria:
 Maximum [total energy] change in last 3 cyles: 0.0005 eV / valence electron
 Maximum integral of absolute [dens]ity change: 0.0001 electrons / valence electron
 Maximum integral of absolute [eigenst]ate change: 4e-08 eV^2 / valence electron
 Maximum number of scf [iter]ations: 333
 (Square brackets indicate name in SCF output, whereas a 'c' in
 the SCF output indicates the quantity has converged.)

Symmetries present (total): 1

  ( 1  0  0)
  ( 0  1  0)
  ( 0  0  1)

4 k-points: 2 x 2 x 1 Monkhorst-Pack grid
2 k-points in the irreducible part of the Brillouin zone
       k-points in crystal coordinates                weights
   0:     0.25000000   -0.25000000    0.00000000          2/4
   1:     0.25000000    0.25000000    0.00000000          2/4

Wave functions: LCAO
  Diagonalizer: Serial LAPACK
  Atomic Correction: dense with blas
  Data-type: complex
 

Occupation numbers: Fermi-Dirac:
  width: 0.1000  # eV
 

Eigensolver
   LCAO using direct dense diagonalizer 

Densities:
  Coarse grid: 68*48*140 grid
  Fine grid: 136*96*280 grid
  Total Charge: 0.000000 

Density mixing:
  Method: separate
  Backend: pulay
  Linear mixing parameter: 0.05
  old densities: 5
  Damping of long wavelength oscillations: 50 

Hamiltonian:
  XC and Coulomb potentials evaluated on a 136*96*280 grid
  Using the PBE Exchange-Correlation functional
  Interpolation: tri-quintic (5. degree polynomial)
  Poisson solver: FastPoissonSolver using
    Stencil: 6*3+1=19 point O(h^6) finite-difference Laplacian
    FFT axes: [np.int64(0), np.int64(1)]
    FST axes: [np.int64(2)]
 

XC parameters: PBE with 2 nearest neighbor stencil

Memory estimate:
  Process memory now: 648.31 MiB
  Calculator: 544.81 MiB
    Density: 357.68 MiB
      Arrays: 90.30 MiB
      Localized functions: 232.77 MiB
      Mixer: 34.61 MiB
    Hamiltonian: 77.45 MiB
      Arrays: 59.04 MiB
      XC: 0.00 MiB
      Poisson: 0.00 MiB
      vbar: 18.41 MiB
    Wavefunctions: 109.67 MiB
      C [qnM]: 0.63 MiB
      S, T [2 x qmm]: 7.74 MiB
      P [aqMi]: 0.30 MiB
      BasisFunctions: 101.00 MiB
      Eigensolver: 0.00 MiB

Total number of cores used: 1

Number of atoms: 89
Number of atomic orbitals: 356
Number of bands in calculation: 58
Number of valence electrons: 89
Bands to converge: occupied

... initialized

Initializing position-dependent things.

Density initialized from atomic densities
       .---------------------------------.  
      /|                                 |  
     / |                                 |  
    /  |                                 |  
   /   |                                 |  
  /    |                                 |  
 *     |                                 |  
 |     |                                 |  
 |     |                                 |  
 |     |                                 |  
 |     |                                 |  
 |     |  Li      LLi      Li      Li    |  
 |     |                                 |  
 |  Li |     Li      Li       Li         |  
 |    Li      Li       Li      Li        |  
 |     |                                 |  
 |     |Li       Li      Li       Li     |  
 |Li   |  LLi     LLi      LLi     Li    |  
 |     |                                 |  
 |  LLi|     LLi     LLi      LLi        |  
 |     Li      Li       Li      Li       |  
 |    Li      Li       Li      Li        |  
 Li    |LLi      LLi     LiLi     Li     |  
 |     |                                 |  
 |Li   |  LLi     LLi      LLi     Li    |  
 |  LLi|     LLi     LLi      LLi        |  
 |     |                                 |  
 |    LLi     LLi      LLi     LLi       |  
 Li    |LLi      LLi     LiLi     Li     |  
 |     |                                 |  
 |Li   |   Li      Li       Li           |  
 |   Li|      Li      Li       Li        |  
 |     |                                 |  
 |     |                                 |  
 |     |                                 |  
 |     .---------------------------------.  
 |    /                                 /   
 |   /                                 /    
 |  /                                 /     
 | /                                 /      
 |/                                 /       
 *---------------------------------*        

Atomic positions and initial magnetic moments

Positions:
   0 Li     0.000000    2.467803    8.000000    ( 0.0000,  0.0000,  0.0000)
   1 Li     3.490000    2.467803    8.000000    ( 0.0000,  0.0000,  0.0000)
   2 Li     6.980000    2.467803    8.000000    ( 0.0000,  0.0000,  0.0000)
   3 Li    10.470000    2.467803    8.000000    ( 0.0000,  0.0000,  0.0000)
   4 Li     1.745000    4.935605    8.000000    ( 0.0000,  0.0000,  0.0000)
   5 Li     5.235000    4.935605    8.000000    ( 0.0000,  0.0000,  0.0000)
   6 Li     8.725000    4.935605    8.000000    ( 0.0000,  0.0000,  0.0000)
   7 Li    12.215000    4.935605    8.000000    ( 0.0000,  0.0000,  0.0000)
   8 Li     0.000000    7.403408    8.000000    ( 0.0000,  0.0000,  0.0000)
   9 Li     3.490000    7.403408    8.000000    ( 0.0000,  0.0000,  0.0000)
  10 Li     6.980000    7.403408    8.000000    ( 0.0000,  0.0000,  0.0000)
  11 Li    10.470000    7.403408    8.000000    ( 0.0000,  0.0000,  0.0000)
  12 Li     1.745000    9.871211    8.000000    ( 0.0000,  0.0000,  0.0000)
  13 Li     5.235000    9.871211    8.000000    ( 0.0000,  0.0000,  0.0000)
  14 Li     8.725000    9.871211    8.000000    ( 0.0000,  0.0000,  0.0000)
  15 Li    12.215000    9.871211    8.000000    ( 0.0000,  0.0000,  0.0000)
  16 Li     0.000000    0.000000   10.467803    ( 0.0000,  0.0000,  0.0000)
  17 Li     3.490000    0.000000   10.467803    ( 0.0000,  0.0000,  0.0000)
  18 Li     6.980000    0.000000   10.467803    ( 0.0000,  0.0000,  0.0000)
  19 Li    10.470000    0.000000   10.467803    ( 0.0000,  0.0000,  0.0000)
  20 Li     1.745000    2.467803   10.467803    ( 0.0000,  0.0000,  0.0000)
  21 Li     5.235000    2.467803   10.467803    ( 0.0000,  0.0000,  0.0000)
  22 Li     8.725000    2.467803   10.467803    ( 0.0000,  0.0000,  0.0000)
  23 Li    12.215000    2.467803   10.467803    ( 0.0000,  0.0000,  0.0000)
  24 Li     0.000000    4.935605   10.467803    ( 0.0000,  0.0000,  0.0000)
  25 Li     3.490000    4.935605   10.467803    ( 0.0000,  0.0000,  0.0000)
  26 Li     6.980000    4.935605   10.467803    ( 0.0000,  0.0000,  0.0000)
  27 Li    10.470000    4.935605   10.467803    ( 0.0000,  0.0000,  0.0000)
  28 Li     1.745000    7.403408   10.467803    ( 0.0000,  0.0000,  0.0000)
  29 Li     5.235000    7.403408   10.467803    ( 0.0000,  0.0000,  0.0000)
  30 Li     8.725000    7.403408   10.467803    ( 0.0000,  0.0000,  0.0000)
  31 Li    12.215000    7.403408   10.467803    ( 0.0000,  0.0000,  0.0000)
  32 Li     0.000000    2.467803   12.935605    ( 0.0000,  0.0000,  0.0000)
  33 Li     3.490000    2.467803   12.935605    ( 0.0000,  0.0000,  0.0000)
  34 Li     6.980000    2.467803   12.935605    ( 0.0000,  0.0000,  0.0000)
  35 Li    10.470000    2.467803   12.935605    ( 0.0000,  0.0000,  0.0000)
  36 Li     1.745000    4.935605   12.935605    ( 0.0000,  0.0000,  0.0000)
  37 Li     5.235000    4.935605   12.935605    ( 0.0000,  0.0000,  0.0000)
  38 Li     8.725000    4.935605   12.935605    ( 0.0000,  0.0000,  0.0000)
  39 Li    12.215000    4.935605   12.935605    ( 0.0000,  0.0000,  0.0000)
  40 Li     0.000000    7.403408   12.935605    ( 0.0000,  0.0000,  0.0000)
  41 Li     3.490000    7.403408   12.935605    ( 0.0000,  0.0000,  0.0000)
  42 Li     6.980000    7.403408   12.935605    ( 0.0000,  0.0000,  0.0000)
  43 Li    10.470000    7.403408   12.935605    ( 0.0000,  0.0000,  0.0000)
  44 Li     1.745000    9.871211   12.935605    ( 0.0000,  0.0000,  0.0000)
  45 Li     5.235000    9.871211   12.935605    ( 0.0000,  0.0000,  0.0000)
  46 Li     8.725000    9.871211   12.935605    ( 0.0000,  0.0000,  0.0000)
  47 Li    12.215000    9.871211   12.935605    ( 0.0000,  0.0000,  0.0000)
  48 Li     0.000000    0.000000   15.403408    ( 0.0000,  0.0000,  0.0000)
  49 Li     3.490000    0.000000   15.403408    ( 0.0000,  0.0000,  0.0000)
  50 Li     6.980000    0.000000   15.403408    ( 0.0000,  0.0000,  0.0000)
  51 Li    10.470000    0.000000   15.403408    ( 0.0000,  0.0000,  0.0000)
  52 Li     1.745000    2.467803   15.403408    ( 0.0000,  0.0000,  0.0000)
  53 Li     5.235000    2.467803   15.403408    ( 0.0000,  0.0000,  0.0000)
  54 Li     8.725000    2.467803   15.403408    ( 0.0000,  0.0000,  0.0000)
  55 Li    12.215000    2.467803   15.403408    ( 0.0000,  0.0000,  0.0000)
  56 Li     0.000000    4.935605   15.403408    ( 0.0000,  0.0000,  0.0000)
  57 Li     3.490000    4.935605   15.403408    ( 0.0000,  0.0000,  0.0000)
  58 Li     6.980000    4.935605   15.403408    ( 0.0000,  0.0000,  0.0000)
  59 Li    10.470000    4.935605   15.403408    ( 0.0000,  0.0000,  0.0000)
  60 Li     1.745000    7.403408   15.403408    ( 0.0000,  0.0000,  0.0000)
  61 Li     5.235000    7.403408   15.403408    ( 0.0000,  0.0000,  0.0000)
  62 Li     8.725000    7.403408   15.403408    ( 0.0000,  0.0000,  0.0000)
  63 Li    12.215000    7.403408   15.403408    ( 0.0000,  0.0000,  0.0000)
  64 Li     0.000000    2.467803   17.871211    ( 0.0000,  0.0000,  0.0000)
  65 Li     3.490000    2.467803   17.871211    ( 0.0000,  0.0000,  0.0000)
  66 Li     6.980000    2.467803   17.871211    ( 0.0000,  0.0000,  0.0000)
  67 Li    10.470000    2.467803   17.871211    ( 0.0000,  0.0000,  0.0000)
  68 Li     1.745000    4.935605   17.871211    ( 0.0000,  0.0000,  0.0000)
  69 Li     5.235000    4.935605   17.871211    ( 0.0000,  0.0000,  0.0000)
  70 Li     8.725000    4.935605   17.871211    ( 0.0000,  0.0000,  0.0000)
  71 Li    12.215000    4.935605   17.871211    ( 0.0000,  0.0000,  0.0000)
  72 Li     0.000000    7.403408   17.871211    ( 0.0000,  0.0000,  0.0000)
  73 Li     3.490000    7.403408   17.871211    ( 0.0000,  0.0000,  0.0000)
  74 Li     6.980000    7.403408   17.871211    ( 0.0000,  0.0000,  0.0000)
  75 Li    10.470000    7.403408   17.871211    ( 0.0000,  0.0000,  0.0000)
  76 Li     1.745000    9.871211   17.871211    ( 0.0000,  0.0000,  0.0000)
  77 Li     5.235000    9.871211   17.871211    ( 0.0000,  0.0000,  0.0000)
  78 Li     8.725000    9.871211   17.871211    ( 0.0000,  0.0000,  0.0000)
  79 Li    12.215000    9.871211   17.871211    ( 0.0000,  0.0000,  0.0000)
  80 Li     0.000000    4.935605   20.339013    ( 0.0000,  0.0000,  0.0000)
  81 Li     3.490000    4.935605   20.339013    ( 0.0000,  0.0000,  0.0000)
  82 Li     6.980000    4.935605   20.339013    ( 0.0000,  0.0000,  0.0000)
  83 Li    10.470000    4.935605   20.339013    ( 0.0000,  0.0000,  0.0000)
  84 Li     1.745000    7.403408   20.339013    ( 0.0000,  0.0000,  0.0000)
  85 Li     5.235000    7.403408   20.339013    ( 0.0000,  0.0000,  0.0000)
  86 Li     8.725000    7.403408   20.339013    ( 0.0000,  0.0000,  0.0000)
  87 Li    12.215000    7.403408   20.339013    ( 0.0000,  0.0000,  0.0000)
  88 Li     6.107500    4.442045   22.339010    ( 0.0000,  0.0000,  0.0000)

Unit cell:
           periodic     x           y           z      points  spacing
  1. axis:    yes   13.960000    0.000000    0.000000    68     0.2053
  2. axis:    yes    0.000000    9.871211    0.000000    48     0.2057
  3. axis:    no     0.000000    0.000000   28.339013   140     0.2024

  Lengths:  13.960000   9.871211  28.339013
  Angles:   90.000000  90.000000  90.000000

Effective grid spacing dv^(1/3) = 0.2045

     iter     time        total  log10-change:
                         energy   eigst   dens
iter:   1 19:07:21  -150.558147        c
iter:   2 19:07:23  -145.094956        c -0.64
iter:   3 19:07:27  -144.386531        c -0.87
iter:   4 19:07:30  -143.957561        c -0.94
iter:   5 19:07:33  -142.339920        c -0.98
iter:   6 19:07:36  -142.079394        c -1.26
iter:   7 19:07:39  -141.603550        c -1.35
iter:   8 19:07:41  -141.522360        c -1.60
iter:   9 19:07:44  -141.451534        c -1.69
iter:  10 19:07:47  -141.445135        c -1.82
iter:  11 19:07:50  -141.409508c       c -1.81
iter:  12 19:07:53  -141.389805        c -1.99
iter:  13 19:07:56  -141.384163c       c -2.14
iter:  14 19:07:58  -141.377788c       c -2.22
iter:  15 19:08:01  -141.375724c       c -2.44
iter:  16 19:08:04  -141.374644c       c -2.56
iter:  17 19:08:07  -141.374927c       c -2.55
iter:  18 19:08:10  -141.374096c       c -2.73
iter:  19 19:08:13  -141.373948c       c -2.91
iter:  20 19:08:16  -141.373830c       c -3.01
iter:  21 19:08:19  -141.373786c       c -3.10
iter:  22 19:08:22  -141.373846c       c -3.21
iter:  23 19:08:25  -141.373671c       c -3.33
iter:  24 19:08:28  -141.373752c       c -3.46
iter:  25 19:08:30  -141.373725c       c -3.68
iter:  26 19:08:33  -141.373714c       c -3.85
iter:  27 19:08:36  -141.373703c       c -3.95
iter:  28 19:08:39  -141.373692c       c -4.09c

Converged after 28 iterations.

Dipole moment: (-9.809723, -14.160844, 0.932917) |e|*Ang

Energy contributions relative to reference atoms: (reference = -18048.116001)

Kinetic:       +277.110833
Potential:     -229.178752
External:        +0.000000
XC:            -187.896023
Entropy (-ST):   -1.677887
Local:           -0.570806
SIC:             +0.000000
--------------------------
Free energy:   -142.212635
Extrapolated:  -141.373692

Showing all kpts
 Kpt  Band  Eigenvalues  Occupancy
  0    42     -2.73226    1.19942
  0    43     -2.71868    1.13344
  0    44     -2.67786    0.93026
  0    45     -2.64127    0.75242

  1    42     -2.73026    1.18981
  1    43     -2.72331    1.15608
  1    44     -2.67422    0.91217
  1    45     -2.64207    0.75617


Fermi level: -2.69184

Gap: 0.041 eV
Transition (v -> c):
  (s=0, k=0, n=43, [0.25, -0.25, 0.00]) -> (s=0, k=0, n=44, [0.25, -0.25, 0.00])
No difference between direct/indirect transitions

Forces in eV/Ang:
  0 Li    0.00110   -0.00139   -0.17043
  1 Li    0.00132   -0.00735   -0.17319
  2 Li   -0.00025   -0.00962   -0.17346
  3 Li   -0.00225   -0.00455   -0.17184
  4 Li   -0.00054   -0.00723   -0.16227
  5 Li   -0.00081   -0.00626   -0.16500
  6 Li    0.00145   -0.00659   -0.16382
  7 Li    0.00018   -0.00819   -0.16179
  8 Li    0.00233    0.00496   -0.16210
  9 Li    0.00087    0.01041   -0.16502
 10 Li    0.00009    0.01127   -0.16632
 11 Li   -0.00355    0.00853   -0.16227
 12 Li    0.00507    0.00323   -0.17070
 13 Li    0.00028    0.00468   -0.17559
 14 Li   -0.00224    0.00379   -0.17297
 15 Li   -0.00303    0.00426   -0.17119
 16 Li    0.00053   -0.00214   -0.07335
 17 Li   -0.00047   -0.00233   -0.07160
 18 Li    0.00018   -0.00372   -0.06593
 19 Li   -0.00021   -0.00148   -0.07662
 20 Li    0.00026    0.00116   -0.07290
 21 Li    0.00055    0.00517   -0.07704
 22 Li   -0.00109    0.00270   -0.07516
 23 Li    0.00019    0.00254   -0.07149
 24 Li   -0.00052   -0.00224   -0.07637
 25 Li    0.00161   -0.00094   -0.06891
 26 Li   -0.00008   -0.00195   -0.07032
 27 Li   -0.00071   -0.00088   -0.07032
 28 Li    0.00137    0.00109   -0.07172
 29 Li    0.00084    0.00087   -0.07120
 30 Li   -0.00222    0.00039   -0.06885
 31 Li   -0.00022    0.00166   -0.07703
 32 Li    0.00078    0.00882   -0.00235
 33 Li    0.00082    0.00132   -0.00082
 34 Li   -0.00063    0.00021    0.00218
 35 Li   -0.00096    0.00445   -0.00300
 36 Li   -0.00247   -0.00948   -0.00576
 37 Li    0.00113   -0.00927    0.00284
 38 Li   -0.00032   -0.00866    0.00175
 39 Li    0.00218   -0.00971   -0.00592
 40 Li   -0.00161    0.00993   -0.00574
 41 Li   -0.00579    0.00928    0.00095
 42 Li    0.00196    0.00606    0.01208
 43 Li    0.00512    0.01146   -0.00752
 44 Li    0.00095   -0.00636   -0.00752
 45 Li   -0.00046    0.00315   -0.01688
 46 Li    0.00133   -0.00110   -0.01627
 47 Li   -0.00202   -0.01002   -0.00082
 48 Li    0.00325    0.01955    0.02612
 49 Li    0.00158    0.02015    0.02868
 50 Li    0.00153    0.02583    0.01876
 51 Li   -0.00694    0.01734    0.03223
 52 Li    0.00341   -0.02137    0.02896
 53 Li   -0.00070   -0.02977    0.02033
 54 Li   -0.00014   -0.02474    0.02201
 55 Li   -0.00251   -0.02175    0.02875
 56 Li    0.00035    0.02374    0.00799
 57 Li   -0.01143    0.01059    0.00758
 58 Li    0.00521    0.00427    0.02496
 59 Li    0.00678    0.01883    0.00352
 60 Li   -0.00240   -0.01477    0.00200
 61 Li   -0.00578   -0.00167    0.00104
 62 Li    0.00972   -0.00444   -0.00900
 63 Li   -0.00240   -0.02427    0.01323
 64 Li   -0.00052    0.04502    0.27287
 65 Li   -0.00635    0.03518    0.28489
 66 Li    0.00141    0.04305    0.31841
 67 Li    0.00418    0.04220    0.27491
 68 Li   -0.00782    0.08234    0.02509
 69 Li   -0.00350    0.04183    0.05759
 70 Li    0.01628    0.07238    0.00641
 71 Li   -0.00016    0.07227    0.03951
 72 Li    0.00724   -0.07690    0.05056
 73 Li   -0.01235   -0.04686    0.00245
 74 Li    0.01248   -0.02268   -0.04807
 75 Li   -0.00690   -0.07326    0.04367
 76 Li    0.00350   -0.04638    0.27415
 77 Li    0.00008   -0.06366    0.29473
 78 Li   -0.00219   -0.04915    0.28250
 79 Li   -0.00218   -0.04447    0.27574
 80 Li   -0.00169   -0.32859    0.13017
 81 Li    0.06831   -0.31121    0.18097
 82 Li    0.46121    0.06585   -1.13150
 83 Li   -0.08570   -0.34795    0.20575
 84 Li   -0.00396    0.32908    0.13977
 85 Li    0.04390    0.14675    0.29456
 86 Li   -0.07104    0.23096    0.24646
 87 Li    0.00737    0.33154    0.13113
 88 Li   -0.42316   -0.12879    0.98779

System changes: positions 

Initializing position-dependent things.

Density initialized from wave functions
       .---------------------------------.  
      /|                                 |  
     / |                                 |  
    /  |                                 |  
   /   |                                 |  
  /    |                                 |  
 *     |                                 |  
 |     |                                 |  
 |     |                                 |  
 |     |                                 |  
 |     |                                 |  
 |     |  Li      LLi      Li      Li    |  
 |     |                                 |  
 |     |   LLi      LLi     LLi      LLi |  
 |   Li|      Li       Li      Li        |  
 |     |                                 |  
 |     |Li       Li      Li       Li     |  
 |     |  LLi     LiLi     LLi     LiLi  |  
 |     |                                 |  
 |  Li |    Li       Li       Li         |  
 |     Li      Li       Li      Li       |  
 |    Li      Li       Li      Li        |  
 Li    |LiLi     LLi     LLi      Li     |  
 |     |                                 |  
 |Li   |  LLi     LLi      LLi     Li    |  
 |  LLi|     LLi     LLi      LLi        |  
 |     |                                 |  
 |    LLi     LLi      LLi     LLi       |  
 Li    |LLi      LLi     LiLi     Li     |  
 |     |                                 |  
 |Li   |   Li      Li       Li           |  
 |   Li|      Li      Li       Li        |  
 |     |                                 |  
 |     |                                 |  
 |     |                                 |  
 |     .---------------------------------.  
 |    /                                 /   
 |   /                                 /    
 |  /                                 /     
 | /                                 /      
 |/                                 /       
 *---------------------------------*        

Atomic positions and initial magnetic moments

Positions:
   0 Li     0.000000    2.467803    8.000000    ( 0.0000,  0.0000,  0.0000)
   1 Li     3.490000    2.467803    8.000000    ( 0.0000,  0.0000,  0.0000)
   2 Li     6.980000    2.467803    8.000000    ( 0.0000,  0.0000,  0.0000)
   3 Li    10.470000    2.467803    8.000000    ( 0.0000,  0.0000,  0.0000)
   4 Li     1.745000    4.935605    8.000000    ( 0.0000,  0.0000,  0.0000)
   5 Li     5.235000    4.935605    8.000000    ( 0.0000,  0.0000,  0.0000)
   6 Li     8.725000    4.935605    8.000000    ( 0.0000,  0.0000,  0.0000)
   7 Li    12.215000    4.935605    8.000000    ( 0.0000,  0.0000,  0.0000)
   8 Li     0.000000    7.403408    8.000000    ( 0.0000,  0.0000,  0.0000)
   9 Li     3.490000    7.403408    8.000000    ( 0.0000,  0.0000,  0.0000)
  10 Li     6.980000    7.403408    8.000000    ( 0.0000,  0.0000,  0.0000)
  11 Li    10.470000    7.403408    8.000000    ( 0.0000,  0.0000,  0.0000)
  12 Li     1.745000    9.871211    8.000000    ( 0.0000,  0.0000,  0.0000)
  13 Li     5.235000    9.871211    8.000000    ( 0.0000,  0.0000,  0.0000)
  14 Li     8.725000    9.871211    8.000000    ( 0.0000,  0.0000,  0.0000)
  15 Li    12.215000    9.871211    8.000000    ( 0.0000,  0.0000,  0.0000)
  16 Li     0.000000    0.000000   10.467803    ( 0.0000,  0.0000,  0.0000)
  17 Li     3.490000    0.000000   10.467803    ( 0.0000,  0.0000,  0.0000)
  18 Li     6.980000    0.000000   10.467803    ( 0.0000,  0.0000,  0.0000)
  19 Li    10.470000    0.000000   10.467803    ( 0.0000,  0.0000,  0.0000)
  20 Li     1.745000    2.467803   10.467803    ( 0.0000,  0.0000,  0.0000)
  21 Li     5.235000    2.467803   10.467803    ( 0.0000,  0.0000,  0.0000)
  22 Li     8.725000    2.467803   10.467803    ( 0.0000,  0.0000,  0.0000)
  23 Li    12.215000    2.467803   10.467803    ( 0.0000,  0.0000,  0.0000)
  24 Li     0.000000    4.935605   10.467803    ( 0.0000,  0.0000,  0.0000)
  25 Li     3.490000    4.935605   10.467803    ( 0.0000,  0.0000,  0.0000)
  26 Li     6.980000    4.935605   10.467803    ( 0.0000,  0.0000,  0.0000)
  27 Li    10.470000    4.935605   10.467803    ( 0.0000,  0.0000,  0.0000)
  28 Li     1.745000    7.403408   10.467803    ( 0.0000,  0.0000,  0.0000)
  29 Li     5.235000    7.403408   10.467803    ( 0.0000,  0.0000,  0.0000)
  30 Li     8.725000    7.403408   10.467803    ( 0.0000,  0.0000,  0.0000)
  31 Li    12.215000    7.403408   10.467803    ( 0.0000,  0.0000,  0.0000)
  32 Li     0.000000    2.467803   12.935605    ( 0.0000,  0.0000,  0.0000)
  33 Li     3.490000    2.467803   12.935605    ( 0.0000,  0.0000,  0.0000)
  34 Li     6.980000    2.467803   12.935605    ( 0.0000,  0.0000,  0.0000)
  35 Li    10.470000    2.467803   12.935605    ( 0.0000,  0.0000,  0.0000)
  36 Li     1.745000    4.935605   12.935605    ( 0.0000,  0.0000,  0.0000)
  37 Li     5.235000    4.935605   12.935605    ( 0.0000,  0.0000,  0.0000)
  38 Li     8.725000    4.935605   12.935605    ( 0.0000,  0.0000,  0.0000)
  39 Li    12.215000    4.935605   12.935605    ( 0.0000,  0.0000,  0.0000)
  40 Li     0.000000    7.403408   12.935605    ( 0.0000,  0.0000,  0.0000)
  41 Li     3.490000    7.403408   12.935605    ( 0.0000,  0.0000,  0.0000)
  42 Li     6.980000    7.403408   12.935605    ( 0.0000,  0.0000,  0.0000)
  43 Li    10.470000    7.403408   12.935605    ( 0.0000,  0.0000,  0.0000)
  44 Li     1.745000    9.871211   12.935605    ( 0.0000,  0.0000,  0.0000)
  45 Li     5.235000    9.871211   12.935605    ( 0.0000,  0.0000,  0.0000)
  46 Li     8.725000    9.871211   12.935605    ( 0.0000,  0.0000,  0.0000)
  47 Li    12.215000    9.871211   12.935605    ( 0.0000,  0.0000,  0.0000)
  48 Li     0.000046    0.000279   15.403781    ( 0.0000,  0.0000,  0.0000)
  49 Li     3.490023    0.000288   15.403818    ( 0.0000,  0.0000,  0.0000)
  50 Li     6.980022    0.000369   15.403676    ( 0.0000,  0.0000,  0.0000)
  51 Li    10.469901    0.000248   15.403868    ( 0.0000,  0.0000,  0.0000)
  52 Li     1.745049    2.467497   15.403822    ( 0.0000,  0.0000,  0.0000)
  53 Li     5.234990    2.467377   15.403698    ( 0.0000,  0.0000,  0.0000)
  54 Li     8.724998    2.467449   15.403722    ( 0.0000,  0.0000,  0.0000)
  55 Li    12.214964    2.467492   15.403819    ( 0.0000,  0.0000,  0.0000)
  56 Li     0.000005    4.935944   15.403522    ( 0.0000,  0.0000,  0.0000)
  57 Li     3.489837    4.935757   15.403516    ( 0.0000,  0.0000,  0.0000)
  58 Li     6.980074    4.935666   15.403765    ( 0.0000,  0.0000,  0.0000)
  59 Li    10.470097    4.935874   15.403458    ( 0.0000,  0.0000,  0.0000)
  60 Li     1.744966    7.403197   15.403437    ( 0.0000,  0.0000,  0.0000)
  61 Li     5.234917    7.403384   15.403423    ( 0.0000,  0.0000,  0.0000)
  62 Li     8.725139    7.403345   15.403279    ( 0.0000,  0.0000,  0.0000)
  63 Li    12.214966    7.403061   15.403597    ( 0.0000,  0.0000,  0.0000)
  64 Li    -0.000007    2.468446   17.875109    ( 0.0000,  0.0000,  0.0000)
  65 Li     3.489909    2.468305   17.875281    ( 0.0000,  0.0000,  0.0000)
  66 Li     6.980020    2.468418   17.875759    ( 0.0000,  0.0000,  0.0000)
  67 Li    10.470060    2.468405   17.875138    ( 0.0000,  0.0000,  0.0000)
  68 Li     1.744888    4.936782   17.871569    ( 0.0000,  0.0000,  0.0000)
  69 Li     5.234950    4.936203   17.872033    ( 0.0000,  0.0000,  0.0000)
  70 Li     8.725233    4.936639   17.871302    ( 0.0000,  0.0000,  0.0000)
  71 Li    12.214998    4.936638   17.871775    ( 0.0000,  0.0000,  0.0000)
  72 Li     0.000103    7.402309   17.871933    ( 0.0000,  0.0000,  0.0000)
  73 Li     3.489824    7.402739   17.871246    ( 0.0000,  0.0000,  0.0000)
  74 Li     6.980178    7.403084   17.870524    ( 0.0000,  0.0000,  0.0000)
  75 Li    10.469901    7.402361   17.871835    ( 0.0000,  0.0000,  0.0000)
  76 Li     1.745050    9.870548   17.875127    ( 0.0000,  0.0000,  0.0000)
  77 Li     5.235001    9.870301   17.875421    ( 0.0000,  0.0000,  0.0000)
  78 Li     8.724969    9.870508   17.875246    ( 0.0000,  0.0000,  0.0000)
  79 Li    12.214969    9.870575   17.875150    ( 0.0000,  0.0000,  0.0000)
  80 Li    -0.000024    4.930911   20.340873    ( 0.0000,  0.0000,  0.0000)
  81 Li     3.490976    4.931159   20.341599    ( 0.0000,  0.0000,  0.0000)
  82 Li     6.986589    4.936546   20.322849    ( 0.0000,  0.0000,  0.0000)
  83 Li    10.468776    4.930635   20.341953    ( 0.0000,  0.0000,  0.0000)
  84 Li     1.744943    7.408109   20.341010    ( 0.0000,  0.0000,  0.0000)
  85 Li     5.235627    7.405504   20.343221    ( 0.0000,  0.0000,  0.0000)
  86 Li     8.723985    7.406707   20.342534    ( 0.0000,  0.0000,  0.0000)
  87 Li    12.215105    7.408144   20.340887    ( 0.0000,  0.0000,  0.0000)
  88 Li     6.101455    4.440205   22.353121    ( 0.0000,  0.0000,  0.0000)

Unit cell:
           periodic     x           y           z      points  spacing
  1. axis:    yes   13.960000    0.000000    0.000000    68     0.2053
  2. axis:    yes    0.000000    9.871211    0.000000    48     0.2057
  3. axis:    no     0.000000    0.000000   28.339013   140     0.2024

  Lengths:  13.960000   9.871211  28.339013
  Angles:   90.000000  90.000000  90.000000

Effective grid spacing dv^(1/3) = 0.2045

     iter     time        total  log10-change:
                         energy   eigst   dens
iter:   1 19:08:49  -141.439136        c
iter:   2 19:08:52  -141.438875        c -2.26
iter:   3 19:08:55  -141.433711c       c -2.03
iter:   4 19:08:57  -141.433618c       c -3.05
iter:   5 19:09:00  -141.433600c       c -3.30
iter:   6 19:09:03  -141.433601c       c -3.52
iter:   7 19:09:05  -141.433603c       c -3.68
iter:   8 19:09:08  -141.433608c       c -3.78
iter:   9 19:09:11  -141.433588c       c -4.02c

Converged after 9 iterations.

Dipole moment: (-9.812709, -14.132463, 0.949982) |e|*Ang

Energy contributions relative to reference atoms: (reference = -18048.116001)

Kinetic:       +276.788181
Potential:     -228.976306
External:        +0.000000
XC:            -187.823010
Entropy (-ST):   -1.677427
Local:           -0.583740
SIC:             +0.000000
--------------------------
Free energy:   -142.272302
Extrapolated:  -141.433588

Showing all kpts
 Kpt  Band  Eigenvalues  Occupancy
  0    42     -2.72699    1.19869
  0    43     -2.71339    1.13259
  0    44     -2.67218    0.92745
  0    45     -2.63621    0.75273

  1    42     -2.72478    1.18809
  1    43     -2.71794    1.15488
  1    44     -2.66875    0.91041
  1    45     -2.63695    0.75618


Fermi level: -2.68671

Gap: 0.041 eV
Transition (v -> c):
  (s=0, k=0, n=43, [0.25, -0.25, 0.00]) -> (s=0, k=0, n=44, [0.25, -0.25, 0.00])
No difference between direct/indirect transitions

Forces in eV/Ang:
  0 Li    0.00101   -0.00130   -0.17034
  1 Li    0.00142   -0.00732   -0.17320
  2 Li   -0.00019   -0.00963   -0.17340
  3 Li   -0.00233   -0.00449   -0.17181
  4 Li   -0.00054   -0.00714   -0.16216
  5 Li   -0.00070   -0.00617   -0.16489
  6 Li    0.00141   -0.00652   -0.16370
  7 Li    0.00009   -0.00815   -0.16162
  8 Li    0.00232    0.00485   -0.16186
  9 Li    0.00096    0.01036   -0.16484
 10 Li    0.00014    0.01125   -0.16617
 11 Li   -0.00367    0.00846   -0.16203
 12 Li    0.00511    0.00316   -0.17061
 13 Li    0.00041    0.00461   -0.17548
 14 Li   -0.00230    0.00373   -0.17283
 15 Li   -0.00313    0.00425   -0.17104
 16 Li    0.00048   -0.00225   -0.07338
 17 Li   -0.00041   -0.00242   -0.07173
 18 Li    0.00022   -0.00378   -0.06619
 19 Li   -0.00024   -0.00158   -0.07686
 20 Li    0.00028    0.00118   -0.07289
 21 Li    0.00063    0.00523   -0.07723
 22 Li   -0.00115    0.00275   -0.07536
 23 Li    0.00015    0.00256   -0.07155
 24 Li   -0.00055   -0.00212   -0.07665
 25 Li    0.00169   -0.00086   -0.06909
 26 Li   -0.00006   -0.00190   -0.07054
 27 Li   -0.00079   -0.00081   -0.07055
 28 Li    0.00131    0.00108   -0.07182
 29 Li    0.00087    0.00081   -0.07141
 30 Li   -0.00222    0.00034   -0.06914
 31 Li   -0.00020    0.00168   -0.07731
 32 Li    0.00078    0.00880   -0.00217
 33 Li    0.00086    0.00124   -0.00058
 34 Li   -0.00073    0.00028    0.00210
 35 Li   -0.00092    0.00436   -0.00278
 36 Li   -0.00256   -0.00951   -0.00534
 37 Li    0.00114   -0.00940    0.00332
 38 Li   -0.00042   -0.00872    0.00212
 39 Li    0.00235   -0.00975   -0.00562
 40 Li   -0.00166    0.01001   -0.00527
 41 Li   -0.00588    0.00933    0.00124
 42 Li    0.00194    0.00600    0.01235
 43 Li    0.00525    0.01157   -0.00751
 44 Li    0.00104   -0.00631   -0.00742
 45 Li   -0.00051    0.00326   -0.01688
 46 Li    0.00135   -0.00106   -0.01632
 47 Li   -0.00201   -0.01001   -0.00059
 48 Li    0.00327    0.01868    0.02918
 49 Li    0.00158    0.01930    0.03170
 50 Li    0.00133    0.02506    0.02194
 51 Li   -0.00659    0.01638    0.03542
 52 Li    0.00326   -0.02038    0.03192
 53 Li   -0.00081   -0.02884    0.02465
 54 Li   -0.00014   -0.02382    0.02592
 55 Li   -0.00225   -0.02064    0.03179
 56 Li    0.00018    0.02224    0.00816
 57 Li   -0.01137    0.00950    0.00792
 58 Li    0.00482    0.00338    0.02786
 59 Li    0.00723    0.01760    0.00312
 60 Li   -0.00246   -0.01355    0.00204
 61 Li   -0.00589   -0.00102    0.00066
 62 Li    0.00984   -0.00359   -0.00919
 63 Li   -0.00242   -0.02292    0.01369
 64 Li   -0.00047    0.04373    0.26980
 65 Li   -0.00696    0.03390    0.28072
 66 Li    0.00200    0.03876    0.31135
 67 Li    0.00350    0.04182    0.27222
 68 Li   -0.00679    0.08048    0.02747
 69 Li   -0.00885    0.04216    0.04942
 70 Li    0.02450    0.07171   -0.00390
 71 Li   -0.00122    0.07050    0.04195
 72 Li    0.00670   -0.07485    0.05118
 73 Li   -0.01048   -0.04640    0.00640
 74 Li    0.01195   -0.01881   -0.04738
 75 Li   -0.00916   -0.07297    0.04785
 76 Li    0.00307   -0.04476    0.27100
 77 Li   -0.00001   -0.06283    0.29210
 78 Li   -0.00187   -0.04802    0.27985
 79 Li   -0.00184   -0.04303    0.27247
 80 Li   -0.00123   -0.31863    0.12907
 81 Li    0.06933   -0.30244    0.17991
 82 Li    0.41854    0.04364   -1.03017
 83 Li   -0.07916   -0.33774    0.20157
 84 Li   -0.00335    0.31883    0.13839
 85 Li    0.04286    0.13867    0.29153
 86 Li   -0.06652    0.22915    0.24240
 87 Li    0.00616    0.32103    0.12971
 88 Li   -0.39176   -0.10530    0.90791

System changes: positions 

Initializing position-dependent things.

Density initialized from wave functions
       .---------------------------------.  
      /|                                 |  
     / |                                 |  
    /  |                                 |  
   /   |                                 |  
  /    |                                 |  
 *     |                                 |  
 |     |                                 |  
 |     |                                 |  
 |     |                                 |  
 |     |                                 |  
 |     |  Li      Li       Li      Li    |  
 |     |                                 |  
 |     |   LLi      LLi     LLi      LLi |  
 |   Li|      Li       Li      Li        |  
 |     |                                 |  
 |     |Li       Li      Li       Li     |  
 |     |  LLi     LiLi     LLi     LiLi  |  
 |     |                                 |  
 |  Li |    Li       Li       Li         |  
 |     Li      Li       Li      Li       |  
 |    Li      Li       Li      Li        |  
 Li    |LiLi     LLi     LLi      Li     |  
 |     |                                 |  
 |Li   |  LLi     LLi      LLi     Li    |  
 |  LLi|     LLi     LLi      LLi        |  
 |     |                                 |  
 |    LLi     LLi      LLi     LLi       |  
 Li    |LLi      LLi     LiLi     Li     |  
 |     |                                 |  
 |Li   |   Li      Li       Li           |  
 |   Li|      Li      Li       Li        |  
 |     |                                 |  
 |     |                                 |  
 |     |                                 |  
 |     .---------------------------------.  
 |    /                                 /   
 |   /                                 /    
 |  /                                 /     
 | /                                 /      
 |/                                 /       
 *---------------------------------*        

Atomic positions and initial magnetic moments

Positions:
   0 Li     0.000000    2.467803    8.000000    ( 0.0000,  0.0000,  0.0000)
   1 Li     3.490000    2.467803    8.000000    ( 0.0000,  0.0000,  0.0000)
   2 Li     6.980000    2.467803    8.000000    ( 0.0000,  0.0000,  0.0000)
   3 Li    10.470000    2.467803    8.000000    ( 0.0000,  0.0000,  0.0000)
   4 Li     1.745000    4.935605    8.000000    ( 0.0000,  0.0000,  0.0000)
   5 Li     5.235000    4.935605    8.000000    ( 0.0000,  0.0000,  0.0000)
   6 Li     8.725000    4.935605    8.000000    ( 0.0000,  0.0000,  0.0000)
   7 Li    12.215000    4.935605    8.000000    ( 0.0000,  0.0000,  0.0000)
   8 Li     0.000000    7.403408    8.000000    ( 0.0000,  0.0000,  0.0000)
   9 Li     3.490000    7.403408    8.000000    ( 0.0000,  0.0000,  0.0000)
  10 Li     6.980000    7.403408    8.000000    ( 0.0000,  0.0000,  0.0000)
  11 Li    10.470000    7.403408    8.000000    ( 0.0000,  0.0000,  0.0000)
  12 Li     1.745000    9.871211    8.000000    ( 0.0000,  0.0000,  0.0000)
  13 Li     5.235000    9.871211    8.000000    ( 0.0000,  0.0000,  0.0000)
  14 Li     8.725000    9.871211    8.000000    ( 0.0000,  0.0000,  0.0000)
  15 Li    12.215000    9.871211    8.000000    ( 0.0000,  0.0000,  0.0000)
  16 Li     0.000000    0.000000   10.467803    ( 0.0000,  0.0000,  0.0000)
  17 Li     3.490000    0.000000   10.467803    ( 0.0000,  0.0000,  0.0000)
  18 Li     6.980000    0.000000   10.467803    ( 0.0000,  0.0000,  0.0000)
  19 Li    10.470000    0.000000   10.467803    ( 0.0000,  0.0000,  0.0000)
  20 Li     1.745000    2.467803   10.467803    ( 0.0000,  0.0000,  0.0000)
  21 Li     5.235000    2.467803   10.467803    ( 0.0000,  0.0000,  0.0000)
  22 Li     8.725000    2.467803   10.467803    ( 0.0000,  0.0000,  0.0000)
  23 Li    12.215000    2.467803   10.467803    ( 0.0000,  0.0000,  0.0000)
  24 Li     0.000000    4.935605   10.467803    ( 0.0000,  0.0000,  0.0000)
  25 Li     3.490000    4.935605   10.467803    ( 0.0000,  0.0000,  0.0000)
  26 Li     6.980000    4.935605   10.467803    ( 0.0000,  0.0000,  0.0000)
  27 Li    10.470000    4.935605   10.467803    ( 0.0000,  0.0000,  0.0000)
  28 Li     1.745000    7.403408   10.467803    ( 0.0000,  0.0000,  0.0000)
  29 Li     5.235000    7.403408   10.467803    ( 0.0000,  0.0000,  0.0000)
  30 Li     8.725000    7.403408   10.467803    ( 0.0000,  0.0000,  0.0000)
  31 Li    12.215000    7.403408   10.467803    ( 0.0000,  0.0000,  0.0000)
  32 Li     0.000000    2.467803   12.935605    ( 0.0000,  0.0000,  0.0000)
  33 Li     3.490000    2.467803   12.935605    ( 0.0000,  0.0000,  0.0000)
  34 Li     6.980000    2.467803   12.935605    ( 0.0000,  0.0000,  0.0000)
  35 Li    10.470000    2.467803   12.935605    ( 0.0000,  0.0000,  0.0000)
  36 Li     1.745000    4.935605   12.935605    ( 0.0000,  0.0000,  0.0000)
  37 Li     5.235000    4.935605   12.935605    ( 0.0000,  0.0000,  0.0000)
  38 Li     8.725000    4.935605   12.935605    ( 0.0000,  0.0000,  0.0000)
  39 Li    12.215000    4.935605   12.935605    ( 0.0000,  0.0000,  0.0000)
  40 Li     0.000000    7.403408   12.935605    ( 0.0000,  0.0000,  0.0000)
  41 Li     3.490000    7.403408   12.935605    ( 0.0000,  0.0000,  0.0000)
  42 Li     6.980000    7.403408   12.935605    ( 0.0000,  0.0000,  0.0000)
  43 Li    10.470000    7.403408   12.935605    ( 0.0000,  0.0000,  0.0000)
  44 Li     1.745000    9.871211   12.935605    ( 0.0000,  0.0000,  0.0000)
  45 Li     5.235000    9.871211   12.935605    ( 0.0000,  0.0000,  0.0000)
  46 Li     8.725000    9.871211   12.935605    ( 0.0000,  0.0000,  0.0000)
  47 Li    12.215000    9.871211   12.935605    ( 0.0000,  0.0000,  0.0000)
  48 Li     0.000633    0.003633   15.409002    ( 0.0000,  0.0000,  0.0000)
  49 Li     3.490306    0.003751   15.409492    ( 0.0000,  0.0000,  0.0000)
  50 Li     6.980262    0.004866   15.407598    ( 0.0000,  0.0000,  0.0000)
  51 Li    10.468717    0.003189   15.410208    ( 0.0000,  0.0000,  0.0000)
  52 Li     1.745634    2.463840   15.409535    ( 0.0000,  0.0000,  0.0000)
  53 Li     5.234846    2.462202   15.408103    ( 0.0000,  0.0000,  0.0000)
  54 Li     8.724974    2.463173   15.408356    ( 0.0000,  0.0000,  0.0000)
  55 Li    12.214560    2.463786   15.409509    ( 0.0000,  0.0000,  0.0000)
  56 Li     0.000038    4.939939   15.404985    ( 0.0000,  0.0000,  0.0000)
  57 Li     3.487797    4.937465   15.404936    ( 0.0000,  0.0000,  0.0000)
  58 Li     6.980940    4.936277   15.408750    ( 0.0000,  0.0000,  0.0000)
  59 Li    10.471391    4.939035   15.404020    ( 0.0000,  0.0000,  0.0000)
  60 Li     1.744525    7.400762   15.403802    ( 0.0000,  0.0000,  0.0000)
  61 Li     5.233861    7.403199   15.403543    ( 0.0000,  0.0000,  0.0000)
  62 Li     8.726904    7.402697   15.401631    ( 0.0000,  0.0000,  0.0000)
  63 Li    12.214533    7.398946   15.406050    ( 0.0000,  0.0000,  0.0000)
  64 Li    -0.000092    2.476293   17.923506    ( 0.0000,  0.0000,  0.0000)
  65 Li     3.488664    2.474390   17.925641    ( 0.0000,  0.0000,  0.0000)
  66 Li     6.980377    2.475386   17.931624    ( 0.0000,  0.0000,  0.0000)
  67 Li    10.470690    2.475908   17.923968    ( 0.0000,  0.0000,  0.0000)
  68 Li     1.743666    4.951222   17.876487    ( 0.0000,  0.0000,  0.0000)
  69 Li     5.233384    4.943763   17.880928    ( 0.0000,  0.0000,  0.0000)
  70 Li     8.729595    4.949502   17.870643    ( 0.0000,  0.0000,  0.0000)
  71 Li    12.214783    4.949288   17.879289    ( 0.0000,  0.0000,  0.0000)
  72 Li     0.001307    7.388877   17.881109    ( 0.0000,  0.0000,  0.0000)
  73 Li     3.487937    7.394416   17.872379    ( 0.0000,  0.0000,  0.0000)
  74 Li     6.982323    7.399695   17.862024    ( 0.0000,  0.0000,  0.0000)
  75 Li    10.468268    7.389274   17.880399    ( 0.0000,  0.0000,  0.0000)
  76 Li     1.745602    9.862515   17.923740    ( 0.0000,  0.0000,  0.0000)
  77 Li     5.234999    9.859030   17.927817    ( 0.0000,  0.0000,  0.0000)
  78 Li     8.724633    9.861892   17.925445    ( 0.0000,  0.0000,  0.0000)
  79 Li    12.214637    9.862852   17.924028    ( 0.0000,  0.0000,  0.0000)
  80 Li    -0.000246    4.873730   20.364025    ( 0.0000,  0.0000,  0.0000)
  81 Li     3.503405    4.876886   20.373868    ( 0.0000,  0.0000,  0.0000)
  82 Li     7.061814    4.944460   20.137705    ( 0.0000,  0.0000,  0.0000)
  83 Li    10.454554    4.870025   20.378118    ( 0.0000,  0.0000,  0.0000)
  84 Li     1.744341    7.465328   20.365834    ( 0.0000,  0.0000,  0.0000)
  85 Li     5.243318    7.430405   20.395517    ( 0.0000,  0.0000,  0.0000)
  86 Li     8.712039    7.447811   20.386021    ( 0.0000,  0.0000,  0.0000)
  87 Li    12.216215    7.465759   20.364155    ( 0.0000,  0.0000,  0.0000)
  88 Li     6.031076    4.421229   22.516255    ( 0.0000,  0.0000,  0.0000)

Unit cell:
           periodic     x           y           z      points  spacing
  1. axis:    yes   13.960000    0.000000    0.000000    68     0.2053
  2. axis:    yes    0.000000    9.871211    0.000000    48     0.2057
  3. axis:    no     0.000000    0.000000   28.339013   140     0.2024

  Lengths:  13.960000   9.871211  28.339013
  Angles:   90.000000  90.000000  90.000000

Effective grid spacing dv^(1/3) = 0.2045

     iter     time        total  log10-change:
                         energy   eigst   dens
iter:   1 19:09:21  -142.538022        c
iter:   2 19:09:24  -143.205649        c -1.14
iter:   3 19:09:27  -141.926169        c -0.92
iter:   4 19:09:30  -141.912509        c -1.86
iter:   5 19:09:33  -141.908243c       c -2.19
iter:   6 19:09:35  -141.906383c       c -2.42
iter:   7 19:09:38  -141.905227c       c -2.55
iter:   8 19:09:41  -141.904779c       c -2.72
iter:   9 19:09:45  -141.904808c       c -2.82
iter:  10 19:09:48  -141.904357c       c -2.97
iter:  11 19:09:51  -141.904456c       c -3.05
iter:  12 19:09:54  -141.904413c       c -3.23
iter:  13 19:09:56  -141.904361c       c -3.37
iter:  14 19:09:59  -141.904357c       c -3.53
iter:  15 19:10:02  -141.904332c       c -3.66
iter:  16 19:10:05  -141.904383c       c -3.73
iter:  17 19:10:08  -141.904323c       c -3.75
iter:  18 19:10:10  -141.904337c       c -3.92
iter:  19 19:10:13  -141.904337c       c -4.12c

Converged after 19 iterations.

Dipole moment: (-9.845837, -13.770689, 1.106731) |e|*Ang

Energy contributions relative to reference atoms: (reference = -18048.116001)

Kinetic:       +272.014776
Potential:     -225.711976
External:        +0.000000
XC:            -186.789536
Entropy (-ST):   -1.672704
Local:           -0.581250
SIC:             +0.000000
--------------------------
Free energy:   -142.740689
Extrapolated:  -141.904337

Showing all kpts
 Kpt  Band  Eigenvalues  Occupancy
  0    42     -2.67803    1.19089
  0    43     -2.66339    1.11948
  0    44     -2.61986    0.90269
  0    45     -2.58843    0.75061

  1    42     -2.67366    1.16975
  1    43     -2.66674    1.13593
  1    44     -2.61815    0.89422
  1    45     -2.59011    0.75852


Fermi level: -2.63938

Gap: 0.044 eV
Transition (v -> c):
  (s=0, k=0, n=43, [0.25, -0.25, 0.00]) -> (s=0, k=0, n=44, [0.25, -0.25, 0.00])
No difference between direct/indirect transitions

Forces in eV/Ang:
  0 Li    0.00093   -0.00138   -0.16996
  1 Li    0.00141   -0.00754   -0.17337
  2 Li   -0.00037   -0.00966   -0.17330
  3 Li   -0.00203   -0.00454   -0.17179
  4 Li   -0.00059   -0.00685   -0.16196
  5 Li   -0.00081   -0.00592   -0.16484
  6 Li    0.00106   -0.00629   -0.16337
  7 Li    0.00029   -0.00836   -0.16087
  8 Li    0.00288    0.00449   -0.16137
  9 Li    0.00094    0.01015   -0.16445
 10 Li    0.00005    0.01099   -0.16549
 11 Li   -0.00392    0.00809   -0.16115
 12 Li    0.00510    0.00343   -0.17052
 13 Li    0.00020    0.00461   -0.17495
 14 Li   -0.00239    0.00371   -0.17207
 15 Li   -0.00274    0.00502   -0.17079
 16 Li    0.00038   -0.00205   -0.07385
 17 Li   -0.00010   -0.00221   -0.07259
 18 Li    0.00021   -0.00354   -0.06687
 19 Li   -0.00027   -0.00136   -0.07760
 20 Li    0.00037    0.00122   -0.07307
 21 Li    0.00071    0.00505   -0.07804
 22 Li   -0.00137    0.00258   -0.07565
 23 Li    0.00026    0.00247   -0.07159
 24 Li   -0.00053   -0.00238   -0.07781
 25 Li    0.00174   -0.00133   -0.06947
 26 Li   -0.00025   -0.00232   -0.07098
 27 Li   -0.00098   -0.00137   -0.07070
 28 Li    0.00103    0.00127   -0.07164
 29 Li    0.00072    0.00107   -0.07150
 30 Li   -0.00219    0.00066   -0.06940
 31 Li    0.00028    0.00207   -0.07807
 32 Li    0.00067    0.00997   -0.00016
 33 Li    0.00140    0.00090    0.00113
 34 Li   -0.00119    0.00141    0.00301
 35 Li   -0.00098    0.00414   -0.00020
 36 Li   -0.00399   -0.01092   -0.00442
 37 Li    0.00196   -0.01135    0.00755
 38 Li   -0.00168   -0.01040    0.00533
 39 Li    0.00393   -0.01102   -0.00558
 40 Li   -0.00269    0.01113   -0.00333
 41 Li   -0.00632    0.01085    0.00171
 42 Li    0.00182    0.00645    0.01455
 43 Li    0.00656    0.01367   -0.00882
 44 Li    0.00242   -0.00638   -0.00655
 45 Li   -0.00053    0.00355   -0.01672
 46 Li    0.00133   -0.00109   -0.01573
 47 Li   -0.00275   -0.01091    0.00274
 48 Li    0.00259    0.01041    0.06602
 49 Li    0.00194    0.01122    0.06721
 50 Li   -0.00004    0.01731    0.05895
 51 Li   -0.00342    0.00764    0.07154
 52 Li    0.00060   -0.01264    0.06559
 53 Li   -0.00093   -0.02110    0.06909
 54 Li    0.00059   -0.01645    0.06555
 55 Li   -0.00033   -0.01134    0.06654
 56 Li   -0.00201    0.00498    0.01150
 57 Li   -0.00953   -0.00263    0.01162
 58 Li    0.00118   -0.00661    0.05506
 59 Li    0.01058    0.00347   -0.00027
 60 Li   -0.00393    0.00173    0.00524
 61 Li   -0.00639    0.00819   -0.00452
 62 Li    0.01159    0.00751   -0.01089
 63 Li   -0.00269   -0.00599    0.02081
 64 Li    0.00030    0.02814    0.22417
 65 Li   -0.01115    0.02076    0.22994
 66 Li    0.00518   -0.00819    0.23013
 67 Li   -0.00622    0.03637    0.23474
 68 Li    0.00403    0.05847    0.05787
 69 Li   -0.07088    0.04386   -0.03133
 70 Li    0.12135    0.05926   -0.11843
 71 Li   -0.00827    0.05007    0.06967
 72 Li    0.00248   -0.05032    0.06339
 73 Li    0.00865   -0.04141    0.05352
 74 Li    0.00188    0.02147   -0.02953
 75 Li   -0.02966   -0.06437    0.08991
 76 Li   -0.00311   -0.02877    0.22462
 77 Li   -0.00180   -0.05120    0.25197
 78 Li    0.00278   -0.03437    0.23742
 79 Li    0.00253   -0.02884    0.22423
 80 Li    0.00316   -0.20693    0.11490
 81 Li    0.07242   -0.20424    0.15862
 82 Li    0.03764   -0.10531   -0.10833
 83 Li   -0.02093   -0.22619    0.16052
 84 Li    0.00385    0.19955    0.12115
 85 Li    0.03144    0.05197    0.24331
 86 Li   -0.01973    0.19298    0.19717
 87 Li   -0.00266    0.19936    0.11487
 88 Li   -0.12371    0.08357    0.21781

System changes: positions 

Initializing position-dependent things.

Density initialized from wave functions
       .---------------------------------.  
      /|                                 |  
     / |                                 |  
    /  |                                 |  
   /   |                                 |  
  /    |                                 |  
 *     |                                 |  
 |     |                                 |  
 |     |                                 |  
 |     |                                 |  
 |     |          Li                     |  
 |     |  Li      Li       Li      Li    |  
 |     |                                 |  
 |     |   LLi      LLi     LLi      LLi |  
 |   Li|      Li       Li      Li        |  
 |     |                                 |  
 |     |Li       Li      Li       Li     |  
 |     |  LLi     LiLi     LLi     LiLi  |  
 |     |                                 |  
 |  Li |    Li       Li       Li         |  
 |     Li      Li       Li      Li       |  
 |    Li      Li       Li      Li        |  
 Li    |LiLi     LLi     LLi      Li     |  
 |     |                                 |  
 |Li   |  LLi     LLi      LLi     Li    |  
 |  LLi|     LLi     LLi      LLi        |  
 |     |                                 |  
 |    LLi     LLi      LLi     LLi       |  
 Li    |LLi      LLi     LiLi     Li     |  
 |     |                                 |  
 |Li   |   Li      Li       Li           |  
 |   Li|      Li      Li       Li        |  
 |     |                                 |  
 |     |                                 |  
 |     |                                 |  
 |     .---------------------------------.  
 |    /                                 /   
 |   /                                 /    
 |  /                                 /     
 | /                                 /      
 |/                                 /       
 *---------------------------------*        

Atomic positions and initial magnetic moments

Positions:
   0 Li     0.000000    2.467803    8.000000    ( 0.0000,  0.0000,  0.0000)
   1 Li     3.490000    2.467803    8.000000    ( 0.0000,  0.0000,  0.0000)
   2 Li     6.980000    2.467803    8.000000    ( 0.0000,  0.0000,  0.0000)
   3 Li    10.470000    2.467803    8.000000    ( 0.0000,  0.0000,  0.0000)
   4 Li     1.745000    4.935605    8.000000    ( 0.0000,  0.0000,  0.0000)
   5 Li     5.235000    4.935605    8.000000    ( 0.0000,  0.0000,  0.0000)
   6 Li     8.725000    4.935605    8.000000    ( 0.0000,  0.0000,  0.0000)
   7 Li    12.215000    4.935605    8.000000    ( 0.0000,  0.0000,  0.0000)
   8 Li     0.000000    7.403408    8.000000    ( 0.0000,  0.0000,  0.0000)
   9 Li     3.490000    7.403408    8.000000    ( 0.0000,  0.0000,  0.0000)
  10 Li     6.980000    7.403408    8.000000    ( 0.0000,  0.0000,  0.0000)
  11 Li    10.470000    7.403408    8.000000    ( 0.0000,  0.0000,  0.0000)
  12 Li     1.745000    9.871211    8.000000    ( 0.0000,  0.0000,  0.0000)
  13 Li     5.235000    9.871211    8.000000    ( 0.0000,  0.0000,  0.0000)
  14 Li     8.725000    9.871211    8.000000    ( 0.0000,  0.0000,  0.0000)
  15 Li    12.215000    9.871211    8.000000    ( 0.0000,  0.0000,  0.0000)
  16 Li     0.000000    0.000000   10.467803    ( 0.0000,  0.0000,  0.0000)
  17 Li     3.490000    0.000000   10.467803    ( 0.0000,  0.0000,  0.0000)
  18 Li     6.980000    0.000000   10.467803    ( 0.0000,  0.0000,  0.0000)
  19 Li    10.470000    0.000000   10.467803    ( 0.0000,  0.0000,  0.0000)
  20 Li     1.745000    2.467803   10.467803    ( 0.0000,  0.0000,  0.0000)
  21 Li     5.235000    2.467803   10.467803    ( 0.0000,  0.0000,  0.0000)
  22 Li     8.725000    2.467803   10.467803    ( 0.0000,  0.0000,  0.0000)
  23 Li    12.215000    2.467803   10.467803    ( 0.0000,  0.0000,  0.0000)
  24 Li     0.000000    4.935605   10.467803    ( 0.0000,  0.0000,  0.0000)
  25 Li     3.490000    4.935605   10.467803    ( 0.0000,  0.0000,  0.0000)
  26 Li     6.980000    4.935605   10.467803    ( 0.0000,  0.0000,  0.0000)
  27 Li    10.470000    4.935605   10.467803    ( 0.0000,  0.0000,  0.0000)
  28 Li     1.745000    7.403408   10.467803    ( 0.0000,  0.0000,  0.0000)
  29 Li     5.235000    7.403408   10.467803    ( 0.0000,  0.0000,  0.0000)
  30 Li     8.725000    7.403408   10.467803    ( 0.0000,  0.0000,  0.0000)
  31 Li    12.215000    7.403408   10.467803    ( 0.0000,  0.0000,  0.0000)
  32 Li     0.000000    2.467803   12.935605    ( 0.0000,  0.0000,  0.0000)
  33 Li     3.490000    2.467803   12.935605    ( 0.0000,  0.0000,  0.0000)
  34 Li     6.980000    2.467803   12.935605    ( 0.0000,  0.0000,  0.0000)
  35 Li    10.470000    2.467803   12.935605    ( 0.0000,  0.0000,  0.0000)
  36 Li     1.745000    4.935605   12.935605    ( 0.0000,  0.0000,  0.0000)
  37 Li     5.235000    4.935605   12.935605    ( 0.0000,  0.0000,  0.0000)
  38 Li     8.725000    4.935605   12.935605    ( 0.0000,  0.0000,  0.0000)
  39 Li    12.215000    4.935605   12.935605    ( 0.0000,  0.0000,  0.0000)
  40 Li     0.000000    7.403408   12.935605    ( 0.0000,  0.0000,  0.0000)
  41 Li     3.490000    7.403408   12.935605    ( 0.0000,  0.0000,  0.0000)
  42 Li     6.980000    7.403408   12.935605    ( 0.0000,  0.0000,  0.0000)
  43 Li    10.470000    7.403408   12.935605    ( 0.0000,  0.0000,  0.0000)
  44 Li     1.745000    9.871211   12.935605    ( 0.0000,  0.0000,  0.0000)
  45 Li     5.235000    9.871211   12.935605    ( 0.0000,  0.0000,  0.0000)
  46 Li     8.725000    9.871211   12.935605    ( 0.0000,  0.0000,  0.0000)
  47 Li    12.215000    9.871211   12.935605    ( 0.0000,  0.0000,  0.0000)
  48 Li     0.001091    0.006147   15.414108    ( 0.0000,  0.0000,  0.0000)
  49 Li     3.490543    0.006360   15.414931    ( 0.0000,  0.0000,  0.0000)
  50 Li     6.980423    0.008318   15.411657    ( 0.0000,  0.0000,  0.0000)
  51 Li    10.467836    0.005360   15.416200    ( 0.0000,  0.0000,  0.0000)
  52 Li     1.746043    2.461066   15.414962    ( 0.0000,  0.0000,  0.0000)
  53 Li     5.234727    2.458201   15.412727    ( 0.0000,  0.0000,  0.0000)
  54 Li     8.724972    2.459891   15.413051    ( 0.0000,  0.0000,  0.0000)
  55 Li    12.214279    2.461010   15.414942    ( 0.0000,  0.0000,  0.0000)
  56 Li     0.000013    4.942756   15.406248    ( 0.0000,  0.0000,  0.0000)
  57 Li     3.486192    4.938556   15.406172    ( 0.0000,  0.0000,  0.0000)
  58 Li     6.981553    4.936531   15.413431    ( 0.0000,  0.0000,  0.0000)
  59 Li    10.472518    4.941253   15.404393    ( 0.0000,  0.0000,  0.0000)
  60 Li     1.744133    7.399160   15.404176    ( 0.0000,  0.0000,  0.0000)
  61 Li     5.232995    7.403271   15.403515    ( 0.0000,  0.0000,  0.0000)
  62 Li     8.728373    7.402440   15.400258    ( 0.0000,  0.0000,  0.0000)
  63 Li    12.214176    7.396025   15.408205    ( 0.0000,  0.0000,  0.0000)
  64 Li    -0.000141    2.482265   17.961544    ( 0.0000,  0.0000,  0.0000)
  65 Li     3.487558    2.478996   17.965146    ( 0.0000,  0.0000,  0.0000)
  66 Li     6.980740    2.479897   17.974852    ( 0.0000,  0.0000,  0.0000)
  67 Li    10.470966    2.481843   17.962553    ( 0.0000,  0.0000,  0.0000)
  68 Li     1.742937    4.962371   17.881193    ( 0.0000,  0.0000,  0.0000)
  69 Li     5.230632    4.949917   17.886190    ( 0.0000,  0.0000,  0.0000)
  70 Li     8.735444    4.959602   17.867367    ( 0.0000,  0.0000,  0.0000)
  71 Li    12.214442    4.959028   17.886028    ( 0.0000,  0.0000,  0.0000)
  72 Li     0.002180    7.378604   17.888823    ( 0.0000,  0.0000,  0.0000)
  73 Li     3.486868    7.387806   17.874425    ( 0.0000,  0.0000,  0.0000)
  74 Li     6.983815    7.397918   17.855582    ( 0.0000,  0.0000,  0.0000)
  75 Li    10.466458    7.378899   17.888330    ( 0.0000,  0.0000,  0.0000)
  76 Li     1.745900    9.856402   17.961935    ( 0.0000,  0.0000,  0.0000)
  77 Li     5.234954    9.850194   17.969220    ( 0.0000,  0.0000,  0.0000)
  78 Li     8.724472    9.855251   17.965016    ( 0.0000,  0.0000,  0.0000)
  79 Li    12.214474    9.856946   17.962392    ( 0.0000,  0.0000,  0.0000)
  80 Li    -0.000321    4.830168   20.382406    ( 0.0000,  0.0000,  0.0000)
  81 Li     3.513526    4.835351   20.399449    ( 0.0000,  0.0000,  0.0000)
  82 Li     7.113559    4.947330   20.009987    ( 0.0000,  0.0000,  0.0000)
  83 Li    10.444442    4.823684   20.406381    ( 0.0000,  0.0000,  0.0000)
  84 Li     1.744026    7.508738   20.385494    ( 0.0000,  0.0000,  0.0000)
  85 Li     5.249263    7.448466   20.436644    ( 0.0000,  0.0000,  0.0000)
  86 Li     8.703497    7.480176   20.420103    ( 0.0000,  0.0000,  0.0000)
  87 Li    12.216903    7.509432   20.382615    ( 0.0000,  0.0000,  0.0000)
  88 Li     5.980552    4.410379   22.631721    ( 0.0000,  0.0000,  0.0000)

Unit cell:
           periodic     x           y           z      points  spacing
  1. axis:    yes   13.960000    0.000000    0.000000    68     0.2053
  2. axis:    yes    0.000000    9.871211    0.000000    48     0.2057
  3. axis:    no     0.000000    0.000000   28.339013   140     0.2024

  Lengths:  13.960000   9.871211  28.339013
  Angles:   90.000000  90.000000  90.000000

Effective grid spacing dv^(1/3) = 0.2045

     iter     time        total  log10-change:
                         energy   eigst   dens
iter:   1 19:10:24  -142.614336        c
iter:   2 19:10:27  -143.251375        c -1.16
iter:   3 19:10:30  -142.063315        c -0.94
iter:   4 19:10:32  -142.053550        c -1.95
iter:   5 19:10:35  -142.051367c       c -2.31
iter:   6 19:10:38  -142.050493c       c -2.56
iter:   7 19:10:41  -142.049871c       c -2.68
iter:   8 19:10:43  -142.049648c       c -2.87
iter:   9 19:10:46  -142.049816c       c -2.97
iter:  10 19:10:49  -142.049468c       c -3.09
iter:  11 19:10:52  -142.049547c       c -3.24
iter:  12 19:10:55  -142.049536c       c -3.42
iter:  13 19:10:58  -142.049515c       c -3.55
iter:  14 19:11:01  -142.049520c       c -3.70
iter:  15 19:11:04  -142.049509c       c -3.83
iter:  16 19:11:06  -142.049548c       c -3.90
iter:  17 19:11:09  -142.049507c       c -3.92
iter:  18 19:11:12  -142.049514c       c -4.12c

Converged after 18 iterations.

Dipole moment: (-9.867445, -13.473037, 1.188878) |e|*Ang

Energy contributions relative to reference atoms: (reference = -18048.116001)

Kinetic:       +268.674783
Potential:     -223.280076
External:        +0.000000
XC:            -186.030221
Entropy (-ST):   -1.670333
Local:           -0.578833
SIC:             +0.000000
--------------------------
Free energy:   -142.884681
Extrapolated:  -142.049514

Showing all kpts
 Kpt  Band  Eigenvalues  Occupancy
  0    42     -2.65143    1.18502
  0    43     -2.63568    1.10802
  0    44     -2.59253    0.89306
  0    45     -2.56104    0.74122

  1    42     -2.64549    1.15619
  1    43     -2.63820    1.12042
  1    44     -2.59140    0.88750
  1    45     -2.56494    0.75951


Fermi level: -2.61400

Gap: 0.043 eV
Transition (v -> c):
  (s=0, k=0, n=43, [0.25, -0.25, 0.00]) -> (s=0, k=0, n=44, [0.25, -0.25, 0.00])
No difference between direct/indirect transitions

Forces in eV/Ang:
  0 Li    0.00083   -0.00145   -0.16971
  1 Li    0.00143   -0.00769   -0.17342
  2 Li   -0.00034   -0.00965   -0.17323
  3 Li   -0.00188   -0.00459   -0.17177
  4 Li   -0.00074   -0.00658   -0.16178
  5 Li   -0.00081   -0.00578   -0.16468
  6 Li    0.00082   -0.00616   -0.16312
  7 Li    0.00036   -0.00838   -0.16040
  8 Li    0.00316    0.00420   -0.16097
  9 Li    0.00096    0.00995   -0.16410
 10 Li    0.00009    0.01076   -0.16489
 11 Li   -0.00402    0.00776   -0.16063
 12 Li    0.00500    0.00360   -0.17047
 13 Li    0.00014    0.00465   -0.17460
 14 Li   -0.00242    0.00381   -0.17168
 15 Li   -0.00257    0.00548   -0.17062
 16 Li    0.00036   -0.00194   -0.07455
 17 Li    0.00012   -0.00213   -0.07337
 18 Li    0.00019   -0.00348   -0.06761
 19 Li   -0.00040   -0.00131   -0.07833
 20 Li    0.00051    0.00138   -0.07339
 21 Li    0.00076    0.00494   -0.07872
 22 Li   -0.00148    0.00253   -0.07618
 23 Li    0.00029    0.00249   -0.07195
 24 Li   -0.00049   -0.00249   -0.07852
 25 Li    0.00172   -0.00159   -0.06976
 26 Li   -0.00044   -0.00248   -0.07145
 27 Li   -0.00116   -0.00171   -0.07109
 28 Li    0.00094    0.00131   -0.07157
 29 Li    0.00069    0.00119   -0.07167
 30 Li   -0.00213    0.00091   -0.06984
 31 Li    0.00051    0.00218   -0.07871
 32 Li    0.00069    0.01037    0.00310
 33 Li    0.00186    0.00037    0.00387
 34 Li   -0.00147    0.00204    0.00493
 35 Li   -0.00107    0.00364    0.00320
 36 Li   -0.00506   -0.01208   -0.00327
 37 Li    0.00285   -0.01288    0.01130
 38 Li   -0.00296   -0.01171    0.00799
 39 Li    0.00490   -0.01200   -0.00528
 40 Li   -0.00349    0.01200   -0.00163
 41 Li   -0.00662    0.01210    0.00251
 42 Li    0.00177    0.00692    0.01626
 43 Li    0.00772    0.01518   -0.00905
 44 Li    0.00338   -0.00599   -0.00425
 45 Li   -0.00045    0.00393   -0.01477
 46 Li    0.00112   -0.00078   -0.01325
 47 Li   -0.00321   -0.01117    0.00693
 48 Li    0.00194    0.00348    0.09213
 49 Li    0.00219    0.00495    0.09244
 50 Li   -0.00116    0.01098    0.08461
 51 Li   -0.00085    0.00106    0.09657
 52 Li   -0.00109   -0.00631    0.08957
 53 Li   -0.00098   -0.01397    0.10010
 54 Li    0.00100   -0.00972    0.09384
 55 Li    0.00096   -0.00407    0.09122
 56 Li   -0.00362   -0.00781    0.01462
 57 Li   -0.00859   -0.01139    0.01423
 58 Li   -0.00182   -0.01355    0.07549
 59 Li    0.01364   -0.00713   -0.00294
 60 Li   -0.00493    0.01277    0.00855
 61 Li   -0.00658    0.01389   -0.00633
 62 Li    0.01229    0.01467   -0.00945
 63 Li   -0.00247    0.00659    0.02669
 64 Li    0.00086    0.01639    0.18863
 65 Li   -0.01405    0.01123    0.19242
 66 Li    0.00523   -0.04549    0.17454
 67 Li   -0.01344    0.03208    0.20554
 68 Li    0.01048    0.03897    0.07885
 69 Li   -0.11753    0.04204   -0.08140
 70 Li    0.20303    0.04562   -0.21064
 71 Li   -0.01285    0.03255    0.08982
 72 Li    0.00006   -0.02942    0.07324
 73 Li    0.02033   -0.03320    0.08473
 74 Li   -0.00636    0.05314   -0.01385
 75 Li   -0.04234   -0.05231    0.11827
 76 Li   -0.00798   -0.01773    0.18958
 77 Li   -0.00420   -0.04405    0.22361
 78 Li    0.00752   -0.02609    0.20680
 79 Li    0.00573   -0.01862    0.18770
 80 Li    0.00618   -0.13111    0.10484
 81 Li    0.07781   -0.13616    0.15002
 82 Li   -0.13039   -0.13029    0.34362
 83 Li    0.00722   -0.14989    0.13644
 84 Li    0.00893    0.12551    0.10833
 85 Li    0.02607   -0.00793    0.20356
 86 Li    0.00372    0.15544    0.16623
 87 Li   -0.00701    0.12476    0.10153
 88 Li   -0.02755    0.15105   -0.06252

System changes: positions 

Initializing position-dependent things.

Density initialized from wave functions
       .---------------------------------.  
      /|                                 |  
     / |                                 |  
    /  |                                 |  
   /   |                                 |  
  /    |                                 |  
 *     |                                 |  
 |     |                                 |  
 |     |                                 |  
 |     |                                 |  
 |     |          Li                     |  
 |     |  Li      Li       Li      Li    |  
 |     |                                 |  
 |     |   LLi      LLi     LLi      LLi |  
 |   Li|      Li       Li      Li        |  
 |     |                                 |  
 |     |Li       Li      Li       Li     |  
 |     |  LLi     LiLi     LLi     LiLi  |  
 |     |                                 |  
 |     |    Li       Li       Li      Li |  
 |     Li      Li       Li      Li       |  
 |    Li      Li       Li      Li        |  
 Li    |LiLi     LLi     LLi      Li     |  
 |     |                                 |  
 |Li   |  LLi     LLi      LLi     Li    |  
 |  LLi|     LLi     LLi      LLi        |  
 |     |                                 |  
 |    LLi     LLi      LLi     LLi       |  
 Li    |LLi      LLi     LiLi     Li     |  
 |     |                                 |  
 |Li   |   Li      Li       Li           |  
 |   Li|      Li      Li       Li        |  
 |     |                                 |  
 |     |                                 |  
 |     |                                 |  
 |     .---------------------------------.  
 |    /                                 /   
 |   /                                 /    
 |  /                                 /     
 | /                                 /      
 |/                                 /       
 *---------------------------------*        

Atomic positions and initial magnetic moments

Positions:
   0 Li     0.000000    2.467803    8.000000    ( 0.0000,  0.0000,  0.0000)
   1 Li     3.490000    2.467803    8.000000    ( 0.0000,  0.0000,  0.0000)
   2 Li     6.980000    2.467803    8.000000    ( 0.0000,  0.0000,  0.0000)
   3 Li    10.470000    2.467803    8.000000    ( 0.0000,  0.0000,  0.0000)
   4 Li     1.745000    4.935605    8.000000    ( 0.0000,  0.0000,  0.0000)
   5 Li     5.235000    4.935605    8.000000    ( 0.0000,  0.0000,  0.0000)
   6 Li     8.725000    4.935605    8.000000    ( 0.0000,  0.0000,  0.0000)
   7 Li    12.215000    4.935605    8.000000    ( 0.0000,  0.0000,  0.0000)
   8 Li     0.000000    7.403408    8.000000    ( 0.0000,  0.0000,  0.0000)
   9 Li     3.490000    7.403408    8.000000    ( 0.0000,  0.0000,  0.0000)
  10 Li     6.980000    7.403408    8.000000    ( 0.0000,  0.0000,  0.0000)
  11 Li    10.470000    7.403408    8.000000    ( 0.0000,  0.0000,  0.0000)
  12 Li     1.745000    9.871211    8.000000    ( 0.0000,  0.0000,  0.0000)
  13 Li     5.235000    9.871211    8.000000    ( 0.0000,  0.0000,  0.0000)
  14 Li     8.725000    9.871211    8.000000    ( 0.0000,  0.0000,  0.0000)
  15 Li    12.215000    9.871211    8.000000    ( 0.0000,  0.0000,  0.0000)
  16 Li     0.000000    0.000000   10.467803    ( 0.0000,  0.0000,  0.0000)
  17 Li     3.490000    0.000000   10.467803    ( 0.0000,  0.0000,  0.0000)
  18 Li     6.980000    0.000000   10.467803    ( 0.0000,  0.0000,  0.0000)
  19 Li    10.470000    0.000000   10.467803    ( 0.0000,  0.0000,  0.0000)
  20 Li     1.745000    2.467803   10.467803    ( 0.0000,  0.0000,  0.0000)
  21 Li     5.235000    2.467803   10.467803    ( 0.0000,  0.0000,  0.0000)
  22 Li     8.725000    2.467803   10.467803    ( 0.0000,  0.0000,  0.0000)
  23 Li    12.215000    2.467803   10.467803    ( 0.0000,  0.0000,  0.0000)
  24 Li     0.000000    4.935605   10.467803    ( 0.0000,  0.0000,  0.0000)
  25 Li     3.490000    4.935605   10.467803    ( 0.0000,  0.0000,  0.0000)
  26 Li     6.980000    4.935605   10.467803    ( 0.0000,  0.0000,  0.0000)
  27 Li    10.470000    4.935605   10.467803    ( 0.0000,  0.0000,  0.0000)
  28 Li     1.745000    7.403408   10.467803    ( 0.0000,  0.0000,  0.0000)
  29 Li     5.235000    7.403408   10.467803    ( 0.0000,  0.0000,  0.0000)
  30 Li     8.725000    7.403408   10.467803    ( 0.0000,  0.0000,  0.0000)
  31 Li    12.215000    7.403408   10.467803    ( 0.0000,  0.0000,  0.0000)
  32 Li     0.000000    2.467803   12.935605    ( 0.0000,  0.0000,  0.0000)
  33 Li     3.490000    2.467803   12.935605    ( 0.0000,  0.0000,  0.0000)
  34 Li     6.980000    2.467803   12.935605    ( 0.0000,  0.0000,  0.0000)
  35 Li    10.470000    2.467803   12.935605    ( 0.0000,  0.0000,  0.0000)
  36 Li     1.745000    4.935605   12.935605    ( 0.0000,  0.0000,  0.0000)
  37 Li     5.235000    4.935605   12.935605    ( 0.0000,  0.0000,  0.0000)
  38 Li     8.725000    4.935605   12.935605    ( 0.0000,  0.0000,  0.0000)
  39 Li    12.215000    4.935605   12.935605    ( 0.0000,  0.0000,  0.0000)
  40 Li     0.000000    7.403408   12.935605    ( 0.0000,  0.0000,  0.0000)
  41 Li     3.490000    7.403408   12.935605    ( 0.0000,  0.0000,  0.0000)
  42 Li     6.980000    7.403408   12.935605    ( 0.0000,  0.0000,  0.0000)
  43 Li    10.470000    7.403408   12.935605    ( 0.0000,  0.0000,  0.0000)
  44 Li     1.745000    9.871211   12.935605    ( 0.0000,  0.0000,  0.0000)
  45 Li     5.235000    9.871211   12.935605    ( 0.0000,  0.0000,  0.0000)
  46 Li     8.725000    9.871211   12.935605    ( 0.0000,  0.0000,  0.0000)
  47 Li    12.215000    9.871211   12.935605    ( 0.0000,  0.0000,  0.0000)
  48 Li     0.001390    0.007663   15.418718    ( 0.0000,  0.0000,  0.0000)
  49 Li     3.490720    0.007958   15.419740    ( 0.0000,  0.0000,  0.0000)
  50 Li     6.980495    0.010512   15.415523    ( 0.0000,  0.0000,  0.0000)
  51 Li    10.467311    0.006636   15.421401    ( 0.0000,  0.0000,  0.0000)
  52 Li     1.746261    2.459347   15.419713    ( 0.0000,  0.0000,  0.0000)
  53 Li     5.234641    2.455638   15.417196    ( 0.0000,  0.0000,  0.0000)
  54 Li     8.724988    2.457819   15.417452    ( 0.0000,  0.0000,  0.0000)
  55 Li    12.214132    2.459330   15.419726    ( 0.0000,  0.0000,  0.0000)
  56 Li    -0.000067    4.944246   15.407246    ( 0.0000,  0.0000,  0.0000)
  57 Li     3.485107    4.938984   15.407144    ( 0.0000,  0.0000,  0.0000)
  58 Li     6.981874    4.936436   15.417500    ( 0.0000,  0.0000,  0.0000)
  59 Li    10.473418    4.942408   15.404556    ( 0.0000,  0.0000,  0.0000)
  60 Li     1.743817    7.398461   15.404551    ( 0.0000,  0.0000,  0.0000)
  61 Li     5.232376    7.403559   15.403394    ( 0.0000,  0.0000,  0.0000)
  62 Li     8.729443    7.402551   15.399304    ( 0.0000,  0.0000,  0.0000)
  63 Li    12.213926    7.394453   15.409937    ( 0.0000,  0.0000,  0.0000)
  64 Li    -0.000155    2.486018   17.986957    ( 0.0000,  0.0000,  0.0000)
  65 Li     3.486666    2.481867   17.991487    ( 0.0000,  0.0000,  0.0000)
  66 Li     6.981033    2.481680   18.003048    ( 0.0000,  0.0000,  0.0000)
  67 Li    10.470883    2.485856   17.988589    ( 0.0000,  0.0000,  0.0000)
  68 Li     1.742696    4.969515   17.885332    ( 0.0000,  0.0000,  0.0000)
  69 Li     5.226918    4.954223   17.887820    ( 0.0000,  0.0000,  0.0000)
  70 Li     8.742530    4.966252   17.861647    ( 0.0000,  0.0000,  0.0000)
  71 Li    12.214019    4.965244   17.891547    ( 0.0000,  0.0000,  0.0000)
  72 Li     0.002691    7.372137   17.894614    ( 0.0000,  0.0000,  0.0000)
  73 Li     3.486604    7.383400   17.877119    ( 0.0000,  0.0000,  0.0000)
  74 Li     6.984559    7.397853   17.851617    ( 0.0000,  0.0000,  0.0000)
  75 Li    10.464661    7.371976   17.895038    ( 0.0000,  0.0000,  0.0000)
  76 Li     1.745926    9.852537   17.987461    ( 0.0000,  0.0000,  0.0000)
  77 Li     5.234848    9.844279   17.997225    ( 0.0000,  0.0000,  0.0000)
  78 Li     8.724521    9.850928   17.991654    ( 0.0000,  0.0000,  0.0000)
  79 Li    12.214482    9.853188   17.987981    ( 0.0000,  0.0000,  0.0000)
  80 Li    -0.000254    4.802548   20.394939    ( 0.0000,  0.0000,  0.0000)
  81 Li     3.520798    4.808825   20.416991    ( 0.0000,  0.0000,  0.0000)
  82 Li     7.141722    4.947063   19.941101    ( 0.0000,  0.0000,  0.0000)
  83 Li    10.438644    4.794119   20.425235    ( 0.0000,  0.0000,  0.0000)
  84 Li     1.744003    7.536199   20.398829    ( 0.0000,  0.0000,  0.0000)
  85 Li     5.253189    7.458803   20.464102    ( 0.0000,  0.0000,  0.0000)
  86 Li     8.698567    7.501663   20.442844    ( 0.0000,  0.0000,  0.0000)
  87 Li    12.217186    7.537037   20.395124    ( 0.0000,  0.0000,  0.0000)
  88 Li     5.950312    4.406465   22.698567    ( 0.0000,  0.0000,  0.0000)

Unit cell:
           periodic     x           y           z      points  spacing
  1. axis:    yes   13.960000    0.000000    0.000000    68     0.2053
  2. axis:    yes    0.000000    9.871211    0.000000    48     0.2057
  3. axis:    no     0.000000    0.000000   28.339013   140     0.2024

  Lengths:  13.960000   9.871211  28.339013
  Angles:   90.000000  90.000000  90.000000

Effective grid spacing dv^(1/3) = 0.2045

     iter     time        total  log10-change:
                         energy   eigst   dens
iter:   1 19:11:23  -142.356870        c
iter:   2 19:11:25  -142.642356        c -1.33
iter:   3 19:11:28  -142.098675        c -1.10
iter:   4 19:11:31  -142.095330        c -2.19
iter:   5 19:11:34  -142.094606c       c -2.55
iter:   6 19:11:36  -142.094368c       c -2.81
iter:   7 19:11:39  -142.094170c       c -2.92
iter:   8 19:11:42  -142.094044c       c -3.11
iter:   9 19:11:45  -142.094369c       c -3.20
iter:  10 19:11:48  -142.094068c       c -3.14
iter:  11 19:11:51  -142.094087c       c -3.53
iter:  12 19:11:53  -142.094094c       c -3.68
iter:  13 19:11:56  -142.094096c       c -3.78
iter:  14 19:11:59  -142.094106c       c -3.93
iter:  15 19:12:02  -142.094091c       c -4.08c

Converged after 15 iterations.

Dipole moment: (-9.880727, -13.269365, 1.226620) |e|*Ang

Energy contributions relative to reference atoms: (reference = -18048.116001)

Kinetic:       +266.682452
Potential:     -221.802910
External:        +0.000000
XC:            -185.560429
Entropy (-ST):   -1.668983
Local:           -0.578713
SIC:             +0.000000
--------------------------
Free energy:   -142.928583
Extrapolated:  -142.094091

Showing all kpts
 Kpt  Band  Eigenvalues  Occupancy
  0    42     -2.63845    1.18065
  0    43     -2.62196    1.09990
  0    44     -2.58007    0.89121
  0    45     -2.54708    0.73247

  1    42     -2.63156    1.14712
  1    43     -2.62413    1.11063
  1    44     -2.57925    0.88713
  1    45     -2.55262    0.75841


Fermi level: -2.60192

Gap: 0.042 eV
Transition (v -> c):
  (s=0, k=0, n=43, [0.25, -0.25, 0.00]) -> (s=0, k=0, n=44, [0.25, -0.25, 0.00])
No difference between direct/indirect transitions

Forces in eV/Ang:
  0 Li    0.00084   -0.00143   -0.16960
  1 Li    0.00143   -0.00776   -0.17349
  2 Li   -0.00035   -0.00967   -0.17321
  3 Li   -0.00180   -0.00462   -0.17181
  4 Li   -0.00083   -0.00648   -0.16175
  5 Li   -0.00086   -0.00577   -0.16461
  6 Li    0.00067   -0.00615   -0.16297
  7 Li    0.00044   -0.00843   -0.16020
  8 Li    0.00335    0.00396   -0.16076
  9 Li    0.00095    0.00981   -0.16388
 10 Li    0.00009    0.01066   -0.16450
 11 Li   -0.00404    0.00754   -0.16036
 12 Li    0.00499    0.00377   -0.17043
 13 Li    0.00010    0.00476   -0.17438
 14 Li   -0.00248    0.00397   -0.17148
 15 Li   -0.00249    0.00580   -0.17053
 16 Li    0.00041   -0.00193   -0.07514
 17 Li    0.00025   -0.00214   -0.07415
 18 Li    0.00013   -0.00351   -0.06841
 19 Li   -0.00050   -0.00135   -0.07899
 20 Li    0.00063    0.00147   -0.07388
 21 Li    0.00078    0.00486   -0.07945
 22 Li   -0.00156    0.00255   -0.07677
 23 Li    0.00032    0.00254   -0.07241
 24 Li   -0.00046   -0.00248   -0.07895
 25 Li    0.00172   -0.00168   -0.07001
 26 Li   -0.00055   -0.00250   -0.07185
 27 Li   -0.00131   -0.00184   -0.07129
 28 Li    0.00091    0.00133   -0.07154
 29 Li    0.00068    0.00125   -0.07179
 30 Li   -0.00209    0.00104   -0.07005
 31 Li    0.00064    0.00217   -0.07904
 32 Li    0.00063    0.01025    0.00695
 33 Li    0.00211   -0.00018    0.00737
 34 Li   -0.00155    0.00248    0.00800
 35 Li   -0.00107    0.00310    0.00714
 36 Li   -0.00579   -0.01276   -0.00219
 37 Li    0.00366   -0.01382    0.01469
 38 Li   -0.00398   -0.01251    0.01077
 39 Li    0.00548   -0.01251   -0.00485
 40 Li   -0.00418    0.01263   -0.00009
 41 Li   -0.00697    0.01292    0.00318
 42 Li    0.00182    0.00702    0.01759
 43 Li    0.00875    0.01609   -0.00893
 44 Li    0.00383   -0.00555   -0.00104
 45 Li   -0.00040    0.00431   -0.01184
 46 Li    0.00108   -0.00038   -0.00986
 47 Li   -0.00344   -0.01119    0.01153
 48 Li    0.00145   -0.00046    0.10656
 49 Li    0.00234    0.00119    0.10718
 50 Li   -0.00177    0.00717    0.09922
 51 Li    0.00064   -0.00264    0.11072
 52 Li   -0.00203   -0.00253    0.10350
 53 Li   -0.00111   -0.00960    0.11772
 54 Li    0.00148   -0.00596    0.10964
 55 Li    0.00132    0.00014    0.10559
 56 Li   -0.00441   -0.01529    0.01742
 57 Li   -0.00891   -0.01625    0.01506
 58 Li   -0.00404   -0.01736    0.08509
 59 Li    0.01729   -0.01336   -0.00659
 60 Li   -0.00502    0.01885    0.01170
 61 Li   -0.00696    0.01693   -0.00672
 62 Li    0.01267    0.01888   -0.00798
 63 Li   -0.00289    0.01369    0.03110
 64 Li    0.00113    0.00818    0.16848
 65 Li   -0.01589    0.00393    0.17140
 66 Li    0.00465   -0.06791    0.14120
 67 Li   -0.01644    0.02656    0.18872
 68 Li    0.01374    0.02538    0.09069
 69 Li   -0.13970    0.03919   -0.10361
 70 Li    0.24610    0.03522   -0.25768
 71 Li   -0.01426    0.02023    0.10111
 72 Li   -0.00109   -0.01615    0.07919
 73 Li    0.02600   -0.02558    0.10150
 74 Li   -0.01112    0.06967   -0.00091
 75 Li   -0.04774   -0.04128    0.13378
 76 Li   -0.01072   -0.01113    0.16912
 77 Li   -0.00637   -0.03887    0.20723
 78 Li    0.01115   -0.02103    0.18921
 79 Li    0.00713   -0.01218    0.16670
 80 Li    0.00814   -0.08514    0.10041
 81 Li    0.07899   -0.09692    0.14443
 82 Li   -0.20133   -0.12317    0.54876
 83 Li    0.01882   -0.10586    0.12207
 84 Li    0.01245    0.08261    0.10333
 85 Li    0.02146   -0.04152    0.17859
 86 Li    0.01540    0.12977    0.14431
 87 Li   -0.00959    0.08164    0.09673
 88 Li    0.00789    0.17210   -0.16822

System changes: positions 

Initializing position-dependent things.

Density initialized from wave functions
       .---------------------------------.  
      /|                                 |  
     / |                                 |  
    /  |                                 |  
   /   |                                 |  
  /    |                                 |  
 *     |                                 |  
 |     |                                 |  
 |     |                                 |  
 |     |                                 |  
 |     |          Li                     |  
 |     |  Li      Li       Li      Li    |  
 |     |                                 |  
 |     |   LiLi     LLi     LLi      LLi |  
 |   Li|      Li       Li      Li        |  
 |     |                                 |  
 |     |Li       Li      Li       Li     |  
 |     |  LLi     LiLi     LLi     LiLi  |  
 |     |                                 |  
 |     |    Li       Li       Li      Li |  
 |     Li      Li       Li      Li       |  
 |    Li      Li       Li      Li        |  
 Li    |LiLi     LLi     LLi      Li     |  
 |     |                                 |  
 |Li   |  LLi     LLi      LLi     Li    |  
 |  LLi|     LLi     LLi      LLi        |  
 |     |                                 |  
 |    LLi     LLi      LLi     LLi       |  
 Li    |LLi      LLi     LiLi     Li     |  
 |     |                                 |  
 |Li   |   Li      Li       Li           |  
 |   Li|      Li      Li       Li        |  
 |     |                                 |  
 |     |                                 |  
 |     |                                 |  
 |     .---------------------------------.  
 |    /                                 /   
 |   /                                 /    
 |  /                                 /     
 | /                                 /      
 |/                                 /       
 *---------------------------------*        

Atomic positions and initial magnetic moments

Positions:
   0 Li     0.000000    2.467803    8.000000    ( 0.0000,  0.0000,  0.0000)
   1 Li     3.490000    2.467803    8.000000    ( 0.0000,  0.0000,  0.0000)
[...]
 87 Li   -0.00426   -0.01748   -0.01735
 88 Li    0.01096    0.03449   -0.02904

System changes: positions 

Initializing position-dependent things.

Density initialized from wave functions
       .---------------------------------.  
      /|                                 |  
     / |                                 |  
    /  |                                 |  
   /   |                                 |  
  /    |                                 |  
 *     |                                 |  
 |     |                                 |  
 |     |            Li                   |  
 |     |                                 |  
 |     |  Li              Li       Li    |  
 |     |          Li                     |  
 |  Li |   LiLi     Li      LLi      Li  |  
 |     |             Li                  |  
 |   Li|      Li      Li       Li        |  
 |     |Li               Li     LiLi     |  
 |     |         Li                      |  
 | Li  |  LLi     LLi      LLi     Li    |  
 |     |                                 |  
 |  Li |    Li       Li       Li         |  
 |     Li      Li       Li      Li       |  
 |    Li  Li  Li  Li   Li      Li        |  
 Li    |Li       Li      Li       Li     |  
 |     |                                 |  
 |Li   |  LLi     LLi      LLi     Li    |  
 |  LLi|     LLi     LLi      LLi        |  
 |     |                                 |  
 |    LLi     LLi      LLi     LLi       |  
 Li    |LLi      LLi     LiLi     Li     |  
 |     |                                 |  
 |Li   |   Li      Li       Li           |  
 |   Li|      Li      Li       Li        |  
 |     |                                 |  
 |     |                                 |  
 |     |                                 |  
 |     .---------------------------------.  
 |    /                                 /   
 |   /                                 /    
 |  /                                 /     
 | /                                 /      
 |/                                 /       
 *---------------------------------*        

Atomic positions and initial magnetic moments

Positions:
   0 Li     0.000000    2.467803    8.000000    ( 0.0000,  0.0000,  0.0000)
   1 Li     3.490000    2.467803    8.000000    ( 0.0000,  0.0000,  0.0000)
   2 Li     6.980000    2.467803    8.000000    ( 0.0000,  0.0000,  0.0000)
   3 Li    10.470000    2.467803    8.000000    ( 0.0000,  0.0000,  0.0000)
   4 Li     1.745000    4.935605    8.000000    ( 0.0000,  0.0000,  0.0000)
   5 Li     5.235000    4.935605    8.000000    ( 0.0000,  0.0000,  0.0000)
   6 Li     8.725000    4.935605    8.000000    ( 0.0000,  0.0000,  0.0000)
   7 Li    12.215000    4.935605    8.000000    ( 0.0000,  0.0000,  0.0000)
   8 Li     0.000000    7.403408    8.000000    ( 0.0000,  0.0000,  0.0000)
   9 Li     3.490000    7.403408    8.000000    ( 0.0000,  0.0000,  0.0000)
  10 Li     6.980000    7.403408    8.000000    ( 0.0000,  0.0000,  0.0000)
  11 Li    10.470000    7.403408    8.000000    ( 0.0000,  0.0000,  0.0000)
  12 Li     1.745000    9.871211    8.000000    ( 0.0000,  0.0000,  0.0000)
  13 Li     5.235000    9.871211    8.000000    ( 0.0000,  0.0000,  0.0000)
  14 Li     8.725000    9.871211    8.000000    ( 0.0000,  0.0000,  0.0000)
  15 Li    12.215000    9.871211    8.000000    ( 0.0000,  0.0000,  0.0000)
  16 Li     0.000000    0.000000   10.467803    ( 0.0000,  0.0000,  0.0000)
  17 Li     3.490000    0.000000   10.467803    ( 0.0000,  0.0000,  0.0000)
  18 Li     6.980000    0.000000   10.467803    ( 0.0000,  0.0000,  0.0000)
  19 Li    10.470000    0.000000   10.467803    ( 0.0000,  0.0000,  0.0000)
  20 Li     1.745000    2.467803   10.467803    ( 0.0000,  0.0000,  0.0000)
  21 Li     5.235000    2.467803   10.467803    ( 0.0000,  0.0000,  0.0000)
  22 Li     8.725000    2.467803   10.467803    ( 0.0000,  0.0000,  0.0000)
  23 Li    12.215000    2.467803   10.467803    ( 0.0000,  0.0000,  0.0000)
  24 Li     0.000000    4.935605   10.467803    ( 0.0000,  0.0000,  0.0000)
  25 Li     3.490000    4.935605   10.467803    ( 0.0000,  0.0000,  0.0000)
  26 Li     6.980000    4.935605   10.467803    ( 0.0000,  0.0000,  0.0000)
  27 Li    10.470000    4.935605   10.467803    ( 0.0000,  0.0000,  0.0000)
  28 Li     1.745000    7.403408   10.467803    ( 0.0000,  0.0000,  0.0000)
  29 Li     5.235000    7.403408   10.467803    ( 0.0000,  0.0000,  0.0000)
  30 Li     8.725000    7.403408   10.467803    ( 0.0000,  0.0000,  0.0000)
  31 Li    12.215000    7.403408   10.467803    ( 0.0000,  0.0000,  0.0000)
  32 Li     0.000000    2.467803   12.935605    ( 0.0000,  0.0000,  0.0000)
  33 Li     3.490000    2.467803   12.935605    ( 0.0000,  0.0000,  0.0000)
  34 Li     6.980000    2.467803   12.935605    ( 0.0000,  0.0000,  0.0000)
  35 Li    10.470000    2.467803   12.935605    ( 0.0000,  0.0000,  0.0000)
  36 Li     1.745000    4.935605   12.935605    ( 0.0000,  0.0000,  0.0000)
  37 Li     5.235000    4.935605   12.935605    ( 0.0000,  0.0000,  0.0000)
  38 Li     8.725000    4.935605   12.935605    ( 0.0000,  0.0000,  0.0000)
  39 Li    12.215000    4.935605   12.935605    ( 0.0000,  0.0000,  0.0000)
  40 Li     0.000000    7.403408   12.935605    ( 0.0000,  0.0000,  0.0000)
  41 Li     3.490000    7.403408   12.935605    ( 0.0000,  0.0000,  0.0000)
  42 Li     6.980000    7.403408   12.935605    ( 0.0000,  0.0000,  0.0000)
  43 Li    10.470000    7.403408   12.935605    ( 0.0000,  0.0000,  0.0000)
  44 Li     1.745000    9.871211   12.935605    ( 0.0000,  0.0000,  0.0000)
  45 Li     5.235000    9.871211   12.935605    ( 0.0000,  0.0000,  0.0000)
  46 Li     8.725000    9.871211   12.935605    ( 0.0000,  0.0000,  0.0000)
  47 Li    12.215000    9.871211   12.935605    ( 0.0000,  0.0000,  0.0000)
  48 Li     0.017189    0.001080   15.779321    ( 0.0000,  0.0000,  0.0000)
  49 Li     3.506757    0.001821   15.835062    ( 0.0000,  0.0000,  0.0000)
  50 Li     6.960685    0.002654   15.833069    ( 0.0000,  0.0000,  0.0000)
  51 Li    10.433787   -0.003497   15.815696    ( 0.0000,  0.0000,  0.0000)
  52 Li     1.734192    2.442810   15.719693    ( 0.0000,  0.0000,  0.0000)
  53 Li     5.224074    2.447705   15.658513    ( 0.0000,  0.0000,  0.0000)
  54 Li     8.743944    2.431191   15.707635    ( 0.0000,  0.0000,  0.0000)
  55 Li    12.202628    2.440158   15.749616    ( 0.0000,  0.0000,  0.0000)
  56 Li     0.005315    4.932584   15.672636    ( 0.0000,  0.0000,  0.0000)
  57 Li     3.452826    4.933001   15.587830    ( 0.0000,  0.0000,  0.0000)
  58 Li     6.995467    4.930974   15.570410    ( 0.0000,  0.0000,  0.0000)
  59 Li    10.480632    4.937876   15.623507    ( 0.0000,  0.0000,  0.0000)
  60 Li     1.733569    7.398083   15.671176    ( 0.0000,  0.0000,  0.0000)
  61 Li     5.224351    7.387214   15.597354    ( 0.0000,  0.0000,  0.0000)
  62 Li     8.742762    7.401304   15.642507    ( 0.0000,  0.0000,  0.0000)
  63 Li    12.199693    7.393479   15.710894    ( 0.0000,  0.0000,  0.0000)
  64 Li     0.002997    2.474950   18.471777    ( 0.0000,  0.0000,  0.0000)
  65 Li     3.500836    2.467661   18.418732    ( 0.0000,  0.0000,  0.0000)
  66 Li     6.952391    2.444992   18.350347    ( 0.0000,  0.0000,  0.0000)
  67 Li    10.438631    2.488443   18.546786    ( 0.0000,  0.0000,  0.0000)
  68 Li     1.796709    4.963384   18.380083    ( 0.0000,  0.0000,  0.0000)
  69 Li     5.231372    4.948568   18.180897    ( 0.0000,  0.0000,  0.0000)
  70 Li     8.718071    4.944719   18.223188    ( 0.0000,  0.0000,  0.0000)
  71 Li    12.202775    4.959449   18.336438    ( 0.0000,  0.0000,  0.0000)
  72 Li     0.006714    7.325897   18.414022    ( 0.0000,  0.0000,  0.0000)
  73 Li     3.519522    7.345737   18.320427    ( 0.0000,  0.0000,  0.0000)
  74 Li     6.975377    7.361992   18.285158    ( 0.0000,  0.0000,  0.0000)
  75 Li    10.409529    7.308784   18.479568    ( 0.0000,  0.0000,  0.0000)
  76 Li     1.729146    9.826391   18.626920    ( 0.0000,  0.0000,  0.0000)
  77 Li     5.216583    9.814833   18.726532    ( 0.0000,  0.0000,  0.0000)
  78 Li     8.729015    9.817272   18.688650    ( 0.0000,  0.0000,  0.0000)
  79 Li    12.201400    9.830366   18.492686    ( 0.0000,  0.0000,  0.0000)
  80 Li     0.014616    4.741603   20.955044    ( 0.0000,  0.0000,  0.0000)
  81 Li     3.690173    4.620973   21.068208    ( 0.0000,  0.0000,  0.0000)
  82 Li     7.021922    4.590366   20.810779    ( 0.0000,  0.0000,  0.0000)
  83 Li    10.410973    4.796619   21.015443    ( 0.0000,  0.0000,  0.0000)
  84 Li     1.871016    7.466769   21.033160    ( 0.0000,  0.0000,  0.0000)
  85 Li     5.263884    7.381352   21.029522    ( 0.0000,  0.0000,  0.0000)
  86 Li     8.510473    7.436521   21.214653    ( 0.0000,  0.0000,  0.0000)
  87 Li    12.213273    7.651658   21.020758    ( 0.0000,  0.0000,  0.0000)
  88 Li     6.198564    5.770383   23.527896    ( 0.0000,  0.0000,  0.0000)

Unit cell:
           periodic     x           y           z      points  spacing
  1. axis:    yes   13.960000    0.000000    0.000000    68     0.2053
  2. axis:    yes    0.000000    9.871211    0.000000    48     0.2057
  3. axis:    no     0.000000    0.000000   28.339013   140     0.2024

  Lengths:  13.960000   9.871211  28.339013
  Angles:   90.000000  90.000000  90.000000

Effective grid spacing dv^(1/3) = 0.2045

     iter     time        total  log10-change:
                         energy   eigst   dens
iter:   1 19:44:17  -143.409791        c
iter:   2 19:44:20  -143.453653        c -1.94
iter:   3 19:44:23  -143.405360        c -1.71
iter:   4 19:44:25  -143.405396        c -2.99
iter:   5 19:44:28  -143.405327c       c -3.11
iter:   6 19:44:31  -143.405256c       c -3.24
iter:   7 19:44:34  -143.405243c       c -3.45
iter:   8 19:44:37  -143.405188c       c -3.66
iter:   9 19:44:39  -143.405348c       c -3.75
iter:  10 19:44:42  -143.405225c       c -3.67
iter:  11 19:44:45  -143.405231c       c -3.95
iter:  12 19:44:48  -143.405229c       c -4.07c

Converged after 12 iterations.

Dipole moment: (-10.596806, -11.182848, 1.256712) |e|*Ang

Energy contributions relative to reference atoms: (reference = -18048.116001)

Kinetic:       +228.983277
Potential:     -194.696862
External:        +0.000000
XC:            -176.344002
Entropy (-ST):   -1.607596
Local:           -0.543845
SIC:             +0.000000
--------------------------
Free energy:   -144.209027
Extrapolated:  -143.405229

Showing all kpts
 Kpt  Band  Eigenvalues  Occupancy
  0    42     -2.64691    1.31942
  0    43     -2.55392    0.86686
  0    44     -2.53143    0.75847
  0    45     -2.51567    0.68581

  1    42     -2.64590    1.31490
  1    43     -2.56650    0.92909
  1    44     -2.52681    0.73686
  1    45     -2.51673    0.69061


Fermi level: -2.58071

Gap: 0.079 eV
Transition (v -> c):
  (s=0, k=1, n=42, [0.25, 0.25, 0.00]) -> (s=0, k=1, n=43, [0.25, 0.25, 0.00])
No difference between direct/indirect transitions

Forces in eV/Ang:
  0 Li    0.00023   -0.00446   -0.17038
  1 Li    0.00102   -0.00255   -0.17267
  2 Li   -0.00034   -0.00271   -0.17324
  3 Li   -0.00125   -0.00290   -0.17258
  4 Li    0.00295   -0.00515   -0.16404
  5 Li    0.00014   -0.00373   -0.16619
  6 Li   -0.00065   -0.00462   -0.16560
  7 Li   -0.00241   -0.00679   -0.16553
  8 Li    0.00218    0.00449   -0.16364
  9 Li    0.00147    0.00269   -0.16490
 10 Li   -0.00063    0.00239   -0.16603
 11 Li   -0.00307    0.00322   -0.16266
 12 Li    0.00156    0.00485   -0.17040
 13 Li    0.00053    0.00399   -0.17303
 14 Li   -0.00103    0.00442   -0.17266
 15 Li   -0.00064    0.00663   -0.16875
 16 Li   -0.00095   -0.00204   -0.08444
 17 Li    0.00051   -0.00202   -0.09743
 18 Li    0.00015   -0.00287   -0.09631
 19 Li    0.00063   -0.00175   -0.09548
 20 Li   -0.00112    0.00090   -0.09206
 21 Li    0.00043    0.00119   -0.08677
 22 Li   -0.00042    0.00138   -0.09015
 23 Li    0.00071    0.00128   -0.08780
 24 Li   -0.00208   -0.00354   -0.09454
 25 Li   -0.00139   -0.00517   -0.07962
 26 Li    0.00097   -0.00597   -0.07427
 27 Li    0.00280   -0.00463   -0.08762
 28 Li   -0.00205    0.00505   -0.09041
 29 Li    0.00019    0.00718   -0.07806
 30 Li   -0.00031    0.00631   -0.08305
 31 Li    0.00175    0.00412   -0.09325
 32 Li   -0.00401    0.00480    0.29295
 33 Li   -0.01717   -0.01714    0.25676
 34 Li    0.01199   -0.02425    0.25824
 35 Li    0.00649   -0.00781    0.27529
 36 Li   -0.02389   -0.00752    0.20456
 37 Li   -0.01246   -0.01367    0.18386
 38 Li    0.02495   -0.01042    0.19499
 39 Li    0.01300   -0.00568    0.24584
 40 Li   -0.00935    0.00089    0.27286
 41 Li   -0.02790    0.02053    0.22470
 42 Li    0.01551    0.02513    0.22523
 43 Li    0.01700    0.01269    0.23958
 44 Li    0.02135    0.00132    0.32582
 45 Li    0.00104    0.00851    0.30890
 46 Li   -0.01061    0.00488    0.32235
 47 Li   -0.01372   -0.00329    0.34685
 48 Li   -0.00987   -0.01434   -0.00417
 49 Li   -0.00318   -0.00834   -0.00012
 50 Li    0.00249   -0.01777   -0.00454
 51 Li    0.01194   -0.01444   -0.00012
 52 Li    0.00682    0.00845    0.00381
 53 Li   -0.00479    0.01432    0.00384
 54 Li   -0.00336    0.02209   -0.00387
 55 Li   -0.00611    0.00741   -0.01116
 56 Li    0.00212   -0.00635   -0.01396
 57 Li    0.01108   -0.01242    0.00421
 58 Li   -0.00910   -0.01501   -0.00608
 59 Li    0.00591   -0.01525   -0.01052
 60 Li   -0.00121    0.00829   -0.01099
 61 Li    0.00408    0.01252   -0.00796
 62 Li   -0.00090    0.00835   -0.01471
 63 Li   -0.00290    0.01897   -0.01786
 64 Li   -0.00663    0.03245    0.00702
 65 Li    0.00368    0.03581    0.02428
 66 Li    0.00431    0.02338    0.01084
 67 Li    0.00339    0.03310    0.00250
 68 Li    0.00843   -0.02179    0.00569
 69 Li   -0.00060   -0.02493    0.01233
 70 Li   -0.00704   -0.02806    0.00544
 71 Li   -0.00238   -0.01880    0.01941
 72 Li    0.00106    0.02969   -0.00217
 73 Li   -0.00973    0.03604   -0.00507
 74 Li    0.00919    0.02568   -0.00484
 75 Li    0.00038    0.04160   -0.00670
 76 Li   -0.01058   -0.03540    0.00541
 77 Li    0.00450   -0.02002    0.00777
 78 Li   -0.00616   -0.02986    0.01920
 79 Li    0.00698   -0.01648    0.00314
 80 Li   -0.01249   -0.00575    0.00279
 81 Li   -0.00214    0.00182    0.00650
 82 Li   -0.00800   -0.00874    0.01284
 83 Li    0.02052   -0.01190   -0.00725
 84 Li   -0.00416    0.00219   -0.00108
 85 Li    0.00263   -0.00709   -0.04357
 86 Li    0.00644   -0.01168   -0.02739
 87 Li   -0.00417   -0.02171   -0.00736
 88 Li    0.01024    0.02162   -0.01872

Timing:                                       incl.     excl.
--------------------------------------------------------------------
Basic WFS set positions:                      0.084     0.040   0.0% |
 Redistribute:                                0.044     0.044   0.0% |
Basis functions set positions:                2.412     2.412   0.1% |
Forces:                                     365.645    21.527   0.5% |
 LCAO forces:                               344.118     0.147   0.0% |
  Atomic Hamiltonian force:                  13.907    13.907   0.3% |
  Initial:                                    0.125     0.000   0.0% |
   Get density matrix:                        0.125     0.125   0.0% |
  Paw correction:                            13.423    13.423   0.3% |
  Potential:                                287.559   287.559   6.9% |--|
  TCI derivative:                            28.956    28.956   0.7% |
  Wait for sum:                               0.000     0.000   0.0% |
LCAO WFS Initialize:                        102.550     0.073   0.0% |
 Density initialized from wave functions:    47.859     1.982   0.0% |
  Calculate density matrix:                   0.062     0.062   0.0% |
  Construct density:                         45.815    45.815   1.1% |
  Symmetrize density:                         0.000     0.000   0.0% |
 Hamiltonian:                                54.618     0.002   0.0% |
  Atomic:                                    26.115     0.090   0.0% |
   XC Correction:                            26.025    26.025   0.6% |
  Calculate atomic Hamiltonians:              1.387     1.387   0.0% |
  Communicate:                                0.000     0.000   0.0% |
  Hartree integrate/restrict:                 0.412     0.412   0.0% |
  Initialize Hamiltonian:                     0.000     0.000   0.0% |
  Poisson:                                   10.818     0.332   0.0% |
   Communicate from 1D:                       1.147     1.147   0.0% |
   Communicate from 2D:                       1.062     1.062   0.0% |
   Communicate to 1D:                         0.768     0.768   0.0% |
   Communicate to 2D:                         1.107     1.107   0.0% |
   FFT 1D:                                    3.173     3.173   0.1% |
   FFT 2D:                                    3.230     3.230   0.1% |
  XC 3D grid:                                15.786    15.786   0.4% |
  vbar:                                       0.097     0.097   0.0% |
P tci:                                       13.673    13.673   0.3% |
Redistribute:                                 0.007     0.007   0.0% |
SCF-cycle:                                 1751.018     0.228   0.0% |
 Density:                                   592.879     0.005   0.0% |
  Atomic density matrices:                    1.274     1.274   0.0% |
  Mix:                                       27.458    27.458   0.7% |
  Multipole moments:                          0.258     0.258   0.0% |
  Normalize:                                  0.102     0.102   0.0% |
  Pseudo density:                           563.782     0.244   0.0% |
   Calculate density matrix:                  0.720     0.720   0.0% |
   Construct density:                       562.813   562.813  13.5% |----|
   Symmetrize density:                        0.005     0.005   0.0% |
 Hamiltonian:                               664.158     0.026   0.0% |
  Atomic:                                   317.812     1.128   0.0% |
   XC Correction:                           316.684   316.684   7.6% |--|
  Calculate atomic Hamiltonians:             16.985    16.985   0.4% |
  Communicate:                                0.002     0.002   0.0% |
  Hartree integrate/restrict:                 5.051     5.051   0.1% |
  Poisson:                                  130.562     3.884   0.1% |
   Communicate from 1D:                      13.191    13.191   0.3% |
   Communicate from 2D:                      12.870    12.870   0.3% |
   Communicate to 1D:                         9.472     9.472   0.2% |
   Communicate to 2D:                        13.128    13.128   0.3% |
   FFT 1D:                                   38.668    38.668   0.9% |
   FFT 2D:                                   39.349    39.349   0.9% |
  XC 3D grid:                               192.584   192.584   4.6% |-|
  vbar:                                       1.136     1.136   0.0% |
 LCAO eigensolver:                          493.753     0.127   0.0% |
  Calculate projections:                      2.416     2.416   0.1% |
  DenseAtomicCorrection:                     34.191    34.191   0.8% |
  Distribute overlap matrix:                  0.235     0.235   0.0% |
  Orbital Layouts:                           52.068    52.068   1.3% ||
  Potential matrix:                         402.496   402.496   9.7% |---|
  Sum over cells:                             2.219     2.219   0.1% |
ST tci:                                       5.917     5.917   0.1% |
Set symmetry:                                 0.000     0.000   0.0% |
TCI: Evaluate splines:                        0.003     0.003   0.0% |
mktci:                                        0.805     0.805   0.0% |
Other:                                     1918.882  1918.882  46.1% |-----------------|
--------------------------------------------------------------------
Total:                                               4160.995 100.0%

Memory usage: 1.92 GiB
Date: Mon Dec  1 20:16:38 2025
