
  ___ ___ ___ _ _ _  
 |   |   |_  | | | | 
 | | | | | . | | | | 
 |__ |  _|___|_____|  25.7.0
 |___|_|             

User:   tew@Mathuss-MacBook-Air-357.local
Date:   Mon Dec  1 20:16:38 2025
Arch:   arm64
Pid:    60975
CWD:    /Users/tew/Documents/Project/GitHub/chem-com/step_v4
Python: 3.13.5
gpaw:   /Users/tew/Documents/Project/GitHub/chem-com/.venv/lib/python3.13/site-packages/gpaw
_gpaw:  /Users/tew/Documents/Project/GitHub/chem-com/.venv/lib/python3.13/site-packages/
        _gpaw.cpython-313-darwin.so
ase:    /Users/tew/Documents/Project/GitHub/chem-com/.venv/lib/python3.13/site-packages/ase (version 3.26.0)
numpy:  /Users/tew/Documents/Project/GitHub/chem-com/.venv/lib/python3.13/site-packages/numpy (version 2.2.6)
scipy:  /Users/tew/Documents/Project/GitHub/chem-com/.venv/lib/python3.13/site-packages/scipy (version 1.16.3)
libxc:  2.x.y
units:  Angstrom and eV
cores: 1
OpenMP: False
OMP_NUM_THREADS: 1

Input parameters:
  kpts: [2 2 1]
  mode: {interpolation: 3,
         name: lcao}
  occupations: {name: fermi-dirac,
                width: 0.1}
  xc: PBE

System changes: positions, numbers, cell, pbc, initial_charges, initial_magmoms 

Initialize ...

species:
  Li:
    name: Lithium
    id: 830b4218f175192f93f959cfc0aad614
    Z: 3.0
    valence: 1
    core: 2
    charge: 0.0
    file: /Users/tew/Documents/Project/GitHub/chem-com/.venv/lib/python3.13/site-packages/gpaw_data/setups/Li.PBE.gz
    compensation charges: {type: gauss,
                           rc: 0.33,
                           lmax: 2}
    cutoffs: {filter: 1.91,
              core: 2.55}
    projectors:
      #              energy  rcut
      - 2s(1.00)    -2.874   1.058
      - 2p(0.00)    -1.090   1.058
      -  s          24.337   1.058
  
    # Using partial waves for Li as LCAO basis

Reference energy: -18048.116001  # eV

Spin-paired calculation

Convergence criteria:
 Maximum [total energy] change in last 3 cyles: 0.0005 eV / valence electron
 Maximum integral of absolute [dens]ity change: 0.0001 electrons / valence electron
 Maximum integral of absolute [eigenst]ate change: 4e-08 eV^2 / valence electron
 Maximum number of scf [iter]ations: 333
 (Square brackets indicate name in SCF output, whereas a 'c' in
 the SCF output indicates the quantity has converged.)

Symmetries present (total): 1

  ( 1  0  0)
  ( 0  1  0)
  ( 0  0  1)

4 k-points: 2 x 2 x 1 Monkhorst-Pack grid
2 k-points in the irreducible part of the Brillouin zone
       k-points in crystal coordinates                weights
   0:     0.25000000   -0.25000000    0.00000000          2/4
   1:     0.25000000    0.25000000    0.00000000          2/4

Wave functions: LCAO
  Diagonalizer: Serial LAPACK
  Atomic Correction: dense with blas
  Data-type: complex
 

Occupation numbers: Fermi-Dirac:
  width: 0.1000  # eV
 

Eigensolver
   LCAO using direct dense diagonalizer 

Densities:
  Coarse grid: 68*48*140 grid
  Fine grid: 136*96*280 grid
  Total Charge: 0.000000 

Density mixing:
  Method: separate
  Backend: pulay
  Linear mixing parameter: 0.05
  old densities: 5
  Damping of long wavelength oscillations: 50 

Hamiltonian:
  XC and Coulomb potentials evaluated on a 136*96*280 grid
  Using the PBE Exchange-Correlation functional
  Interpolation: tri-quintic (5. degree polynomial)
  Poisson solver: FastPoissonSolver using
    Stencil: 6*3+1=19 point O(h^6) finite-difference Laplacian
    FFT axes: [np.int64(0), np.int64(1)]
    FST axes: [np.int64(2)]
 

XC parameters: PBE with 2 nearest neighbor stencil

Memory estimate:
  Process memory now: 1966.86 MiB
  Calculator: 544.81 MiB
    Density: 357.68 MiB
      Arrays: 90.30 MiB
      Localized functions: 232.77 MiB
      Mixer: 34.61 MiB
    Hamiltonian: 77.45 MiB
      Arrays: 59.04 MiB
      XC: 0.00 MiB
      Poisson: 0.00 MiB
      vbar: 18.41 MiB
    Wavefunctions: 109.67 MiB
      C [qnM]: 0.63 MiB
      S, T [2 x qmm]: 7.74 MiB
      P [aqMi]: 0.30 MiB
      BasisFunctions: 101.00 MiB
      Eigensolver: 0.00 MiB

Total number of cores used: 1

Number of atoms: 89
Number of atomic orbitals: 356
Number of bands in calculation: 58
Number of valence electrons: 89
Bands to converge: occupied

... initialized

Initializing position-dependent things.

Density initialized from atomic densities
       .---------------------------------.  
      /|                                 |  
     / |                                 |  
    /  |                                 |  
   /   |                                 |  
  /    |                                 |  
 *     |                                 |  
 |     |                                 |  
 |     |                                 |  
 |     |                                 |  
 |     |  Li      Li      Li       Li    |  
 |     |          Li                     |  
 |  Li |   LiLi     LLi     LLi      Li  |  
 |     |                                 |  
 |   Li|      Li      Li       Li        |  
 |     |Li       Li      Li     LiLi     |  
 |     |                                 |  
 |     |  LLi     LLi      LLi     LiLi  |  
 |     |                                 |  
 |  Li |    Li       Li       Li         |  
 |     Li      Li       Li      Li       |  
 |    Li  Li  Li  Li   Li      Li        |  
 Li    |Li       Li      Li       Li     |  
 |     |                                 |  
 |Li   |  LLi     LLi      LLi     Li    |  
 |  LLi|     LLi     LLi      LLi        |  
 |     |                                 |  
 |    LLi     LLi      LLi     LLi       |  
 Li    |LLi      LLi     LiLi     Li     |  
 |     |                                 |  
 |Li   |   Li      Li       Li           |  
 |   Li|      Li      Li       Li        |  
 |     |                                 |  
 |     |                                 |  
 |     |                                 |  
 |     .---------------------------------.  
 |    /                                 /   
 |   /                                 /    
 |  /                                 /     
 | /                                 /      
 |/                                 /       
 *---------------------------------*        

Atomic positions and initial magnetic moments

Positions:
   0 Li     0.000000    2.467803    8.000000    ( 0.0000,  0.0000,  0.0000)
   1 Li     3.490000    2.467803    8.000000    ( 0.0000,  0.0000,  0.0000)
   2 Li     6.980000    2.467803    8.000000    ( 0.0000,  0.0000,  0.0000)
   3 Li    10.470000    2.467803    8.000000    ( 0.0000,  0.0000,  0.0000)
   4 Li     1.745000    4.935605    8.000000    ( 0.0000,  0.0000,  0.0000)
   5 Li     5.235000    4.935605    8.000000    ( 0.0000,  0.0000,  0.0000)
   6 Li     8.725000    4.935605    8.000000    ( 0.0000,  0.0000,  0.0000)
   7 Li    12.215000    4.935605    8.000000    ( 0.0000,  0.0000,  0.0000)
   8 Li     0.000000    7.403408    8.000000    ( 0.0000,  0.0000,  0.0000)
   9 Li     3.490000    7.403408    8.000000    ( 0.0000,  0.0000,  0.0000)
  10 Li     6.980000    7.403408    8.000000    ( 0.0000,  0.0000,  0.0000)
  11 Li    10.470000    7.403408    8.000000    ( 0.0000,  0.0000,  0.0000)
  12 Li     1.745000    9.871211    8.000000    ( 0.0000,  0.0000,  0.0000)
  13 Li     5.235000    9.871211    8.000000    ( 0.0000,  0.0000,  0.0000)
  14 Li     8.725000    9.871211    8.000000    ( 0.0000,  0.0000,  0.0000)
  15 Li    12.215000    9.871211    8.000000    ( 0.0000,  0.0000,  0.0000)
  16 Li     0.000000    0.000000   10.467803    ( 0.0000,  0.0000,  0.0000)
  17 Li     3.490000    0.000000   10.467803    ( 0.0000,  0.0000,  0.0000)
  18 Li     6.980000    0.000000   10.467803    ( 0.0000,  0.0000,  0.0000)
  19 Li    10.470000    0.000000   10.467803    ( 0.0000,  0.0000,  0.0000)
  20 Li     1.745000    2.467803   10.467803    ( 0.0000,  0.0000,  0.0000)
  21 Li     5.235000    2.467803   10.467803    ( 0.0000,  0.0000,  0.0000)
  22 Li     8.725000    2.467803   10.467803    ( 0.0000,  0.0000,  0.0000)
  23 Li    12.215000    2.467803   10.467803    ( 0.0000,  0.0000,  0.0000)
  24 Li     0.000000    4.935605   10.467803    ( 0.0000,  0.0000,  0.0000)
  25 Li     3.490000    4.935605   10.467803    ( 0.0000,  0.0000,  0.0000)
  26 Li     6.980000    4.935605   10.467803    ( 0.0000,  0.0000,  0.0000)
  27 Li    10.470000    4.935605   10.467803    ( 0.0000,  0.0000,  0.0000)
  28 Li     1.745000    7.403408   10.467803    ( 0.0000,  0.0000,  0.0000)
  29 Li     5.235000    7.403408   10.467803    ( 0.0000,  0.0000,  0.0000)
  30 Li     8.725000    7.403408   10.467803    ( 0.0000,  0.0000,  0.0000)
  31 Li    12.215000    7.403408   10.467803    ( 0.0000,  0.0000,  0.0000)
  32 Li     0.000000    2.467803   12.935605    ( 0.0000,  0.0000,  0.0000)
  33 Li     3.490000    2.467803   12.935605    ( 0.0000,  0.0000,  0.0000)
  34 Li     6.980000    2.467803   12.935605    ( 0.0000,  0.0000,  0.0000)
  35 Li    10.470000    2.467803   12.935605    ( 0.0000,  0.0000,  0.0000)
  36 Li     1.745000    4.935605   12.935605    ( 0.0000,  0.0000,  0.0000)
  37 Li     5.235000    4.935605   12.935605    ( 0.0000,  0.0000,  0.0000)
  38 Li     8.725000    4.935605   12.935605    ( 0.0000,  0.0000,  0.0000)
  39 Li    12.215000    4.935605   12.935605    ( 0.0000,  0.0000,  0.0000)
  40 Li     0.000000    7.403408   12.935605    ( 0.0000,  0.0000,  0.0000)
  41 Li     3.490000    7.403408   12.935605    ( 0.0000,  0.0000,  0.0000)
  42 Li     6.980000    7.403408   12.935605    ( 0.0000,  0.0000,  0.0000)
  43 Li    10.470000    7.403408   12.935605    ( 0.0000,  0.0000,  0.0000)
  44 Li     1.745000    9.871211   12.935605    ( 0.0000,  0.0000,  0.0000)
  45 Li     5.235000    9.871211   12.935605    ( 0.0000,  0.0000,  0.0000)
  46 Li     8.725000    9.871211   12.935605    ( 0.0000,  0.0000,  0.0000)
  47 Li    12.215000    9.871211   12.935605    ( 0.0000,  0.0000,  0.0000)
  48 Li     0.012279    0.003355   15.786142    ( 0.0000,  0.0000,  0.0000)
  49 Li     3.495089    0.002654   15.794569    ( 0.0000,  0.0000,  0.0000)
  50 Li     6.972993    0.003279   15.793074    ( 0.0000,  0.0000,  0.0000)
  51 Li    10.443453   -0.000079   15.813423    ( 0.0000,  0.0000,  0.0000)
  52 Li     1.735472    2.450075   15.723912    ( 0.0000,  0.0000,  0.0000)
  53 Li     5.226806    2.448569   15.667986    ( 0.0000,  0.0000,  0.0000)
  54 Li     8.740630    2.441361   15.714869    ( 0.0000,  0.0000,  0.0000)
  55 Li    12.205721    2.446116   15.748987    ( 0.0000,  0.0000,  0.0000)
  56 Li     0.005083    4.934965   15.649933    ( 0.0000,  0.0000,  0.0000)
  57 Li     3.463876    4.932453   15.598095    ( 0.0000,  0.0000,  0.0000)
  58 Li     6.989843    4.930933   15.585031    ( 0.0000,  0.0000,  0.0000)
  59 Li    10.476877    4.938935   15.613087    ( 0.0000,  0.0000,  0.0000)
  60 Li     1.738342    7.400148   15.658359    ( 0.0000,  0.0000,  0.0000)
  61 Li     5.227013    7.397372   15.604124    ( 0.0000,  0.0000,  0.0000)
  62 Li     8.736406    7.402564   15.636858    ( 0.0000,  0.0000,  0.0000)
  63 Li    12.203520    7.396742   15.689935    ( 0.0000,  0.0000,  0.0000)
  64 Li    -0.001459    2.481724   18.485918    ( 0.0000,  0.0000,  0.0000)
  65 Li     3.493826    2.494180   18.434679    ( 0.0000,  0.0000,  0.0000)
  66 Li     6.963594    2.477179   18.383390    ( 0.0000,  0.0000,  0.0000)
  67 Li    10.450180    2.491844   18.542175    ( 0.0000,  0.0000,  0.0000)
  68 Li     1.772286    4.970529   18.347342    ( 0.0000,  0.0000,  0.0000)
  69 Li     5.232279    4.941429   18.224985    ( 0.0000,  0.0000,  0.0000)
  70 Li     8.731300    4.956530   18.229671    ( 0.0000,  0.0000,  0.0000)
  71 Li    12.205832    4.972314   18.314646    ( 0.0000,  0.0000,  0.0000)
  72 Li     0.010013    7.354507   18.389516    ( 0.0000,  0.0000,  0.0000)
  73 Li     3.510749    7.348355   18.321386    ( 0.0000,  0.0000,  0.0000)
  74 Li     6.977925    7.360547   18.294934    ( 0.0000,  0.0000,  0.0000)
  75 Li    10.419669    7.341672   18.438675    ( 0.0000,  0.0000,  0.0000)
  76 Li     1.763292    9.845166   18.611874    ( 0.0000,  0.0000,  0.0000)
  77 Li     5.221187    9.828335   18.621061    ( 0.0000,  0.0000,  0.0000)
  78 Li     8.697829    9.838327   18.658171    ( 0.0000,  0.0000,  0.0000)
  79 Li    12.204800    9.836919   18.529143    ( 0.0000,  0.0000,  0.0000)
  80 Li     0.020413    4.771076   20.936600    ( 0.0000,  0.0000,  0.0000)
  81 Li     3.648621    4.686373   21.031399    ( 0.0000,  0.0000,  0.0000)
  82 Li     7.002950    4.663417   20.838327    ( 0.0000,  0.0000,  0.0000)
  83 Li    10.416279    4.812338   20.981899    ( 0.0000,  0.0000,  0.0000)
  84 Li     1.840769    7.539169   21.012111    ( 0.0000,  0.0000,  0.0000)
  85 Li     5.256663    7.515283   20.988947    ( 0.0000,  0.0000,  0.0000)
  86 Li     8.562848    7.516483   21.148230    ( 0.0000,  0.0000,  0.0000)
  87 Li    12.213705    7.635969   21.007453    ( 0.0000,  0.0000,  0.0000)
  88 Li     5.957673    4.743011   22.886527    ( 0.0000,  0.0000,  0.0000)

Unit cell:
           periodic     x           y           z      points  spacing
  1. axis:    yes   13.960000    0.000000    0.000000    68     0.2053
  2. axis:    yes    0.000000    9.871211    0.000000    48     0.2057
  3. axis:    no     0.000000    0.000000   28.339013   140     0.2024

  Lengths:  13.960000   9.871211  28.339013
  Angles:   90.000000  90.000000  90.000000

Effective grid spacing dv^(1/3) = 0.2045

     iter     time        total  log10-change:
                         energy   eigst   dens
iter:   1 20:16:42  -150.998401        c
iter:   2 20:16:44  -147.406897        c -0.66
iter:   3 20:16:47  -145.923614        c -0.78
iter:   4 20:16:50  -145.055674        c -0.88
iter:   5 20:16:53  -143.778511        c -1.00
iter:   6 20:16:56  -143.606887        c -1.21
iter:   7 20:16:59  -143.127192        c -1.26
iter:   8 20:17:02  -143.009076        c -1.50
iter:   9 20:17:04  -142.991160        c -1.64
iter:  10 20:17:07  -142.939237        c -1.68
iter:  11 20:17:10  -142.913918        c -1.83
iter:  12 20:17:13  -142.899417c       c -1.97
iter:  13 20:17:16  -142.897014c       c -2.18
iter:  14 20:17:19  -142.896154c       c -2.30
iter:  15 20:17:21  -142.894145c       c -2.44
iter:  16 20:17:24  -142.895871c       c -2.47
iter:  17 20:17:27  -142.894478c       c -2.59
iter:  18 20:17:30  -142.894313c       c -2.80
iter:  19 20:17:33  -142.894087c       c -2.90
iter:  20 20:17:35  -142.893919c       c -3.02
iter:  21 20:17:38  -142.894143c       c -3.08
iter:  22 20:17:41  -142.893763c       c -3.11
iter:  23 20:17:44  -142.894021c       c -3.19
iter:  24 20:17:47  -142.893994c       c -3.32
iter:  25 20:17:50  -142.893979c       c -3.43
iter:  26 20:17:52  -142.893978c       c -3.56
iter:  27 20:17:55  -142.893883c       c -3.66
iter:  28 20:17:58  -142.893953c       c -3.75
iter:  29 20:18:01  -142.893902c       c -3.84
iter:  30 20:18:03  -142.893916c       c -3.94
iter:  31 20:18:06  -142.893917c       c -4.04c

Converged after 31 iterations.

Dipole moment: (-10.562002, -11.987703, 0.986348) |e|*Ang

Energy contributions relative to reference atoms: (reference = -18048.116001)

Kinetic:       +233.002990
Potential:     -197.393191
External:        +0.000000
XC:            -177.170136
Entropy (-ST):   -1.616400
Local:           -0.525379
SIC:             +0.000000
--------------------------
Free energy:   -143.702117
Extrapolated:  -142.893917

Showing all kpts
 Kpt  Band  Eigenvalues  Occupancy
  0    42     -2.72027    1.28534
  0    43     -2.64068    0.89593
  0    44     -2.61505    0.77149
  0    45     -2.59731    0.68929

  1    42     -2.71685    1.26957
  1    43     -2.65464    0.96537
  1    44     -2.61208    0.75745
  1    45     -2.59757    0.69048


Fermi level: -2.66157

Gap: 0.062 eV
Transition (v -> c):
  (s=0, k=1, n=42, [0.25, 0.25, 0.00]) -> (s=0, k=1, n=43, [0.25, 0.25, 0.00])
No difference between direct/indirect transitions

Forces in eV/Ang:
  0 Li    0.00050   -0.00214   -0.17044
  1 Li    0.00111   -0.00329   -0.17343
  2 Li   -0.00031   -0.00418   -0.17423
  3 Li   -0.00154   -0.00224   -0.17252
  4 Li    0.00188   -0.00543   -0.16414
  5 Li   -0.00031   -0.00374   -0.16670
  6 Li    0.00005   -0.00476   -0.16540
  7 Li   -0.00150   -0.00748   -0.16536
  8 Li    0.00315    0.00225   -0.16261
  9 Li    0.00134    0.00330   -0.16574
 10 Li   -0.00065    0.00378   -0.16663
 11 Li   -0.00405    0.00282   -0.16238
 12 Li    0.00320    0.00484   -0.16946
 13 Li    0.00061    0.00443   -0.17253
 14 Li   -0.00192    0.00447   -0.17139
 15 Li   -0.00157    0.00722   -0.16839
 16 Li   -0.00027   -0.00199   -0.08859
 17 Li   -0.00006   -0.00129   -0.09710
 18 Li    0.00074   -0.00164   -0.09481
 19 Li   -0.00011   -0.00115   -0.09812
 20 Li   -0.00040    0.00049   -0.09065
 21 Li    0.00009    0.00179   -0.08856
 22 Li   -0.00042    0.00056   -0.09009
 23 Li    0.00048    0.00172   -0.08777
 24 Li   -0.00168   -0.00378   -0.09274
 25 Li   -0.00044   -0.00447   -0.08079
 26 Li    0.00082   -0.00508   -0.07759
 27 Li    0.00156   -0.00430   -0.08693
 28 Li   -0.00059    0.00431   -0.08861
 29 Li    0.00032    0.00525   -0.08030
 30 Li   -0.00091    0.00495   -0.08286
 31 Li    0.00073    0.00421   -0.09185
 32 Li   -0.00331    0.00151    0.29165
 33 Li   -0.01446   -0.01506    0.26254
 34 Li    0.01064   -0.02057    0.26609
 35 Li    0.00514   -0.00894    0.27872
 36 Li   -0.01508   -0.00866    0.20380
 37 Li   -0.00840   -0.01151    0.19360
 38 Li    0.01418   -0.01020    0.19962
 39 Li    0.01063   -0.00788    0.23238
 40 Li   -0.00693    0.00582    0.25811
 41 Li   -0.02154    0.01881    0.22199
 42 Li    0.01210    0.02083    0.22472
 43 Li    0.01270    0.01629    0.23437
 44 Li    0.01102    0.00158    0.31604
 45 Li    0.00069    0.00819    0.29135
 46 Li   -0.00207    0.00463    0.31061
 47 Li   -0.01123   -0.00214    0.34231
 48 Li   -0.00637   -0.00923   -0.00067
 49 Li    0.00099   -0.00161    0.00844
 50 Li   -0.00065   -0.00877    0.00656
 51 Li    0.00745   -0.01026    0.00396
 52 Li    0.00475    0.00067    0.00457
 53 Li   -0.00430   -0.00155    0.01814
 54 Li   -0.00066    0.00819   -0.00271
 55 Li   -0.00587    0.00524   -0.00444
 56 Li   -0.00205   -0.00057   -0.00793
 57 Li    0.00897   -0.00417    0.00567
 58 Li   -0.00970   -0.00620    0.00491
 59 Li    0.00993   -0.00762   -0.00544
 60 Li   -0.00511    0.00691   -0.01023
 61 Li    0.00288    0.01000   -0.00178
 62 Li    0.00421    0.01095   -0.01446
 63 Li   -0.00277    0.01279   -0.00960
 64 Li   -0.00357    0.02287    0.00163
 65 Li   -0.00051    0.00645    0.02831
 66 Li    0.00289    0.00048    0.03807
 67 Li    0.00481    0.02313    0.00004
 68 Li    0.00055   -0.00840   -0.00800
 69 Li   -0.00216    0.01740   -0.00497
 70 Li    0.00037   -0.01552    0.00018
 71 Li    0.00081   -0.01207    0.01649
 72 Li    0.00243    0.01513    0.00644
 73 Li   -0.01590    0.02885   -0.02076
 74 Li    0.01188    0.02510   -0.01441
 75 Li    0.00252    0.03255   -0.00003
 76 Li   -0.02627   -0.03133   -0.01096
 77 Li    0.00400   -0.00854    0.01343
 78 Li    0.01407   -0.03135    0.00688
 79 Li    0.00541   -0.00401   -0.00896
 80 Li   -0.01434   -0.00829    0.00715
 81 Li   -0.21111   -0.01948   -0.19047
 82 Li    0.49059    0.01326   -1.04974
 83 Li   -0.02241   -0.02964    0.02155
 84 Li   -0.02086   -0.01255   -0.00773
 85 Li    0.01653   -0.10411    0.07517
 86 Li    0.00282   -0.07720   -0.00956
 87 Li   -0.00061   -0.00654   -0.00518
 88 Li   -0.23073    0.19562    1.09666

System changes: positions 

Initializing position-dependent things.

Density initialized from wave functions
       .---------------------------------.  
      /|                                 |  
     / |                                 |  
    /  |                                 |  
   /   |                                 |  
  /    |                                 |  
 *     |                                 |  
 |     |                                 |  
 |     |                                 |  
 |     |                                 |  
 |     |  Li      Li      Li       Li    |  
 |     |          Li                     |  
 |  Li |   LiLi     LLi     LLi      Li  |  
 |     |                                 |  
 |   Li|      Li      Li       Li        |  
 |     |Li       Li      Li     LiLi     |  
 |     |                                 |  
 |     |  LLi     LLi      LLi     LiLi  |  
 |     |                                 |  
 |  Li |    Li       Li       Li         |  
 |     Li      Li       Li      Li       |  
 |    Li  Li  Li  Li   Li      Li        |  
 Li    |Li       Li      Li       Li     |  
 |     |                                 |  
 |Li   |  LLi     LLi      LLi     Li    |  
 |  LLi|     LLi     LLi      LLi        |  
 |     |                                 |  
 |    LLi     LLi      LLi     LLi       |  
 Li    |LLi      LLi     LiLi     Li     |  
 |     |                                 |  
 |Li   |   Li      Li       Li           |  
 |   Li|      Li      Li       Li        |  
 |     |                                 |  
 |     |                                 |  
 |     |                                 |  
 |     .---------------------------------.  
 |    /                                 /   
 |   /                                 /    
 |  /                                 /     
 | /                                 /      
 |/                                 /       
 *---------------------------------*        

Atomic positions and initial magnetic moments

Positions:
   0 Li     0.000000    2.467803    8.000000    ( 0.0000,  0.0000,  0.0000)
   1 Li     3.490000    2.467803    8.000000    ( 0.0000,  0.0000,  0.0000)
   2 Li     6.980000    2.467803    8.000000    ( 0.0000,  0.0000,  0.0000)
   3 Li    10.470000    2.467803    8.000000    ( 0.0000,  0.0000,  0.0000)
   4 Li     1.745000    4.935605    8.000000    ( 0.0000,  0.0000,  0.0000)
   5 Li     5.235000    4.935605    8.000000    ( 0.0000,  0.0000,  0.0000)
   6 Li     8.725000    4.935605    8.000000    ( 0.0000,  0.0000,  0.0000)
   7 Li    12.215000    4.935605    8.000000    ( 0.0000,  0.0000,  0.0000)
   8 Li     0.000000    7.403408    8.000000    ( 0.0000,  0.0000,  0.0000)
   9 Li     3.490000    7.403408    8.000000    ( 0.0000,  0.0000,  0.0000)
  10 Li     6.980000    7.403408    8.000000    ( 0.0000,  0.0000,  0.0000)
  11 Li    10.470000    7.403408    8.000000    ( 0.0000,  0.0000,  0.0000)
  12 Li     1.745000    9.871211    8.000000    ( 0.0000,  0.0000,  0.0000)
  13 Li     5.235000    9.871211    8.000000    ( 0.0000,  0.0000,  0.0000)
  14 Li     8.725000    9.871211    8.000000    ( 0.0000,  0.0000,  0.0000)
  15 Li    12.215000    9.871211    8.000000    ( 0.0000,  0.0000,  0.0000)
  16 Li     0.000000    0.000000   10.467803    ( 0.0000,  0.0000,  0.0000)
  17 Li     3.490000    0.000000   10.467803    ( 0.0000,  0.0000,  0.0000)
  18 Li     6.980000    0.000000   10.467803    ( 0.0000,  0.0000,  0.0000)
  19 Li    10.470000    0.000000   10.467803    ( 0.0000,  0.0000,  0.0000)
  20 Li     1.745000    2.467803   10.467803    ( 0.0000,  0.0000,  0.0000)
  21 Li     5.235000    2.467803   10.467803    ( 0.0000,  0.0000,  0.0000)
  22 Li     8.725000    2.467803   10.467803    ( 0.0000,  0.0000,  0.0000)
  23 Li    12.215000    2.467803   10.467803    ( 0.0000,  0.0000,  0.0000)
  24 Li     0.000000    4.935605   10.467803    ( 0.0000,  0.0000,  0.0000)
  25 Li     3.490000    4.935605   10.467803    ( 0.0000,  0.0000,  0.0000)
  26 Li     6.980000    4.935605   10.467803    ( 0.0000,  0.0000,  0.0000)
  27 Li    10.470000    4.935605   10.467803    ( 0.0000,  0.0000,  0.0000)
  28 Li     1.745000    7.403408   10.467803    ( 0.0000,  0.0000,  0.0000)
  29 Li     5.235000    7.403408   10.467803    ( 0.0000,  0.0000,  0.0000)
  30 Li     8.725000    7.403408   10.467803    ( 0.0000,  0.0000,  0.0000)
  31 Li    12.215000    7.403408   10.467803    ( 0.0000,  0.0000,  0.0000)
  32 Li     0.000000    2.467803   12.935605    ( 0.0000,  0.0000,  0.0000)
  33 Li     3.490000    2.467803   12.935605    ( 0.0000,  0.0000,  0.0000)
  34 Li     6.980000    2.467803   12.935605    ( 0.0000,  0.0000,  0.0000)
  35 Li    10.470000    2.467803   12.935605    ( 0.0000,  0.0000,  0.0000)
  36 Li     1.745000    4.935605   12.935605    ( 0.0000,  0.0000,  0.0000)
  37 Li     5.235000    4.935605   12.935605    ( 0.0000,  0.0000,  0.0000)
  38 Li     8.725000    4.935605   12.935605    ( 0.0000,  0.0000,  0.0000)
  39 Li    12.215000    4.935605   12.935605    ( 0.0000,  0.0000,  0.0000)
  40 Li     0.000000    7.403408   12.935605    ( 0.0000,  0.0000,  0.0000)
  41 Li     3.490000    7.403408   12.935605    ( 0.0000,  0.0000,  0.0000)
  42 Li     6.980000    7.403408   12.935605    ( 0.0000,  0.0000,  0.0000)
  43 Li    10.470000    7.403408   12.935605    ( 0.0000,  0.0000,  0.0000)
  44 Li     1.745000    9.871211   12.935605    ( 0.0000,  0.0000,  0.0000)
  45 Li     5.235000    9.871211   12.935605    ( 0.0000,  0.0000,  0.0000)
  46 Li     8.725000    9.871211   12.935605    ( 0.0000,  0.0000,  0.0000)
  47 Li    12.215000    9.871211   12.935605    ( 0.0000,  0.0000,  0.0000)
  48 Li     0.012188    0.003275   15.786173    ( 0.0000,  0.0000,  0.0000)
  49 Li     3.495034    0.002643   15.794429    ( 0.0000,  0.0000,  0.0000)
  50 Li     6.973054    0.003194   15.792918    ( 0.0000,  0.0000,  0.0000)
  51 Li    10.443581   -0.000162   15.813450    ( 0.0000,  0.0000,  0.0000)
  52 Li     1.735526    2.450122   15.723982    ( 0.0000,  0.0000,  0.0000)
  53 Li     5.226778    2.448559   15.668220    ( 0.0000,  0.0000,  0.0000)
  54 Li     8.740605    2.441499   15.714882    ( 0.0000,  0.0000,  0.0000)
  55 Li    12.205680    2.446202   15.748940    ( 0.0000,  0.0000,  0.0000)
  56 Li     0.005061    4.934973   15.649728    ( 0.0000,  0.0000,  0.0000)
  57 Li     3.464027    4.932409   15.598209    ( 0.0000,  0.0000,  0.0000)
  58 Li     6.989715    4.930870   15.585161    ( 0.0000,  0.0000,  0.0000)
  59 Li    10.476956    4.938864   15.612974    ( 0.0000,  0.0000,  0.0000)
  60 Li     1.738317    7.400228   15.658186    ( 0.0000,  0.0000,  0.0000)
  61 Li     5.227057    7.397528   15.604144    ( 0.0000,  0.0000,  0.0000)
  62 Li     8.736413    7.402681   15.636682    ( 0.0000,  0.0000,  0.0000)
  63 Li    12.203514    7.396888   15.689723    ( 0.0000,  0.0000,  0.0000)
  64 Li    -0.001519    2.481990   18.486013    ( 0.0000,  0.0000,  0.0000)
  65 Li     3.493782    2.494392   18.435051    ( 0.0000,  0.0000,  0.0000)
  66 Li     6.963685    2.477362   18.383954    ( 0.0000,  0.0000,  0.0000)
  67 Li    10.450292    2.492094   18.542150    ( 0.0000,  0.0000,  0.0000)
  68 Li     1.772156    4.970484   18.347080    ( 0.0000,  0.0000,  0.0000)
  69 Li     5.232262    4.941564   18.225180    ( 0.0000,  0.0000,  0.0000)
  70 Li     8.731377    4.956440   18.229708    ( 0.0000,  0.0000,  0.0000)
  71 Li    12.205857    4.972265   18.314690    ( 0.0000,  0.0000,  0.0000)
  72 Li     0.010056    7.354816   18.389445    ( 0.0000,  0.0000,  0.0000)
  73 Li     3.510541    7.348658   18.321184    ( 0.0000,  0.0000,  0.0000)
  74 Li     6.978058    7.360790   18.294845    ( 0.0000,  0.0000,  0.0000)
  75 Li    10.419751    7.342180   18.438448    ( 0.0000,  0.0000,  0.0000)
  76 Li     1.763219    9.844957   18.611681    ( 0.0000,  0.0000,  0.0000)
  77 Li     5.221253    9.828324   18.620611    ( 0.0000,  0.0000,  0.0000)
  78 Li     8.697796    9.838131   18.658071    ( 0.0000,  0.0000,  0.0000)
  79 Li    12.204873    9.836915   18.529256    ( 0.0000,  0.0000,  0.0000)
  80 Li     0.020302    4.771157   20.936569    ( 0.0000,  0.0000,  0.0000)
  81 Li     3.646280    4.686541   21.029290    ( 0.0000,  0.0000,  0.0000)
  82 Li     7.007751    4.663955   20.827982    ( 0.0000,  0.0000,  0.0000)
  83 Li    10.416084    4.812129   20.981929    ( 0.0000,  0.0000,  0.0000)
  84 Li     1.840392    7.539445   21.011917    ( 0.0000,  0.0000,  0.0000)
  85 Li     5.256788    7.514985   20.989474    ( 0.0000,  0.0000,  0.0000)
  86 Li     8.563167    7.516154   21.147766    ( 0.0000,  0.0000,  0.0000)
  87 Li    12.213701    7.635816   21.007327    ( 0.0000,  0.0000,  0.0000)
  88 Li     5.954030    4.739271   22.893938    ( 0.0000,  0.0000,  0.0000)

Unit cell:
           periodic     x           y           z      points  spacing
  1. axis:    yes   13.960000    0.000000    0.000000    68     0.2053
  2. axis:    yes    0.000000    9.871211    0.000000    48     0.2057
  3. axis:    no     0.000000    0.000000   28.339013   140     0.2024

  Lengths:  13.960000   9.871211  28.339013
  Angles:   90.000000  90.000000  90.000000

Effective grid spacing dv^(1/3) = 0.2045

     iter     time        total  log10-change:
                         energy   eigst   dens
iter:   1 20:21:24  -142.915840        c
iter:   2 20:21:27  -142.917003        c -2.88
iter:   3 20:21:30  -142.915695c       c -2.85
iter:   4 20:21:33  -142.915981c       c -3.27
iter:   5 20:21:35  -142.915977c       c -3.72
iter:   6 20:21:38  -142.915976c       c -3.92
iter:   7 20:21:41  -142.915972c       c -4.09c

Converged after 7 iterations.

Dipole moment: (-10.557703, -11.979032, 0.995777) |e|*Ang

Energy contributions relative to reference atoms: (reference = -18048.116001)

Kinetic:       +233.020136
Potential:     -197.409394
External:        +0.000000
XC:            -177.172825
Entropy (-ST):   -1.616365
Local:           -0.545706
SIC:             +0.000000
--------------------------
Free energy:   -143.724155
Extrapolated:  -142.915972

Showing all kpts
 Kpt  Band  Eigenvalues  Occupancy
  0    42     -2.71766    1.28558
  0    43     -2.63793    0.89546
  0    44     -2.61232    0.77118
  0    45     -2.59473    0.68969

  1    42     -2.71422    1.26969
  1    43     -2.65146    0.96278
  1    44     -2.60953    0.75799
  1    45     -2.59502    0.69100


Fermi level: -2.65891

Gap: 0.063 eV
Transition (v -> c):
  (s=0, k=1, n=42, [0.25, 0.25, 0.00]) -> (s=0, k=1, n=43, [0.25, 0.25, 0.00])
No difference between direct/indirect transitions

Forces in eV/Ang:
  0 Li    0.00051   -0.00209   -0.17057
  1 Li    0.00102   -0.00322   -0.17355
  2 Li   -0.00032   -0.00412   -0.17431
  3 Li   -0.00145   -0.00219   -0.17268
  4 Li    0.00186   -0.00538   -0.16436
  5 Li   -0.00036   -0.00367   -0.16685
  6 Li    0.00004   -0.00471   -0.16560
  7 Li   -0.00147   -0.00747   -0.16554
  8 Li    0.00321    0.00222   -0.16285
  9 Li    0.00128    0.00324   -0.16588
 10 Li   -0.00069    0.00371   -0.16678
 11 Li   -0.00399    0.00277   -0.16259
 12 Li    0.00317    0.00480   -0.16962
 13 Li    0.00054    0.00436   -0.17261
 14 Li   -0.00189    0.00440   -0.17152
 15 Li   -0.00148    0.00719   -0.16861
 16 Li   -0.00022   -0.00191   -0.08863
 17 Li   -0.00001   -0.00124   -0.09689
 18 Li    0.00065   -0.00159   -0.09447
 19 Li   -0.00012   -0.00110   -0.09801
 20 Li   -0.00033    0.00049   -0.09048
 21 Li    0.00007    0.00179   -0.08837
 22 Li   -0.00049    0.00057   -0.08985
 23 Li    0.00053    0.00172   -0.08768
 24 Li   -0.00160   -0.00386   -0.09273
 25 Li   -0.00040   -0.00452   -0.08078
 26 Li    0.00073   -0.00512   -0.07752
 27 Li    0.00151   -0.00437   -0.08681
 28 Li   -0.00054    0.00431   -0.08860
 29 Li    0.00030    0.00525   -0.08027
 30 Li   -0.00097    0.00494   -0.08279
 31 Li    0.00077    0.00422   -0.09186
 32 Li   -0.00337    0.00146    0.29177
 33 Li   -0.01428   -0.01511    0.26270
 34 Li    0.01048   -0.02061    0.26623
 35 Li    0.00514   -0.00902    0.27896
 36 Li   -0.01505   -0.00873    0.20405
 37 Li   -0.00837   -0.01162    0.19390
 38 Li    0.01407   -0.01024    0.20001
 39 Li    0.01067   -0.00791    0.23248
 40 Li   -0.00700    0.00583    0.25838
 41 Li   -0.02141    0.01880    0.22212
 42 Li    0.01204    0.02082    0.22481
 43 Li    0.01271    0.01631    0.23460
 44 Li    0.01097    0.00168    0.31603
 45 Li    0.00074    0.00836    0.29133
 46 Li   -0.00204    0.00473    0.31072
 47 Li   -0.01123   -0.00204    0.34252
 48 Li   -0.00640   -0.00885   -0.00075
 49 Li    0.00093   -0.00157    0.00808
 50 Li   -0.00049   -0.00854    0.00623
 51 Li    0.00740   -0.00998    0.00383
 52 Li    0.00442    0.00056    0.00438
 53 Li   -0.00415   -0.00172    0.01827
 54 Li   -0.00059    0.00785   -0.00245
 55 Li   -0.00562    0.00509   -0.00446
 56 Li   -0.00234   -0.00045   -0.00794
 57 Li    0.00851   -0.00389    0.00539
 58 Li   -0.00937   -0.00586    0.00568
 59 Li    0.01011   -0.00716   -0.00578
 60 Li   -0.00510    0.00664   -0.01039
 61 Li    0.00288    0.00989   -0.00205
 62 Li    0.00433    0.01054   -0.01437
 63 Li   -0.00283    0.01235   -0.00945
 64 Li   -0.00303    0.02228    0.00181
 65 Li   -0.00087    0.00538    0.02716
 66 Li    0.00318   -0.00288    0.03446
 67 Li    0.00370    0.02283    0.00029
 68 Li   -0.00017   -0.00786   -0.00878
 69 Li   -0.00411    0.01860   -0.00908
 70 Li    0.00479   -0.01379   -0.00664
 71 Li    0.00020   -0.01137    0.01614
 72 Li    0.00222    0.01444    0.00578
 73 Li   -0.01519    0.02848   -0.02041
 74 Li    0.01179    0.02588   -0.01589
 75 Li    0.00158    0.03093    0.00044
 76 Li   -0.02604   -0.03020   -0.01074
 77 Li    0.00392   -0.00904    0.01381
 78 Li    0.01407   -0.03060    0.00709
 79 Li    0.00543   -0.00334   -0.00908
 80 Li   -0.01410   -0.00766    0.00732
 81 Li   -0.20206   -0.01805   -0.18610
 82 Li    0.46260    0.01681   -0.99363
 83 Li   -0.01961   -0.02935    0.02101
 84 Li   -0.02083   -0.01316   -0.00738
 85 Li    0.01691   -0.10793    0.07533
 86 Li    0.00290   -0.07645   -0.00971
 87 Li   -0.00083   -0.00687   -0.00513
 88 Li   -0.21532    0.19188    1.04829

System changes: positions 

Initializing position-dependent things.

Density initialized from wave functions
       .---------------------------------.  
      /|                                 |  
     / |                                 |  
    /  |                                 |  
   /   |                                 |  
  /    |                                 |  
 *     |                                 |  
 |     |                                 |  
 |     |                                 |  
 |     |                                 |  
 |     |  Li      Li      Li       Li    |  
 |     |          Li                     |  
 |  Li |   LiLi     LLi     LLi      Li  |  
 |     |                                 |  
 |   Li|      Li      Li       Li        |  
 |     |Li       Li      Li     LiLi     |  
 |     |                                 |  
 |     |  LLi     LLi      LLi     LiLi  |  
 |     |                                 |  
 |  Li |    Li       Li       Li         |  
 |     Li      Li       Li      Li       |  
 |    Li  Li  Li  Li   Li      Li        |  
 Li    |Li       Li      Li       Li     |  
 |     |                                 |  
 |Li   |  LLi     LLi      LLi     Li    |  
 |  LLi|     LLi     LLi      LLi        |  
 |     |                                 |  
 |    LLi     LLi      LLi     LLi       |  
 Li    |LLi      LLi     LiLi     Li     |  
 |     |                                 |  
 |Li   |   Li      Li       Li           |  
 |   Li|      Li      Li       Li        |  
 |     |                                 |  
 |     |                                 |  
 |     |                                 |  
 |     .---------------------------------.  
 |    /                                 /   
 |   /                                 /    
 |  /                                 /     
 | /                                 /      
 |/                                 /       
 *---------------------------------*        

Atomic positions and initial magnetic moments

Positions:
   0 Li     0.000000    2.467803    8.000000    ( 0.0000,  0.0000,  0.0000)
   1 Li     3.490000    2.467803    8.000000    ( 0.0000,  0.0000,  0.0000)
   2 Li     6.980000    2.467803    8.000000    ( 0.0000,  0.0000,  0.0000)
   3 Li    10.470000    2.467803    8.000000    ( 0.0000,  0.0000,  0.0000)
   4 Li     1.745000    4.935605    8.000000    ( 0.0000,  0.0000,  0.0000)
   5 Li     5.235000    4.935605    8.000000    ( 0.0000,  0.0000,  0.0000)
   6 Li     8.725000    4.935605    8.000000    ( 0.0000,  0.0000,  0.0000)
   7 Li    12.215000    4.935605    8.000000    ( 0.0000,  0.0000,  0.0000)
   8 Li     0.000000    7.403408    8.000000    ( 0.0000,  0.0000,  0.0000)
   9 Li     3.490000    7.403408    8.000000    ( 0.0000,  0.0000,  0.0000)
  10 Li     6.980000    7.403408    8.000000    ( 0.0000,  0.0000,  0.0000)
  11 Li    10.470000    7.403408    8.000000    ( 0.0000,  0.0000,  0.0000)
  12 Li     1.745000    9.871211    8.000000    ( 0.0000,  0.0000,  0.0000)
  13 Li     5.235000    9.871211    8.000000    ( 0.0000,  0.0000,  0.0000)
  14 Li     8.725000    9.871211    8.000000    ( 0.0000,  0.0000,  0.0000)
  15 Li    12.215000    9.871211    8.000000    ( 0.0000,  0.0000,  0.0000)
  16 Li     0.000000    0.000000   10.467803    ( 0.0000,  0.0000,  0.0000)
  17 Li     3.490000    0.000000   10.467803    ( 0.0000,  0.0000,  0.0000)
  18 Li     6.980000    0.000000   10.467803    ( 0.0000,  0.0000,  0.0000)
  19 Li    10.470000    0.000000   10.467803    ( 0.0000,  0.0000,  0.0000)
  20 Li     1.745000    2.467803   10.467803    ( 0.0000,  0.0000,  0.0000)
  21 Li     5.235000    2.467803   10.467803    ( 0.0000,  0.0000,  0.0000)
  22 Li     8.725000    2.467803   10.467803    ( 0.0000,  0.0000,  0.0000)
  23 Li    12.215000    2.467803   10.467803    ( 0.0000,  0.0000,  0.0000)
  24 Li     0.000000    4.935605   10.467803    ( 0.0000,  0.0000,  0.0000)
  25 Li     3.490000    4.935605   10.467803    ( 0.0000,  0.0000,  0.0000)
  26 Li     6.980000    4.935605   10.467803    ( 0.0000,  0.0000,  0.0000)
  27 Li    10.470000    4.935605   10.467803    ( 0.0000,  0.0000,  0.0000)
  28 Li     1.745000    7.403408   10.467803    ( 0.0000,  0.0000,  0.0000)
  29 Li     5.235000    7.403408   10.467803    ( 0.0000,  0.0000,  0.0000)
  30 Li     8.725000    7.403408   10.467803    ( 0.0000,  0.0000,  0.0000)
  31 Li    12.215000    7.403408   10.467803    ( 0.0000,  0.0000,  0.0000)
  32 Li     0.000000    2.467803   12.935605    ( 0.0000,  0.0000,  0.0000)
  33 Li     3.490000    2.467803   12.935605    ( 0.0000,  0.0000,  0.0000)
  34 Li     6.980000    2.467803   12.935605    ( 0.0000,  0.0000,  0.0000)
  35 Li    10.470000    2.467803   12.935605    ( 0.0000,  0.0000,  0.0000)
  36 Li     1.745000    4.935605   12.935605    ( 0.0000,  0.0000,  0.0000)
  37 Li     5.235000    4.935605   12.935605    ( 0.0000,  0.0000,  0.0000)
  38 Li     8.725000    4.935605   12.935605    ( 0.0000,  0.0000,  0.0000)
  39 Li    12.215000    4.935605   12.935605    ( 0.0000,  0.0000,  0.0000)
  40 Li     0.000000    7.403408   12.935605    ( 0.0000,  0.0000,  0.0000)
  41 Li     3.490000    7.403408   12.935605    ( 0.0000,  0.0000,  0.0000)
  42 Li     6.980000    7.403408   12.935605    ( 0.0000,  0.0000,  0.0000)
  43 Li    10.470000    7.403408   12.935605    ( 0.0000,  0.0000,  0.0000)
  44 Li     1.745000    9.871211   12.935605    ( 0.0000,  0.0000,  0.0000)
  45 Li     5.235000    9.871211   12.935605    ( 0.0000,  0.0000,  0.0000)
  46 Li     8.725000    9.871211   12.935605    ( 0.0000,  0.0000,  0.0000)
  47 Li    12.215000    9.871211   12.935605    ( 0.0000,  0.0000,  0.0000)
  48 Li     0.012007    0.003119   15.786232    ( 0.0000,  0.0000,  0.0000)
  49 Li     3.494927    0.002620   15.794158    ( 0.0000,  0.0000,  0.0000)
  50 Li     6.973176    0.003028   15.792615    ( 0.0000,  0.0000,  0.0000)
  51 Li    10.443834   -0.000328   15.813504    ( 0.0000,  0.0000,  0.0000)
  52 Li     1.735632    2.450213   15.724117    ( 0.0000,  0.0000,  0.0000)
  53 Li     5.226723    2.448535   15.668687    ( 0.0000,  0.0000,  0.0000)
  54 Li     8.740557    2.441769   15.714909    ( 0.0000,  0.0000,  0.0000)
  55 Li    12.205598    2.446369   15.748844    ( 0.0000,  0.0000,  0.0000)
  56 Li     0.005014    4.934989   15.649324    ( 0.0000,  0.0000,  0.0000)
  57 Li     3.464322    4.932322   15.598430    ( 0.0000,  0.0000,  0.0000)
  58 Li     6.989463    4.930750   15.585426    ( 0.0000,  0.0000,  0.0000)
  59 Li    10.477117    4.938728   15.612750    ( 0.0000,  0.0000,  0.0000)
  60 Li     1.738266    7.400386   15.657840    ( 0.0000,  0.0000,  0.0000)
  61 Li     5.227143    7.397837   15.604179    ( 0.0000,  0.0000,  0.0000)
  62 Li     8.736431    7.402909   15.636332    ( 0.0000,  0.0000,  0.0000)
  63 Li    12.203499    7.397174   15.689306    ( 0.0000,  0.0000,  0.0000)
  64 Li    -0.001633    2.482515   18.486199    ( 0.0000,  0.0000,  0.0000)
  65 Li     3.493695    2.494795   18.435782    ( 0.0000,  0.0000,  0.0000)
  66 Li     6.963865    2.477681   18.385040    ( 0.0000,  0.0000,  0.0000)
  67 Li    10.450501    2.492590   18.542104    ( 0.0000,  0.0000,  0.0000)
  68 Li     1.771895    4.970400   18.346558    ( 0.0000,  0.0000,  0.0000)
  69 Li     5.232207    4.941849   18.225513    ( 0.0000,  0.0000,  0.0000)
  70 Li     8.731576    4.956276   18.229707    ( 0.0000,  0.0000,  0.0000)
  71 Li    12.205899    4.972169   18.314782    ( 0.0000,  0.0000,  0.0000)
  72 Li     0.010138    7.355420   18.389302    ( 0.0000,  0.0000,  0.0000)
  73 Li     3.510135    7.349261   18.320781    ( 0.0000,  0.0000,  0.0000)
  74 Li     6.978323    7.361286   18.294645    ( 0.0000,  0.0000,  0.0000)
  75 Li    10.419900    7.343169   18.438012    ( 0.0000,  0.0000,  0.0000)
  76 Li     1.763062    9.844544   18.611301    ( 0.0000,  0.0000,  0.0000)
  77 Li     5.221382    9.828295   18.619747    ( 0.0000,  0.0000,  0.0000)
  78 Li     8.697743    9.837738   18.657882    ( 0.0000,  0.0000,  0.0000)
  79 Li    12.205019    9.836913   18.529467    ( 0.0000,  0.0000,  0.0000)
  80 Li     0.020079    4.771315   20.936516    ( 0.0000,  0.0000,  0.0000)
  81 Li     3.641682    4.686887   21.025114    ( 0.0000,  0.0000,  0.0000)
  82 Li     7.017105    4.665100   20.807840    ( 0.0000,  0.0000,  0.0000)
  83 Li    10.415724    4.811706   20.981993    ( 0.0000,  0.0000,  0.0000)
  84 Li     1.839647    7.539967   21.011538    ( 0.0000,  0.0000,  0.0000)
  85 Li     5.257046    7.514295   20.990547    ( 0.0000,  0.0000,  0.0000)
  86 Li     8.563792    7.515480   21.146854    ( 0.0000,  0.0000,  0.0000)
  87 Li    12.213691    7.635513   21.007081    ( 0.0000,  0.0000,  0.0000)
  88 Li     5.946958    4.732003   22.908477    ( 0.0000,  0.0000,  0.0000)

Unit cell:
           periodic     x           y           z      points  spacing
  1. axis:    yes   13.960000    0.000000    0.000000    68     0.2053
  2. axis:    yes    0.000000    9.871211    0.000000    48     0.2057
  3. axis:    no     0.000000    0.000000   28.339013   140     0.2024

  Lengths:  13.960000   9.871211  28.339013
  Angles:   90.000000  90.000000  90.000000

Effective grid spacing dv^(1/3) = 0.2045

     iter     time        total  log10-change:
                         energy   eigst   dens
iter:   1 20:22:48  -142.956956        c
iter:   2 20:22:50  -142.955520        c -2.74
iter:   3 20:22:53  -142.956465c       c -2.99
iter:   4 20:22:56  -142.955752c       c -3.05
iter:   5 20:22:59  -142.955902c       c -3.29
iter:   6 20:23:02  -142.955873c       c -3.66
iter:   7 20:23:05  -142.955868c       c -3.80
iter:   8 20:23:08  -142.955876c       c -3.86
iter:   9 20:23:11  -142.955898c       c -4.09c

Converged after 9 iterations.

Dipole moment: (-10.550062, -11.962813, 1.010001) |e|*Ang

Energy contributions relative to reference atoms: (reference = -18048.116001)

Kinetic:       +232.909704
Potential:     -197.357215
External:        +0.000000
XC:            -177.154708
Entropy (-ST):   -1.616175
Local:           -0.545592
SIC:             +0.000000
--------------------------
Free energy:   -143.763985
Extrapolated:  -142.955898

Showing all kpts
 Kpt  Band  Eigenvalues  Occupancy
  0    42     -2.71364    1.28621
  0    43     -2.63364    0.89482
  0    44     -2.60806    0.77068
  0    45     -2.59078    0.69058

  1    42     -2.71017    1.27020
  1    43     -2.64640    0.95822
  1    44     -2.60563    0.75919
  1    45     -2.59112    0.69216


Fermi level: -2.65476

Gap: 0.064 eV
Transition (v -> c):
  (s=0, k=1, n=42, [0.25, 0.25, 0.00]) -> (s=0, k=1, n=43, [0.25, 0.25, 0.00])
No difference between direct/indirect transitions

Forces in eV/Ang:
  0 Li    0.00033   -0.00208   -0.17045
  1 Li    0.00105   -0.00322   -0.17339
  2 Li   -0.00021   -0.00415   -0.17412
  3 Li   -0.00141   -0.00220   -0.17252
  4 Li    0.00173   -0.00534   -0.16427
  5 Li   -0.00027   -0.00361   -0.16678
  6 Li    0.00012   -0.00467   -0.16541
  7 Li   -0.00154   -0.00748   -0.16535
  8 Li    0.00308    0.00220   -0.16276
  9 Li    0.00133    0.00322   -0.16575
 10 Li   -0.00059    0.00373   -0.16658
 11 Li   -0.00400    0.00278   -0.16237
 12 Li    0.00303    0.00478   -0.16948
 13 Li    0.00066    0.00430   -0.17240
 14 Li   -0.00179    0.00436   -0.17128
 15 Li   -0.00156    0.00722   -0.16852
 16 Li   -0.00038   -0.00190   -0.08864
 17 Li   -0.00003   -0.00124   -0.09680
 18 Li    0.00079   -0.00159   -0.09449
 19 Li   -0.00007   -0.00108   -0.09814
 20 Li   -0.00043    0.00042   -0.09038
 21 Li    0.00015    0.00177   -0.08844
 22 Li   -0.00044    0.00053   -0.08992
 23 Li    0.00050    0.00162   -0.08776
 24 Li   -0.00173   -0.00386   -0.09285
 25 Li   -0.00038   -0.00450   -0.08075
 26 Li    0.00079   -0.00514   -0.07758
 27 Li    0.00152   -0.00437   -0.08692
 28 Li   -0.00065    0.00438   -0.08851
 29 Li    0.00035    0.00526   -0.08029
 30 Li   -0.00089    0.00498   -0.08293
 31 Li    0.00076    0.00429   -0.09197
 32 Li   -0.00340    0.00136    0.29152
 33 Li   -0.01412   -0.01515    0.26294
 34 Li    0.01028   -0.02058    0.26642
 35 Li    0.00517   -0.00916    0.27867
 36 Li   -0.01497   -0.00871    0.20403
 37 Li   -0.00833   -0.01166    0.19417
 38 Li    0.01386   -0.01022    0.20002
 39 Li    0.01077   -0.00791    0.23194
 40 Li   -0.00700    0.00590    0.25801
 41 Li   -0.02131    0.01880    0.22193
 42 Li    0.01195    0.02075    0.22443
 43 Li    0.01271    0.01639    0.23397
 44 Li    0.01093    0.00171    0.31570
 45 Li    0.00071    0.00846    0.29109
 46 Li   -0.00196    0.00476    0.31032
 47 Li   -0.01118   -0.00197    0.34206
 48 Li   -0.00588   -0.00826   -0.00074
 49 Li    0.00081   -0.00141    0.00811
 50 Li   -0.00062   -0.00795    0.00610
 51 Li    0.00711   -0.00941    0.00388
 52 Li    0.00425    0.00028    0.00423
 53 Li   -0.00424   -0.00221    0.01847
 54 Li   -0.00056    0.00714   -0.00246
 55 Li   -0.00517    0.00491   -0.00414
 56 Li   -0.00237   -0.00024   -0.00744
 57 Li    0.00781   -0.00342    0.00516
 58 Li   -0.00911   -0.00546    0.00640
 59 Li    0.01026   -0.00647   -0.00583
 60 Li   -0.00486    0.00631   -0.01007
 61 Li    0.00240    0.00984   -0.00249
 62 Li    0.00448    0.01001   -0.01440
 63 Li   -0.00271    0.01151   -0.00872
 64 Li   -0.00232    0.02135    0.00201
 65 Li   -0.00096    0.00412    0.02551
 66 Li    0.00326   -0.00747    0.02865
 67 Li    0.00168    0.02273    0.00149
 68 Li   -0.00073   -0.00697   -0.01012
 69 Li   -0.00724    0.02008   -0.01638
 70 Li    0.01102   -0.01131   -0.01664
 71 Li   -0.00011   -0.01015    0.01560
 72 Li    0.00165    0.01314    0.00488
 73 Li   -0.01413    0.02718   -0.01998
 74 Li    0.01127    0.02597   -0.01726
 75 Li    0.00055    0.02782    0.00136
 76 Li   -0.02583   -0.02819   -0.01099
 77 Li    0.00371   -0.00929    0.01462
 78 Li    0.01399   -0.02880    0.00755
 79 Li    0.00572   -0.00240   -0.00899
 80 Li   -0.01422   -0.00802    0.00769
 81 Li   -0.18732   -0.01632   -0.17812
 82 Li    0.40935    0.02310   -0.88903
 83 Li   -0.01429   -0.02939    0.01961
 84 Li   -0.02026   -0.01298   -0.00651
 85 Li    0.01745   -0.11310    0.07594
 86 Li    0.00450   -0.07294   -0.01036
 87 Li   -0.00168   -0.00674   -0.00467
 88 Li   -0.18463    0.18881    0.95909

System changes: positions 

Initializing position-dependent things.

Density initialized from wave functions
       .---------------------------------.  
      /|                                 |  
     / |                                 |  
    /  |                                 |  
   /   |                                 |  
  /    |                                 |  
 *     |                                 |  
 |     |                                 |  
 |     |                                 |  
 |     |                                 |  
 |     |  Li      Li      Li       Li    |  
 |     |          Li                     |  
 |  Li |   LiLi     Li      LLi      Li  |  
 |     |             Li                  |  
 |   Li|      Li      Li       Li        |  
 |     |Li       Li      Li     LiLi     |  
 |     |                                 |  
 |     |  LLi     LLi      LLi     LiLi  |  
 |     |                                 |  
 |  Li |    Li       Li       Li         |  
 |     Li      Li       Li      Li       |  
 |    Li  Li  Li  Li   Li      Li        |  
 Li    |Li       Li      Li       Li     |  
 |     |                                 |  
 |Li   |  LLi     LLi      LLi     Li    |  
 |  LLi|     LLi     LLi      LLi        |  
 |     |                                 |  
 |    LLi     LLi      LLi     LLi       |  
 Li    |LLi      LLi     LiLi     Li     |  
 |     |                                 |  
 |Li   |   Li      Li       Li           |  
 |   Li|      Li      Li       Li        |  
 |     |                                 |  
 |     |                                 |  
 |     |                                 |  
 |     .---------------------------------.  
 |    /                                 /   
 |   /                                 /    
 |  /                                 /     
 | /                                 /      
 |/                                 /       
 *---------------------------------*        

Atomic positions and initial magnetic moments

Positions:
   0 Li     0.000000    2.467803    8.000000    ( 0.0000,  0.0000,  0.0000)
   1 Li     3.490000    2.467803    8.000000    ( 0.0000,  0.0000,  0.0000)
   2 Li     6.980000    2.467803    8.000000    ( 0.0000,  0.0000,  0.0000)
   3 Li    10.470000    2.467803    8.000000    ( 0.0000,  0.0000,  0.0000)
   4 Li     1.745000    4.935605    8.000000    ( 0.0000,  0.0000,  0.0000)
   5 Li     5.235000    4.935605    8.000000    ( 0.0000,  0.0000,  0.0000)
   6 Li     8.725000    4.935605    8.000000    ( 0.0000,  0.0000,  0.0000)
   7 Li    12.215000    4.935605    8.000000    ( 0.0000,  0.0000,  0.0000)
   8 Li     0.000000    7.403408    8.000000    ( 0.0000,  0.0000,  0.0000)
   9 Li     3.490000    7.403408    8.000000    ( 0.0000,  0.0000,  0.0000)
  10 Li     6.980000    7.403408    8.000000    ( 0.0000,  0.0000,  0.0000)
  11 Li    10.470000    7.403408    8.000000    ( 0.0000,  0.0000,  0.0000)
  12 Li     1.745000    9.871211    8.000000    ( 0.0000,  0.0000,  0.0000)
  13 Li     5.235000    9.871211    8.000000    ( 0.0000,  0.0000,  0.0000)
  14 Li     8.725000    9.871211    8.000000    ( 0.0000,  0.0000,  0.0000)
  15 Li    12.215000    9.871211    8.000000    ( 0.0000,  0.0000,  0.0000)
  16 Li     0.000000    0.000000   10.467803    ( 0.0000,  0.0000,  0.0000)
  17 Li     3.490000    0.000000   10.467803    ( 0.0000,  0.0000,  0.0000)
  18 Li     6.980000    0.000000   10.467803    ( 0.0000,  0.0000,  0.0000)
  19 Li    10.470000    0.000000   10.467803    ( 0.0000,  0.0000,  0.0000)
  20 Li     1.745000    2.467803   10.467803    ( 0.0000,  0.0000,  0.0000)
  21 Li     5.235000    2.467803   10.467803    ( 0.0000,  0.0000,  0.0000)
  22 Li     8.725000    2.467803   10.467803    ( 0.0000,  0.0000,  0.0000)
  23 Li    12.215000    2.467803   10.467803    ( 0.0000,  0.0000,  0.0000)
  24 Li     0.000000    4.935605   10.467803    ( 0.0000,  0.0000,  0.0000)
  25 Li     3.490000    4.935605   10.467803    ( 0.0000,  0.0000,  0.0000)
  26 Li     6.980000    4.935605   10.467803    ( 0.0000,  0.0000,  0.0000)
  27 Li    10.470000    4.935605   10.467803    ( 0.0000,  0.0000,  0.0000)
  28 Li     1.745000    7.403408   10.467803    ( 0.0000,  0.0000,  0.0000)
  29 Li     5.235000    7.403408   10.467803    ( 0.0000,  0.0000,  0.0000)
  30 Li     8.725000    7.403408   10.467803    ( 0.0000,  0.0000,  0.0000)
  31 Li    12.215000    7.403408   10.467803    ( 0.0000,  0.0000,  0.0000)
  32 Li     0.000000    2.467803   12.935605    ( 0.0000,  0.0000,  0.0000)
  33 Li     3.490000    2.467803   12.935605    ( 0.0000,  0.0000,  0.0000)
  34 Li     6.980000    2.467803   12.935605    ( 0.0000,  0.0000,  0.0000)
  35 Li    10.470000    2.467803   12.935605    ( 0.0000,  0.0000,  0.0000)
  36 Li     1.745000    4.935605   12.935605    ( 0.0000,  0.0000,  0.0000)
  37 Li     5.235000    4.935605   12.935605    ( 0.0000,  0.0000,  0.0000)
  38 Li     8.725000    4.935605   12.935605    ( 0.0000,  0.0000,  0.0000)
  39 Li    12.215000    4.935605   12.935605    ( 0.0000,  0.0000,  0.0000)
  40 Li     0.000000    7.403408   12.935605    ( 0.0000,  0.0000,  0.0000)
  41 Li     3.490000    7.403408   12.935605    ( 0.0000,  0.0000,  0.0000)
  42 Li     6.980000    7.403408   12.935605    ( 0.0000,  0.0000,  0.0000)
  43 Li    10.470000    7.403408   12.935605    ( 0.0000,  0.0000,  0.0000)
  44 Li     1.745000    9.871211   12.935605    ( 0.0000,  0.0000,  0.0000)
  45 Li     5.235000    9.871211   12.935605    ( 0.0000,  0.0000,  0.0000)
  46 Li     8.725000    9.871211   12.935605    ( 0.0000,  0.0000,  0.0000)
  47 Li    12.215000    9.871211   12.935605    ( 0.0000,  0.0000,  0.0000)
  48 Li     0.011744    0.002891   15.786316    ( 0.0000,  0.0000,  0.0000)
  49 Li     3.494774    0.002589   15.793781    ( 0.0000,  0.0000,  0.0000)
  50 Li     6.973349    0.002786   15.792188    ( 0.0000,  0.0000,  0.0000)
  51 Li    10.444205   -0.000572   15.813587    ( 0.0000,  0.0000,  0.0000)
  52 Li     1.735787    2.450338   15.724316    ( 0.0000,  0.0000,  0.0000)
  53 Li     5.226637    2.448490   15.669391    ( 0.0000,  0.0000,  0.0000)
  54 Li     8.740487    2.442157   15.714945    ( 0.0000,  0.0000,  0.0000)
  55 Li    12.205479    2.446615   15.748704    ( 0.0000,  0.0000,  0.0000)
  56 Li     0.004941    4.935015   15.648738    ( 0.0000,  0.0000,  0.0000)
  57 Li     3.464748    4.932200   15.598753    ( 0.0000,  0.0000,  0.0000)
  58 Li     6.989091    4.930574   15.585829    ( 0.0000,  0.0000,  0.0000)
  59 Li    10.477366    4.938533   15.612416    ( 0.0000,  0.0000,  0.0000)
  60 Li     1.738187    7.400618   15.657331    ( 0.0000,  0.0000,  0.0000)
  61 Li     5.227266    7.398293   15.604220    ( 0.0000,  0.0000,  0.0000)
  62 Li     8.736465    7.403245   15.635807    ( 0.0000,  0.0000,  0.0000)
  63 Li    12.203474    7.397592   15.688704    ( 0.0000,  0.0000,  0.0000)
  64 Li    -0.001790    2.483287   18.486474    ( 0.0000,  0.0000,  0.0000)
  65 Li     3.493570    2.495361   18.436861    ( 0.0000,  0.0000,  0.0000)
  66 Li     6.964127    2.478064   18.386579    ( 0.0000,  0.0000,  0.0000)
  67 Li    10.450776    2.493335   18.542054    ( 0.0000,  0.0000,  0.0000)
  68 Li     1.771508    4.970282   18.345772    ( 0.0000,  0.0000,  0.0000)
  69 Li     5.232075    4.942312   18.225878    ( 0.0000,  0.0000,  0.0000)
  70 Li     8.731967    4.956060   18.229541    ( 0.0000,  0.0000,  0.0000)
  71 Li    12.205955    4.972035   18.314929    ( 0.0000,  0.0000,  0.0000)
  72 Li     0.010251    7.356290   18.389092    ( 0.0000,  0.0000,  0.0000)
  73 Li     3.509546    7.350150   18.320178    ( 0.0000,  0.0000,  0.0000)
  74 Li     6.978714    7.362042   18.294308    ( 0.0000,  0.0000,  0.0000)
  75 Li    10.420100    7.344589   18.437402    ( 0.0000,  0.0000,  0.0000)
  76 Li     1.762799    9.843936   18.610734    ( 0.0000,  0.0000,  0.0000)
  77 Li     5.221571    9.828238   18.618539    ( 0.0000,  0.0000,  0.0000)
  78 Li     8.697688    9.837154   18.657626    ( 0.0000,  0.0000,  0.0000)
  79 Li    12.205240    9.836922   18.529757    ( 0.0000,  0.0000,  0.0000)
  80 Li     0.019738    4.771529   20.936456    ( 0.0000,  0.0000,  0.0000)
  81 Li     3.634953    4.687428   21.018931    ( 0.0000,  0.0000,  0.0000)
  82 Li     7.030536    4.666996   20.778917    ( 0.0000,  0.0000,  0.0000)
  83 Li    10.415256    4.811053   20.982097    ( 0.0000,  0.0000,  0.0000)
  84 Li     1.838548    7.540698   21.010994    ( 0.0000,  0.0000,  0.0000)
  85 Li     5.257449    7.513048   20.992218    ( 0.0000,  0.0000,  0.0000)
  86 Li     8.564723    7.514449   21.145514    ( 0.0000,  0.0000,  0.0000)
  87 Li    12.213663    7.635066   21.006725    ( 0.0000,  0.0000,  0.0000)
  88 Li     5.936871    4.721604   22.929624    ( 0.0000,  0.0000,  0.0000)

Unit cell:
           periodic     x           y           z      points  spacing
  1. axis:    yes   13.960000    0.000000    0.000000    68     0.2053
  2. axis:    yes    0.000000    9.871211    0.000000    48     0.2057
  3. axis:    no     0.000000    0.000000   28.339013   140     0.2024

  Lengths:  13.960000   9.871211  28.339013
  Angles:   90.000000  90.000000  90.000000

Effective grid spacing dv^(1/3) = 0.2045

     iter     time        total  log10-change:
                         energy   eigst   dens
iter:   1 20:24:27  -143.007373        c
iter:   2 20:24:29  -143.007418        c -2.53
iter:   3 20:24:32  -143.005625c       c -2.75
iter:   4 20:24:35  -143.006444c       c -2.79
iter:   5 20:24:38  -143.006251c       c -3.25
iter:   6 20:24:41  -143.006229c       c -3.48
iter:   7 20:24:44  -143.006214c       c -3.64
iter:   8 20:24:46  -143.006214c       c -3.70
iter:   9 20:24:49  -143.006195c       c -3.91
iter:  10 20:24:52  -143.006279c       c -4.02c

Converged after 10 iterations.

Dipole moment: (-10.538086, -11.938559, 1.031140) |e|*Ang

Energy contributions relative to reference atoms: (reference = -18048.116001)

Kinetic:       +232.765613
Potential:     -197.287448
External:        +0.000000
XC:            -177.130675
Entropy (-ST):   -1.615932
Local:           -0.545803
SIC:             +0.000000
--------------------------
Free energy:   -143.814245
Extrapolated:  -143.006279

Showing all kpts
 Kpt  Band  Eigenvalues  Occupancy
  0    42     -2.70777    1.28684
  0    43     -2.62752    0.89428
  0    44     -2.60190    0.76995
  0    45     -2.58504    0.69182

  1    42     -2.70427    1.27070
  1    43     -2.63915    0.95207
  1    44     -2.60001    0.76103
  1    45     -2.58547    0.69376


Fermi level: -2.64874

Gap: 0.065 eV
Transition (v -> c):
  (s=0, k=1, n=42, [0.25, 0.25, 0.00]) -> (s=0, k=1, n=43, [0.25, 0.25, 0.00])
No difference between direct/indirect transitions

Forces in eV/Ang:
  0 Li    0.00034   -0.00203   -0.17044
  1 Li    0.00108   -0.00320   -0.17340
  2 Li   -0.00028   -0.00415   -0.17409
  3 Li   -0.00135   -0.00219   -0.17250
  4 Li    0.00173   -0.00534   -0.16434
  5 Li   -0.00032   -0.00358   -0.16686
  6 Li    0.00006   -0.00465   -0.16535
  7 Li   -0.00148   -0.00752   -0.16527
  8 Li    0.00316    0.00216   -0.16280
  9 Li    0.00138    0.00319   -0.16577
 10 Li   -0.00067    0.00373   -0.16655
 11 Li   -0.00400    0.00275   -0.16230
 12 Li    0.00304    0.00479   -0.16952
 13 Li    0.00062    0.00428   -0.17239
 14 Li   -0.00182    0.00433   -0.17123
 15 Li   -0.00150    0.00727   -0.16860
 16 Li   -0.00044   -0.00186   -0.08872
 17 Li   -0.00004   -0.00122   -0.09681
 18 Li    0.00082   -0.00157   -0.09442
 19 Li   -0.00001   -0.00105   -0.09812
 20 Li   -0.00046    0.00044   -0.09033
 21 Li    0.00017    0.00182   -0.08863
 22 Li   -0.00045    0.00057   -0.08986
 23 Li    0.00054    0.00160   -0.08775
 24 Li   -0.00173   -0.00389   -0.09293
 25 Li   -0.00037   -0.00450   -0.08080
 26 Li    0.00074   -0.00518   -0.07760
 27 Li    0.00150   -0.00439   -0.08681
 28 Li   -0.00070    0.00438   -0.08845
 29 Li    0.00034    0.00519   -0.08036
 30 Li   -0.00087    0.00494   -0.08292
 31 Li    0.00081    0.00430   -0.09195
 32 Li   -0.00355    0.00129    0.29130
 33 Li   -0.01389   -0.01516    0.26317
 34 Li    0.01008   -0.02054    0.26672
 35 Li    0.00524   -0.00931    0.27856
 36 Li   -0.01493   -0.00871    0.20392
 37 Li   -0.00823   -0.01168    0.19441
 38 Li    0.01365   -0.01016    0.20017
 39 Li    0.01084   -0.00791    0.23124
 40 Li   -0.00712    0.00594    0.25759
 41 Li   -0.02115    0.01874    0.22162
 42 Li    0.01192    0.02060    0.22404
 43 Li    0.01271    0.01646    0.23340
 44 Li    0.01078    0.00176    0.31531
 45 Li    0.00074    0.00860    0.29080
 46 Li   -0.00175    0.00479    0.31011
 47 Li   -0.01120   -0.00187    0.34180
 48 Li   -0.00543   -0.00726   -0.00089
 49 Li    0.00068   -0.00116    0.00794
 50 Li   -0.00049   -0.00707    0.00579
 51 Li    0.00664   -0.00848    0.00368
 52 Li    0.00376   -0.00022    0.00394
 53 Li   -0.00405   -0.00296    0.01871
 54 Li   -0.00045    0.00596   -0.00234
 55 Li   -0.00459    0.00442   -0.00398
 56 Li   -0.00264    0.00009   -0.00701
 57 Li    0.00675   -0.00268    0.00463
 58 Li   -0.00844   -0.00477    0.00760
 59 Li    0.01041   -0.00537   -0.00619
 60 Li   -0.00466    0.00579   -0.00985
 61 Li    0.00203    0.00973   -0.00322
 62 Li    0.00471    0.00917   -0.01442
 63 Li   -0.00265    0.01036   -0.00795
 64 Li   -0.00118    0.01983    0.00234
 65 Li   -0.00118    0.00184    0.02314
 66 Li    0.00335   -0.01487    0.02018
 67 Li   -0.00122    0.02220    0.00290
 68 Li   -0.00211   -0.00545   -0.01207
 69 Li   -0.01200    0.02231   -0.02666
 70 Li    0.02118   -0.00746   -0.03248
 71 Li   -0.00076   -0.00826    0.01501
 72 Li    0.00099    0.01120    0.00387
 73 Li   -0.01257    0.02563   -0.01902
 74 Li    0.01050    0.02676   -0.01972
 75 Li   -0.00107    0.02337    0.00261
 76 Li   -0.02549   -0.02529   -0.01101
 77 Li    0.00335   -0.00984    0.01589
 78 Li    0.01401   -0.02613    0.00800
 79 Li    0.00604   -0.00092   -0.00897
 80 Li   -0.01433   -0.00808    0.00819
 81 Li   -0.16447   -0.01374   -0.16631
 82 Li    0.33543    0.03138   -0.74083
 83 Li   -0.00702   -0.02946    0.01810
 84 Li   -0.01984   -0.01284   -0.00553
 85 Li    0.01813   -0.12060    0.07611
 86 Li    0.00645   -0.06846   -0.01091
 87 Li   -0.00247   -0.00662   -0.00411
 88 Li   -0.14404    0.18360    0.83862

System changes: positions 

Initializing position-dependent things.

Density initialized from wave functions
       .---------------------------------.  
      /|                                 |  
     / |                                 |  
    /  |                                 |  
   /   |                                 |  
  /    |                                 |  
 *     |                                 |  
 |     |                                 |  
 |     |                                 |  
 |     |                                 |  
 |     |  Li      Li      Li       Li    |  
 |     |          Li                     |  
 |  Li |   LiLi     Li      LLi      Li  |  
 |     |             Li                  |  
 |   Li|      Li      Li       Li        |  
 |     |Li       Li      Li     LiLi     |  
 |     |                                 |  
 |     |  LLi     LLi      LLi     LiLi  |  
 |     |                                 |  
 |  Li |    Li       Li       Li         |  
 |     Li      Li       Li      Li       |  
 |    Li  Li  Li  Li   Li      Li        |  
 Li    |Li       Li      Li       Li     |  
 |     |                                 |  
 |Li   |  LLi     LLi      LLi     Li    |  
 |  LLi|     LLi     LLi      LLi        |  
 |     |                                 |  
 |    LLi     LLi      LLi     LLi       |  
 Li    |LLi      LLi     LiLi     Li     |  
 |     |                                 |  
 |Li   |   Li      Li       Li           |  
 |   Li|      Li      Li       Li        |  
 |     |                                 |  
 |     |                                 |  
 |     |                                 |  
 |     .---------------------------------.  
 |    /                                 /   
 |   /                                 /    
 |  /                                 /     
 | /                                 /      
 |/                                 /       
 *---------------------------------*        

Atomic positions and initial magnetic moments

Positions:
   0 Li     0.000000    2.467803    8.000000    ( 0.0000,  0.0000,  0.0000)
   1 Li     3.490000    2.467803    8.000000    ( 0.0000,  0.0000,  0.0000)
   2 Li     6.980000    2.467803    8.000000    ( 0.0000,  0.0000,  0.0000)
   3 Li    10.470000    2.467803    8.000000    ( 0.0000,  0.0000,  0.0000)
   4 Li     1.745000    4.935605    8.000000    ( 0.0000,  0.0000,  0.0000)
   5 Li     5.235000    4.935605    8.000000    ( 0.0000,  0.0000,  0.0000)
   6 Li     8.725000    4.935605    8.000000    ( 0.0000,  0.0000,  0.0000)
   7 Li    12.215000    4.935605    8.000000    ( 0.0000,  0.0000,  0.0000)
   8 Li     0.000000    7.403408    8.000000    ( 0.0000,  0.0000,  0.0000)
   9 Li     3.490000    7.403408    8.000000    ( 0.0000,  0.0000,  0.0000)
  10 Li     6.980000    7.403408    8.000000    ( 0.0000,  0.0000,  0.0000)
  11 Li    10.470000    7.403408    8.000000    ( 0.0000,  0.0000,  0.0000)
  12 Li     1.745000    9.871211    8.000000    ( 0.0000,  0.0000,  0.0000)
  13 Li     5.235000    9.871211    8.000000    ( 0.0000,  0.0000,  0.0000)
  14 Li     8.725000    9.871211    8.000000    ( 0.0000,  0.0000,  0.0000)
  15 Li    12.215000    9.871211    8.000000    ( 0.0000,  0.0000,  0.0000)
  16 Li     0.000000    0.000000   10.467803    ( 0.0000,  0.0000,  0.0000)
  17 Li     3.490000    0.000000   10.467803    ( 0.0000,  0.0000,  0.0000)
  18 Li     6.980000    0.000000   10.467803    ( 0.0000,  0.0000,  0.0000)
  19 Li    10.470000    0.000000   10.467803    ( 0.0000,  0.0000,  0.0000)
  20 Li     1.745000    2.467803   10.467803    ( 0.0000,  0.0000,  0.0000)
  21 Li     5.235000    2.467803   10.467803    ( 0.0000,  0.0000,  0.0000)
  22 Li     8.725000    2.467803   10.467803    ( 0.0000,  0.0000,  0.0000)
  23 Li    12.215000    2.467803   10.467803    ( 0.0000,  0.0000,  0.0000)
  24 Li     0.000000    4.935605   10.467803    ( 0.0000,  0.0000,  0.0000)
  25 Li     3.490000    4.935605   10.467803    ( 0.0000,  0.0000,  0.0000)
  26 Li     6.980000    4.935605   10.467803    ( 0.0000,  0.0000,  0.0000)
  27 Li    10.470000    4.935605   10.467803    ( 0.0000,  0.0000,  0.0000)
  28 Li     1.745000    7.403408   10.467803    ( 0.0000,  0.0000,  0.0000)
  29 Li     5.235000    7.403408   10.467803    ( 0.0000,  0.0000,  0.0000)
  30 Li     8.725000    7.403408   10.467803    ( 0.0000,  0.0000,  0.0000)
  31 Li    12.215000    7.403408   10.467803    ( 0.0000,  0.0000,  0.0000)
  32 Li     0.000000    2.467803   12.935605    ( 0.0000,  0.0000,  0.0000)
  33 Li     3.490000    2.467803   12.935605    ( 0.0000,  0.0000,  0.0000)
  34 Li     6.980000    2.467803   12.935605    ( 0.0000,  0.0000,  0.0000)
  35 Li    10.470000    2.467803   12.935605    ( 0.0000,  0.0000,  0.0000)
  36 Li     1.745000    4.935605   12.935605    ( 0.0000,  0.0000,  0.0000)
  37 Li     5.235000    4.935605   12.935605    ( 0.0000,  0.0000,  0.0000)
  38 Li     8.725000    4.935605   12.935605    ( 0.0000,  0.0000,  0.0000)
  39 Li    12.215000    4.935605   12.935605    ( 0.0000,  0.0000,  0.0000)
  40 Li     0.000000    7.403408   12.935605    ( 0.0000,  0.0000,  0.0000)
  41 Li     3.490000    7.403408   12.935605    ( 0.0000,  0.0000,  0.0000)
  42 Li     6.980000    7.403408   12.935605    ( 0.0000,  0.0000,  0.0000)
  43 Li    10.470000    7.403408   12.935605    ( 0.0000,  0.0000,  0.0000)
  44 Li     1.745000    9.871211   12.935605    ( 0.0000,  0.0000,  0.0000)
  45 Li     5.235000    9.871211   12.935605    ( 0.0000,  0.0000,  0.0000)
  46 Li     8.725000    9.871211   12.935605    ( 0.0000,  0.0000,  0.0000)
  47 Li    12.215000    9.871211   12.935605    ( 0.0000,  0.0000,  0.0000)
  48 Li     0.011406    0.002599   15.786419    ( 0.0000,  0.0000,  0.0000)
  49 Li     3.494580    0.002551   15.793328    ( 0.0000,  0.0000,  0.0000)
  50 Li     6.973567    0.002477   15.791663    ( 0.0000,  0.0000,  0.0000)
  51 Li    10.444684   -0.000888   15.813701    ( 0.0000,  0.0000,  0.0000)
  52 Li     1.735986    2.450487   15.724575    ( 0.0000,  0.0000,  0.0000)
  53 Li     5.226520    2.448412   15.670340    ( 0.0000,  0.0000,  0.0000)
  54 Li     8.740398    2.442644   15.714986    ( 0.0000,  0.0000,  0.0000)
  55 Li    12.205325    2.446931   15.748521    ( 0.0000,  0.0000,  0.0000)
  56 Li     0.004835    4.935054   15.647986    ( 0.0000,  0.0000,  0.0000)
  57 Li     3.465289    4.932051   15.599167    ( 0.0000,  0.0000,  0.0000)
  58 Li     6.988605    4.930350   15.586380    ( 0.0000,  0.0000,  0.0000)
  59 Li    10.477714    4.938291   15.611974    ( 0.0000,  0.0000,  0.0000)
  60 Li     1.738077    7.400919   15.656664    ( 0.0000,  0.0000,  0.0000)
  61 Li     5.227420    7.398895   15.604253    ( 0.0000,  0.0000,  0.0000)
  62 Li     8.736527    7.403683   15.635103    ( 0.0000,  0.0000,  0.0000)
  63 Li    12.203437    7.398128   15.687935    ( 0.0000,  0.0000,  0.0000)
  64 Li    -0.001972    2.484293   18.486831    ( 0.0000,  0.0000,  0.0000)
  65 Li     3.493416    2.496042   18.438272    ( 0.0000,  0.0000,  0.0000)
  66 Li     6.964460    2.478381   18.388466    ( 0.0000,  0.0000,  0.0000)
  67 Li    10.451070    2.494329   18.542023    ( 0.0000,  0.0000,  0.0000)
  68 Li     1.770990    4.970147   18.344711    ( 0.0000,  0.0000,  0.0000)
  69 Li     5.231796    4.943001   18.226102    ( 0.0000,  0.0000,  0.0000)
  70 Li     8.732690    4.955833   18.228979    ( 0.0000,  0.0000,  0.0000)
  71 Li    12.206012    4.971875   18.315147    ( 0.0000,  0.0000,  0.0000)
  72 Li     0.010385    7.357387   18.388818    ( 0.0000,  0.0000,  0.0000)
  73 Li     3.508790    7.351319   18.319374    ( 0.0000,  0.0000,  0.0000)
  74 Li     6.979227    7.363084   18.293785    ( 0.0000,  0.0000,  0.0000)
  75 Li    10.420322    7.346373   18.436662    ( 0.0000,  0.0000,  0.0000)
  76 Li     1.762396    9.843146   18.609982    ( 0.0000,  0.0000,  0.0000)
  77 Li     5.221814    9.828137   18.617082    ( 0.0000,  0.0000,  0.0000)
  78 Li     8.697663    9.836386   18.657331    ( 0.0000,  0.0000,  0.0000)
  79 Li    12.205543    9.836957   18.530095    ( 0.0000,  0.0000,  0.0000)
  80 Li     0.019265    4.771773   20.936415    ( 0.0000,  0.0000,  0.0000)
  81 Li     3.626283    4.688188   21.010803    ( 0.0000,  0.0000,  0.0000)
  82 Li     7.047350    4.669853   20.742697    ( 0.0000,  0.0000,  0.0000)
  83 Li    10.414771    4.810139   20.982253    ( 0.0000,  0.0000,  0.0000)
  84 Li     1.837105    7.541584   21.010306    ( 0.0000,  0.0000,  0.0000)
  85 Li     5.258022    7.510979   20.994564    ( 0.0000,  0.0000,  0.0000)
  86 Li     8.565964    7.513039   21.143769    ( 0.0000,  0.0000,  0.0000)
  87 Li    12.213605    7.634487   21.006273    ( 0.0000,  0.0000,  0.0000)
  88 Li     5.924333    4.708596   22.956691    ( 0.0000,  0.0000,  0.0000)

Unit cell:
           periodic     x           y           z      points  spacing
  1. axis:    yes   13.960000    0.000000    0.000000    68     0.2053
  2. axis:    yes    0.000000    9.871211    0.000000    48     0.2057
  3. axis:    no     0.000000    0.000000   28.339013   140     0.2024

  Lengths:  13.960000   9.871211  28.339013
  Angles:   90.000000  90.000000  90.000000

Effective grid spacing dv^(1/3) = 0.2045

     iter     time        total  log10-change:
                         energy   eigst   dens
iter:   1 20:26:19  -143.060111        c
iter:   2 20:26:22  -143.066010        c -2.28
iter:   3 20:26:24  -143.057951c       c -2.20
iter:   4 20:26:27  -143.058737c       c -2.70
iter:   5 20:26:30  -143.058649c       c -3.18
iter:   6 20:26:33  -143.058577c       c -3.38
iter:   7 20:26:36  -143.058567c       c -3.54
iter:   8 20:26:38  -143.058592c       c -3.61
iter:   9 20:26:41  -143.058485c       c -3.76
iter:  10 20:26:44  -143.058605c       c -3.72
iter:  11 20:26:47  -143.058566c       c -3.93
iter:  12 20:26:50  -143.058571c       c -4.09c

Converged after 12 iterations.

Dipole moment: (-10.522029, -11.906955, 1.055111) |e|*Ang

Energy contributions relative to reference atoms: (reference = -18048.116001)

Kinetic:       +232.589126
Potential:     -197.193546
External:        +0.000000
XC:            -177.100583
Entropy (-ST):   -1.615901
Local:           -0.545618
SIC:             +0.000000
--------------------------
Free energy:   -143.866522
Extrapolated:  -143.058571

Showing all kpts
 Kpt  Band  Eigenvalues  Occupancy
  0    42     -2.70064    1.28684
  0    43     -2.62027    0.89365
  0    44     -2.59443    0.76836
  0    45     -2.57825    0.69337

  1    42     -2.69711    1.27057
  1    43     -2.63052    0.94455
  1    44     -2.59328    0.76292
  1    45     -2.57877    0.69570


Fermi level: -2.64162

Gap: 0.067 eV
Transition (v -> c):
  (s=0, k=1, n=42, [0.25, 0.25, 0.00]) -> (s=0, k=1, n=43, [0.25, 0.25, 0.00])
No difference between direct/indirect transitions

Forces in eV/Ang:
  0 Li    0.00042   -0.00198   -0.17045
  1 Li    0.00113   -0.00320   -0.17336
  2 Li   -0.00042   -0.00416   -0.17401
  3 Li   -0.00132   -0.00218   -0.17249
  4 Li    0.00178   -0.00533   -0.16436
  5 Li   -0.00041   -0.00357   -0.16692
  6 Li   -0.00006   -0.00463   -0.16527
  7 Li   -0.00139   -0.00756   -0.16516
  8 Li    0.00328    0.00212   -0.16283
  9 Li    0.00145    0.00316   -0.16576
 10 Li   -0.00081    0.00372   -0.16650
 11 Li   -0.00403    0.00272   -0.16226
 12 Li    0.00311    0.00482   -0.16952
 13 Li    0.00056    0.00427   -0.17231
 14 Li   -0.00190    0.00431   -0.17118
 15 Li   -0.00142    0.00732   -0.16875
 16 Li   -0.00046   -0.00182   -0.08866
 17 Li   -0.00004   -0.00120   -0.09670
 18 Li    0.00079   -0.00156   -0.09423
 19 Li    0.00005   -0.00102   -0.09794
 20 Li   -0.00043    0.00049   -0.09011
 21 Li    0.00016    0.00187   -0.08877
 22 Li   -0.00050    0.00062   -0.08965
 23 Li    0.00061    0.00159   -0.08753
 24 Li   -0.00168   -0.00392   -0.09282
 25 Li   -0.00036   -0.00449   -0.08073
 26 Li    0.00063   -0.00519   -0.07754
 27 Li    0.00148   -0.00439   -0.08653
 28 Li   -0.00070    0.00435   -0.08818
 29 Li    0.00031    0.00511   -0.08031
 30 Li   -0.00089    0.00487   -0.08278
 31 Li    0.00089    0.00428   -0.09174
 32 Li   -0.00369    0.00117    0.29142
 33 Li   -0.01367   -0.01517    0.26369
 34 Li    0.00983   -0.02047    0.26738
 35 Li    0.00535   -0.00949    0.27877
 36 Li   -0.01488   -0.00872    0.20406
 37 Li   -0.00813   -0.01168    0.19500
 38 Li    0.01340   -0.01006    0.20074
 39 Li    0.01096   -0.00790    0.23066
 40 Li   -0.00727    0.00600    0.25732
 41 Li   -0.02097    0.01867    0.22146
 42 Li    0.01187    0.02038    0.22396
 43 Li    0.01276    0.01654    0.23303
 44 Li    0.01057    0.00184    0.31509
 45 Li    0.00074    0.00874    0.29063
 46 Li   -0.00148    0.00481    0.31018
 47 Li   -0.01116   -0.00177    0.34187
 48 Li   -0.00487   -0.00593   -0.00110
 49 Li    0.00049   -0.00086    0.00788
 50 Li   -0.00020   -0.00599    0.00560
 51 Li    0.00593   -0.00724    0.00350
 52 Li    0.00306   -0.00080    0.00365
 53 Li   -0.00374   -0.00380    0.01903
 54 Li   -0.00028    0.00448   -0.00212
 55 Li   -0.00389    0.00377   -0.00369
 56 Li   -0.00296    0.00045   -0.00640
 57 Li    0.00543   -0.00176    0.00402
 58 Li   -0.00756   -0.00386    0.00904
 59 Li    0.01052   -0.00400   -0.00664
 60 Li   -0.00442    0.00513   -0.00949
 61 Li    0.00167    0.00947   -0.00387
 62 Li    0.00494    0.00810   -0.01430
 63 Li   -0.00264    0.00889   -0.00699
 64 Li    0.00025    0.01800    0.00292
 65 Li   -0.00136   -0.00099    0.02046
 66 Li    0.00315   -0.02390    0.01015
 67 Li   -0.00471    0.02130    0.00476
 68 Li   -0.00396   -0.00331   -0.01440
 69 Li   -0.01786    0.02489   -0.03850
 70 Li    0.03395   -0.00265   -0.05235
 71 Li   -0.00130   -0.00579    0.01447
 72 Li    0.00032    0.00856    0.00304
 73 Li   -0.01076    0.02364   -0.01748
 74 Li    0.00932    0.02767   -0.02247
 75 Li   -0.00295    0.01777    0.00409
 76 Li   -0.02497   -0.02175   -0.01079
 77 Li    0.00279   -0.01052    0.01772
 78 Li    0.01404   -0.02265    0.00852
 79 Li    0.00638    0.00091   -0.00871
 80 Li   -0.01474   -0.00804    0.00846
 81 Li   -0.13667   -0.01044   -0.15099
 82 Li    0.25342    0.03831   -0.57004
 83 Li    0.00169   -0.02942    0.01633
 84 Li   -0.01955   -0.01243   -0.00483
 85 Li    0.01880   -0.12915    0.07531
 86 Li    0.00915   -0.06282   -0.01161
 87 Li   -0.00326   -0.00665   -0.00348
 88 Li   -0.09807    0.17990    0.69813

System changes: positions 

Initializing position-dependent things.

Density initialized from wave functions
       .---------------------------------.  
      /|                                 |  
     / |                                 |  
    /  |                                 |  
   /   |                                 |  
  /    |                                 |  
 *     |                                 |  
 |     |                                 |  
 |     |                                 |  
 |     |                                 |  
 |     |  Li      Li      Li       Li    |  
 |     |          Li                     |  
 |  Li |   LiLi     Li      LLi      Li  |  
 |     |             Li                  |  
 |   Li|      Li      Li       Li        |  
 |     |Li       Li      Li     LiLi     |  
 |     |                                 |  
 |     |  LLi     LLi      LLi     LiLi  |  
 |     |                                 |  
 |  Li |    Li       Li       Li         |  
 |     Li      Li       Li      Li       |  
 |    Li  Li  Li  Li   Li      Li        |  
 Li    |Li       Li      Li       Li     |  
 |     |                                 |  
 |Li   |  LLi     LLi      LLi     Li    |  
 |  LLi|     LLi     LLi      LLi        |  
 |     |                                 |  
 |    LLi     LLi      LLi     LLi       |  
 Li    |LLi      LLi     LiLi     Li     |  
 |     |                                 |  
 |Li   |   Li      Li       Li           |  
 |   Li|      Li      Li       Li        |  
 |     |                                 |  
 |     |                                 |  
 |     |                                 |  
 |     .---------------------------------.  
 |    /                                 /   
 |   /                                 /    
 |  /                                 /     
 | /                                 /      
 |/                                 /       
 *---------------------------------*        

Atomic positions and initial magnetic moments

Positions:
   0 Li     0.000000    2.467803    8.000000    ( 0.0000,  0.0000,  0.0000)
   1 Li     3.490000    2.467803    8.000000    ( 0.0000,  0.0000,  0.0000)
   2 Li     6.980000    2.467803    8.000000    ( 0.0000,  0.0000,  0.0000)
   3 Li    10.470000    2.467803    8.000000    ( 0.0000,  0.0000,  0.0000)
   4 Li     1.745000    4.935605    8.000000    ( 0.0000,  0.0000,  0.0000)
   5 Li     5.235000    4.935605    8.000000    ( 0.0000,  0.0000,  0.0000)
   6 Li     8.725000    4.935605    8.000000    ( 0.0000,  0.0000,  0.0000)
   7 Li    12.215000    4.935605    8.000000    ( 0.0000,  0.0000,  0.0000)
   8 Li     0.000000    7.403408    8.000000    ( 0.0000,  0.0000,  0.0000)
   9 Li     3.490000    7.403408    8.000000    ( 0.0000,  0.0000,  0.0000)
  10 Li     6.980000    7.403408    8.000000    ( 0.0000,  0.0000,  0.0000)
  11 Li    10.470000    7.403408    8.000000    ( 0.0000,  0.0000,  0.0000)
  12 Li     1.745000    9.871211    8.000000    ( 0.0000,  0.0000,  0.0000)
  13 Li     5.235000    9.871211    8.000000    ( 0.0000,  0.0000,  0.0000)
  14 Li     8.725000    9.871211    8.000000    ( 0.0000,  0.0000,  0.0000)
[...]
  39 Li    12.215000    4.935605   12.935605    ( 0.0000,  0.0000,  0.0000)
  40 Li     0.000000    7.403408   12.935605    ( 0.0000,  0.0000,  0.0000)
  41 Li     3.490000    7.403408   12.935605    ( 0.0000,  0.0000,  0.0000)
  42 Li     6.980000    7.403408   12.935605    ( 0.0000,  0.0000,  0.0000)
  43 Li    10.470000    7.403408   12.935605    ( 0.0000,  0.0000,  0.0000)
  44 Li     1.745000    9.871211   12.935605    ( 0.0000,  0.0000,  0.0000)
  45 Li     5.235000    9.871211   12.935605    ( 0.0000,  0.0000,  0.0000)
  46 Li     8.725000    9.871211   12.935605    ( 0.0000,  0.0000,  0.0000)
  47 Li    12.215000    9.871211   12.935605    ( 0.0000,  0.0000,  0.0000)
  48 Li     0.007708    0.001934   15.785098    ( 0.0000,  0.0000,  0.0000)
  49 Li     3.492902    0.002668   15.792765    ( 0.0000,  0.0000,  0.0000)
  50 Li     6.976531    0.000697   15.788256    ( 0.0000,  0.0000,  0.0000)
  51 Li    10.449113   -0.002221   15.816334    ( 0.0000,  0.0000,  0.0000)
  52 Li     1.737083    2.450449   15.728212    ( 0.0000,  0.0000,  0.0000)
  53 Li     5.224056    2.443221   15.687437    ( 0.0000,  0.0000,  0.0000)
  54 Li     8.740594    2.444037   15.713117    ( 0.0000,  0.0000,  0.0000)
  55 Li    12.203862    2.450343   15.748748    ( 0.0000,  0.0000,  0.0000)
  56 Li     0.000595    4.936891   15.637786    ( 0.0000,  0.0000,  0.0000)
  57 Li     3.466599    4.932479   15.597853    ( 0.0000,  0.0000,  0.0000)
  58 Li     6.982464    4.929071   15.595241    ( 0.0000,  0.0000,  0.0000)
  59 Li    10.491247    4.938355   15.594936    ( 0.0000,  0.0000,  0.0000)
  60 Li     1.735826    7.404130   15.646015    ( 0.0000,  0.0000,  0.0000)
  61 Li     5.227796    7.408821   15.597364    ( 0.0000,  0.0000,  0.0000)
  62 Li     8.740336    7.408802   15.619522    ( 0.0000,  0.0000,  0.0000)
  63 Li    12.201694    7.401964   15.682446    ( 0.0000,  0.0000,  0.0000)
  64 Li    -0.000164    2.497110   18.494249    ( 0.0000,  0.0000,  0.0000)
  65 Li     3.490167    2.491933   18.453997    ( 0.0000,  0.0000,  0.0000)
  66 Li     6.967124    2.456524   18.390424    ( 0.0000,  0.0000,  0.0000)
  67 Li    10.444849    2.506263   18.547575    ( 0.0000,  0.0000,  0.0000)
  68 Li     1.755549    4.974792   18.315705    ( 0.0000,  0.0000,  0.0000)
  69 Li     5.211385    4.964477   18.180311    ( 0.0000,  0.0000,  0.0000)
  70 Li     8.785901    4.963229   18.141343    ( 0.0000,  0.0000,  0.0000)
  71 Li    12.206196    4.975167   18.320177    ( 0.0000,  0.0000,  0.0000)
  72 Li     0.008242    7.363552   18.383657    ( 0.0000,  0.0000,  0.0000)
  73 Li     3.502052    7.368252   18.311669    ( 0.0000,  0.0000,  0.0000)
  74 Li     6.983599    7.387002   18.271981    ( 0.0000,  0.0000,  0.0000)
  75 Li    10.418979    7.356564   18.435244    ( 0.0000,  0.0000,  0.0000)
  76 Li     1.746571    9.839156   18.595871    ( 0.0000,  0.0000,  0.0000)
  77 Li     5.221546    9.815509   18.622703    ( 0.0000,  0.0000,  0.0000)
  78 Li     8.708760    9.830290   18.658009    ( 0.0000,  0.0000,  0.0000)
  79 Li    12.210821    9.844277   18.531445    ( 0.0000,  0.0000,  0.0000)
  80 Li     0.007397    4.770119   20.940923    ( 0.0000,  0.0000,  0.0000)
  81 Li     3.555998    4.703804   20.921702    ( 0.0000,  0.0000,  0.0000)
  82 Li     7.131357    4.743467   20.556717    ( 0.0000,  0.0000,  0.0000)
  83 Li    10.435321    4.786196   20.984116    ( 0.0000,  0.0000,  0.0000)
  84 Li     1.814837    7.548356   21.003566    ( 0.0000,  0.0000,  0.0000)
  85 Li     5.270514    7.406409   21.047925    ( 0.0000,  0.0000,  0.0000)
  86 Li     8.597594    7.497932   21.119029    ( 0.0000,  0.0000,  0.0000)
  87 Li    12.209100    7.626885   21.002147    ( 0.0000,  0.0000,  0.0000)
  88 Li     5.832011    4.616450   23.177184    ( 0.0000,  0.0000,  0.0000)

Unit cell:
           periodic     x           y           z      points  spacing
  1. axis:    yes   13.960000    0.000000    0.000000    68     0.2053
  2. axis:    yes    0.000000    9.871211    0.000000    48     0.2057
  3. axis:    no     0.000000    0.000000   28.339013   140     0.2024

  Lengths:  13.960000   9.871211  28.339013
  Angles:   90.000000  90.000000  90.000000

Effective grid spacing dv^(1/3) = 0.2045

     iter     time        total  log10-change:
                         energy   eigst   dens
iter:   1 20:52:04  -143.207738        c
iter:   2 20:52:07  -143.207972        c -2.96
iter:   3 20:52:10  -143.207692c       c -3.21
iter:   4 20:52:12  -143.208076c       c -3.39
iter:   5 20:52:15  -143.207772c       c -3.29
iter:   6 20:52:18  -143.207800c       c -3.70
iter:   7 20:52:20  -143.207802c       c -3.90
iter:   8 20:52:23  -143.207789c       c -3.97
iter:   9 20:52:26  -143.207778c       c -4.25c

Converged after 9 iterations.

Dipole moment: (-10.218750, -11.718784, 1.197942) |e|*Ang

Energy contributions relative to reference atoms: (reference = -18048.116001)

Kinetic:       +231.814375
Potential:     -196.700179
External:        +0.000000
XC:            -176.967929
Entropy (-ST):   -1.614819
Local:           -0.546636
SIC:             +0.000000
--------------------------
Free energy:   -144.015188
Extrapolated:  -143.207778

Showing all kpts
 Kpt  Band  Eigenvalues  Occupancy
  0    42     -2.65924    1.28523
  0    43     -2.57962    0.89561
  0    44     -2.55017    0.75320
  0    45     -2.54039    0.70787

  1    42     -2.65606    1.27056
  1    43     -2.58422    0.91843
  1    44     -2.55399    0.77123
  1    45     -2.54055    0.70859


Fermi level: -2.60057

Gap: 0.072 eV
Transition (v -> c):
  (s=0, k=1, n=42, [0.25, 0.25, 0.00]) -> (s=0, k=1, n=43, [0.25, 0.25, 0.00])
No difference between direct/indirect transitions

Forces in eV/Ang:
  0 Li    0.00017   -0.00168   -0.17087
  1 Li    0.00123   -0.00308   -0.17376
  2 Li   -0.00044   -0.00402   -0.17397
  3 Li   -0.00093   -0.00235   -0.17289
  4 Li    0.00184   -0.00514   -0.16499
  5 Li   -0.00051   -0.00330   -0.16758
  6 Li   -0.00046   -0.00444   -0.16526
  7 Li   -0.00121   -0.00812   -0.16489
  8 Li    0.00364    0.00193   -0.16285
  9 Li    0.00174    0.00316   -0.16571
 10 Li   -0.00088    0.00363   -0.16669
 11 Li   -0.00457    0.00274   -0.16254
 12 Li    0.00314    0.00465   -0.16959
 13 Li    0.00033    0.00388   -0.17254
 14 Li   -0.00161    0.00409   -0.17125
 15 Li   -0.00154    0.00787   -0.16981
 16 Li   -0.00069   -0.00163   -0.08877
 17 Li    0.00007   -0.00112   -0.09641
 18 Li    0.00053   -0.00130   -0.09358
 19 Li    0.00046   -0.00107   -0.09857
 20 Li   -0.00035    0.00052   -0.08890
 21 Li    0.00056    0.00241   -0.08928
 22 Li   -0.00101    0.00096   -0.08802
 23 Li    0.00076    0.00134   -0.08757
 24 Li   -0.00139   -0.00417   -0.09335
 25 Li    0.00037   -0.00461   -0.08004
 26 Li   -0.00003   -0.00534   -0.07727
 27 Li    0.00094   -0.00457   -0.08514
 28 Li   -0.00097    0.00445   -0.08650
 29 Li    0.00021    0.00462   -0.07934
 30 Li   -0.00076    0.00447   -0.08190
 31 Li    0.00120    0.00476   -0.09233
 32 Li   -0.00527    0.00114    0.29251
 33 Li   -0.01045   -0.01609    0.26981
 34 Li    0.00467   -0.02034    0.27350
 35 Li    0.00776   -0.01201    0.27667
 36 Li   -0.01520   -0.00898    0.20071
 37 Li   -0.00732   -0.01307    0.20025
 38 Li    0.00981   -0.00992    0.20462
 39 Li    0.01533   -0.00742    0.21508
 40 Li   -0.01073    0.00605    0.25276
 41 Li   -0.02063    0.01892    0.21441
 42 Li    0.01056    0.01886    0.21623
 43 Li    0.01675    0.01856    0.22239
 44 Li    0.01116    0.00255    0.31351
 45 Li    0.00076    0.01161    0.28978
 46 Li   -0.00001    0.00569    0.30760
 47 Li   -0.01235   -0.00140    0.34236
 48 Li   -0.00140    0.00223   -0.00593
 49 Li    0.00190   -0.00097    0.00879
 50 Li    0.00017    0.00051    0.00591
 51 Li   -0.00138    0.00154    0.00289
 52 Li   -0.00281   -0.00003    0.00064
 53 Li   -0.00325   -0.00474    0.00328
 54 Li    0.00410   -0.00350   -0.00964
 55 Li   -0.00153    0.00111    0.00798
 56 Li   -0.00386    0.00068   -0.00688
 57 Li   -0.00917    0.00166   -0.01903
 58 Li   -0.00175    0.00055   -0.01977
 59 Li    0.02023    0.00091   -0.03120
 60 Li   -0.00133    0.00133   -0.00365
 61 Li   -0.00285    0.00521   -0.01436
 62 Li    0.00446    0.00250   -0.01589
 63 Li   -0.00327   -0.00007    0.00689
 64 Li    0.00001    0.00700    0.00686
 65 Li   -0.00239   -0.01026   -0.00532
 66 Li    0.00026    0.00396   -0.01458
 67 Li   -0.00219   -0.00204    0.00350
 68 Li   -0.00445    0.00386   -0.01655
 69 Li    0.00223    0.00702   -0.04997
 70 Li   -0.00087   -0.00550   -0.03789
 71 Li    0.00332    0.00010    0.00135
 72 Li   -0.00620   -0.00247   -0.00223
 73 Li   -0.00078    0.00609    0.00717
 74 Li    0.00165    0.00181   -0.00928
 75 Li    0.00414   -0.00077    0.00436
 76 Li   -0.02093    0.00243   -0.01040
 77 Li   -0.00538   -0.02235    0.04621
 78 Li    0.02074   -0.00080    0.00408
 79 Li    0.00061    0.00626   -0.00007
 80 Li   -0.00432   -0.00603    0.00433
 81 Li    0.02443   -0.02129   -0.00355
 82 Li   -0.06614   -0.00761    0.08372
 83 Li    0.01646   -0.01744   -0.00680
 84 Li   -0.00397   -0.00592   -0.00124
 85 Li    0.00654   -0.10001    0.03466
 86 Li    0.01881   -0.00906   -0.00108
 87 Li   -0.00416   -0.00111    0.00033
 88 Li    0.02964    0.17689    0.05604

System changes: positions 

Initializing position-dependent things.

Density initialized from wave functions
       .---------------------------------.  
      /|                                 |  
     / |                                 |  
    /  |                                 |  
   /   |                                 |  
  /    |                                 |  
 *     |                                 |  
 |     |                                 |  
 |     |                                 |  
 |     |                                 |  
 |     |  Li      Li       Li      Li    |  
 |     |          Li                     |  
 |  Li |   LiLi     Li      LLi      Li  |  
 |     |             Li                  |  
 |   Li|      Li      Li       Li        |  
 |     |Li                      LiLi     |  
 |     |         Li      Li              |  
 | Li  |  LLi     LLi      LLi     Li    |  
 |     |                                 |  
 |  Li |    Li       Li       Li         |  
 |     Li      Li       Li      Li       |  
 |    Li  Li  Li  Li   Li      Li        |  
 Li    |Li       Li      Li       Li     |  
 |     |                                 |  
 |Li   |  LLi     LLi      LLi     Li    |  
 |  LLi|     LLi     LLi      LLi        |  
 |     |                                 |  
 |    LLi     LLi      LLi     LLi       |  
 Li    |LLi      LLi     LiLi     Li     |  
 |     |                                 |  
 |Li   |   Li      Li       Li           |  
 |   Li|      Li      Li       Li        |  
 |     |                                 |  
 |     |                                 |  
 |     |                                 |  
 |     .---------------------------------.  
 |    /                                 /   
 |   /                                 /    
 |  /                                 /     
 | /                                 /      
 |/                                 /       
 *---------------------------------*        

Atomic positions and initial magnetic moments

Positions:
   0 Li     0.000000    2.467803    8.000000    ( 0.0000,  0.0000,  0.0000)
   1 Li     3.490000    2.467803    8.000000    ( 0.0000,  0.0000,  0.0000)
   2 Li     6.980000    2.467803    8.000000    ( 0.0000,  0.0000,  0.0000)
   3 Li    10.470000    2.467803    8.000000    ( 0.0000,  0.0000,  0.0000)
   4 Li     1.745000    4.935605    8.000000    ( 0.0000,  0.0000,  0.0000)
   5 Li     5.235000    4.935605    8.000000    ( 0.0000,  0.0000,  0.0000)
   6 Li     8.725000    4.935605    8.000000    ( 0.0000,  0.0000,  0.0000)
   7 Li    12.215000    4.935605    8.000000    ( 0.0000,  0.0000,  0.0000)
   8 Li     0.000000    7.403408    8.000000    ( 0.0000,  0.0000,  0.0000)
   9 Li     3.490000    7.403408    8.000000    ( 0.0000,  0.0000,  0.0000)
  10 Li     6.980000    7.403408    8.000000    ( 0.0000,  0.0000,  0.0000)
  11 Li    10.470000    7.403408    8.000000    ( 0.0000,  0.0000,  0.0000)
  12 Li     1.745000    9.871211    8.000000    ( 0.0000,  0.0000,  0.0000)
  13 Li     5.235000    9.871211    8.000000    ( 0.0000,  0.0000,  0.0000)
  14 Li     8.725000    9.871211    8.000000    ( 0.0000,  0.0000,  0.0000)
  15 Li    12.215000    9.871211    8.000000    ( 0.0000,  0.0000,  0.0000)
  16 Li     0.000000    0.000000   10.467803    ( 0.0000,  0.0000,  0.0000)
  17 Li     3.490000    0.000000   10.467803    ( 0.0000,  0.0000,  0.0000)
  18 Li     6.980000    0.000000   10.467803    ( 0.0000,  0.0000,  0.0000)
  19 Li    10.470000    0.000000   10.467803    ( 0.0000,  0.0000,  0.0000)
  20 Li     1.745000    2.467803   10.467803    ( 0.0000,  0.0000,  0.0000)
  21 Li     5.235000    2.467803   10.467803    ( 0.0000,  0.0000,  0.0000)
  22 Li     8.725000    2.467803   10.467803    ( 0.0000,  0.0000,  0.0000)
  23 Li    12.215000    2.467803   10.467803    ( 0.0000,  0.0000,  0.0000)
  24 Li     0.000000    4.935605   10.467803    ( 0.0000,  0.0000,  0.0000)
  25 Li     3.490000    4.935605   10.467803    ( 0.0000,  0.0000,  0.0000)
  26 Li     6.980000    4.935605   10.467803    ( 0.0000,  0.0000,  0.0000)
  27 Li    10.470000    4.935605   10.467803    ( 0.0000,  0.0000,  0.0000)
  28 Li     1.745000    7.403408   10.467803    ( 0.0000,  0.0000,  0.0000)
  29 Li     5.235000    7.403408   10.467803    ( 0.0000,  0.0000,  0.0000)
  30 Li     8.725000    7.403408   10.467803    ( 0.0000,  0.0000,  0.0000)
  31 Li    12.215000    7.403408   10.467803    ( 0.0000,  0.0000,  0.0000)
  32 Li     0.000000    2.467803   12.935605    ( 0.0000,  0.0000,  0.0000)
  33 Li     3.490000    2.467803   12.935605    ( 0.0000,  0.0000,  0.0000)
  34 Li     6.980000    2.467803   12.935605    ( 0.0000,  0.0000,  0.0000)
  35 Li    10.470000    2.467803   12.935605    ( 0.0000,  0.0000,  0.0000)
  36 Li     1.745000    4.935605   12.935605    ( 0.0000,  0.0000,  0.0000)
  37 Li     5.235000    4.935605   12.935605    ( 0.0000,  0.0000,  0.0000)
  38 Li     8.725000    4.935605   12.935605    ( 0.0000,  0.0000,  0.0000)
  39 Li    12.215000    4.935605   12.935605    ( 0.0000,  0.0000,  0.0000)
  40 Li     0.000000    7.403408   12.935605    ( 0.0000,  0.0000,  0.0000)
  41 Li     3.490000    7.403408   12.935605    ( 0.0000,  0.0000,  0.0000)
  42 Li     6.980000    7.403408   12.935605    ( 0.0000,  0.0000,  0.0000)
  43 Li    10.470000    7.403408   12.935605    ( 0.0000,  0.0000,  0.0000)
  44 Li     1.745000    9.871211   12.935605    ( 0.0000,  0.0000,  0.0000)
  45 Li     5.235000    9.871211   12.935605    ( 0.0000,  0.0000,  0.0000)
  46 Li     8.725000    9.871211   12.935605    ( 0.0000,  0.0000,  0.0000)
  47 Li    12.215000    9.871211   12.935605    ( 0.0000,  0.0000,  0.0000)
  48 Li     0.007621    0.002260   15.784625    ( 0.0000,  0.0000,  0.0000)
  49 Li     3.492998    0.002654   15.793334    ( 0.0000,  0.0000,  0.0000)
  50 Li     6.976647    0.000875   15.788519    ( 0.0000,  0.0000,  0.0000)
  51 Li    10.449009   -0.001940   15.816571    ( 0.0000,  0.0000,  0.0000)
  52 Li     1.736904    2.450403   15.728380    ( 0.0000,  0.0000,  0.0000)
  53 Li     5.223828    2.442699   15.688154    ( 0.0000,  0.0000,  0.0000)
  54 Li     8.740844    2.443600   15.712492    ( 0.0000,  0.0000,  0.0000)
  55 Li    12.203787    2.450464   15.749406    ( 0.0000,  0.0000,  0.0000)
  56 Li     0.000146    4.937036   15.637102    ( 0.0000,  0.0000,  0.0000)
  57 Li     3.465833    4.932678   15.596450    ( 0.0000,  0.0000,  0.0000)
  58 Li     6.982229    4.929166   15.594415    ( 0.0000,  0.0000,  0.0000)
  59 Li    10.493119    4.938582   15.592127    ( 0.0000,  0.0000,  0.0000)
  60 Li     1.735715    7.404220   15.645496    ( 0.0000,  0.0000,  0.0000)
  61 Li     5.227557    7.409403   15.596086    ( 0.0000,  0.0000,  0.0000)
  62 Li     8.740748    7.409017   15.618048    ( 0.0000,  0.0000,  0.0000)
  63 Li    12.201437    7.401801   15.682969    ( 0.0000,  0.0000,  0.0000)
  64 Li     0.000033    2.497652   18.494949    ( 0.0000,  0.0000,  0.0000)
  65 Li     3.489850    2.490723   18.454158    ( 0.0000,  0.0000,  0.0000)
  66 Li     6.967109    2.455996   18.389608    ( 0.0000,  0.0000,  0.0000)
  67 Li    10.444340    2.506062   18.548063    ( 0.0000,  0.0000,  0.0000)
  68 Li     1.754320    4.975487   18.313216    ( 0.0000,  0.0000,  0.0000)
  69 Li     5.210769    4.965539   18.175312    ( 0.0000,  0.0000,  0.0000)
  70 Li     8.788580    4.963435   18.134096    ( 0.0000,  0.0000,  0.0000)
  71 Li    12.206481    4.975568   18.320245    ( 0.0000,  0.0000,  0.0000)
  72 Li     0.007647    7.363173   18.383242    ( 0.0000,  0.0000,  0.0000)
  73 Li     3.502047    7.368946   18.312233    ( 0.0000,  0.0000,  0.0000)
  74 Li     6.983557    7.387986   18.270512    ( 0.0000,  0.0000,  0.0000)
  75 Li    10.419115    7.356137   18.435733    ( 0.0000,  0.0000,  0.0000)
  76 Li     1.744854    9.839789   18.594737    ( 0.0000,  0.0000,  0.0000)
  77 Li     5.221012    9.813496   18.626083    ( 0.0000,  0.0000,  0.0000)
  78 Li     8.710604    9.830572   18.658128    ( 0.0000,  0.0000,  0.0000)
  79 Li    12.210931    9.845104   18.531536    ( 0.0000,  0.0000,  0.0000)
  80 Li     0.006723    4.769653   20.941378    ( 0.0000,  0.0000,  0.0000)
  81 Li     3.558085    4.704177   20.921457    ( 0.0000,  0.0000,  0.0000)
  82 Li     7.123283    4.747149   20.571793    ( 0.0000,  0.0000,  0.0000)
  83 Li    10.437967    4.784389   20.983542    ( 0.0000,  0.0000,  0.0000)
  84 Li     1.813830    7.548561   21.003360    ( 0.0000,  0.0000,  0.0000)
  85 Li     5.271045    7.396876   21.051222    ( 0.0000,  0.0000,  0.0000)
  86 Li     8.600722    7.498959   21.118129    ( 0.0000,  0.0000,  0.0000)
  87 Li    12.208655    7.626711   21.002147    ( 0.0000,  0.0000,  0.0000)
  88 Li     5.832795    4.619232   23.172581    ( 0.0000,  0.0000,  0.0000)

Unit cell:
           periodic     x           y           z      points  spacing
  1. axis:    yes   13.960000    0.000000    0.000000    68     0.2053
  2. axis:    yes    0.000000    9.871211    0.000000    48     0.2057
  3. axis:    no     0.000000    0.000000   28.339013   140     0.2024

  Lengths:  13.960000   9.871211  28.339013
  Angles:   90.000000  90.000000  90.000000

Effective grid spacing dv^(1/3) = 0.2045

     iter     time        total  log10-change:
                         energy   eigst   dens
iter:   1 20:53:31  -143.211307        c
iter:   2 20:53:33  -143.213004        c -2.83
iter:   3 20:53:36  -143.211423c       c -2.79
iter:   4 20:53:39  -143.211825c       c -3.10
iter:   5 20:53:41  -143.211728c       c -3.44
iter:   6 20:53:44  -143.211743c       c -3.65
iter:   7 20:53:47  -143.211745c       c -3.85
iter:   8 20:53:49  -143.211723c       c -3.92
iter:   9 20:53:52  -143.211737c       c -4.19c

Converged after 9 iterations.

Dipole moment: (-10.196647, -11.729405, 1.195217) |e|*Ang

Energy contributions relative to reference atoms: (reference = -18048.116001)

Kinetic:       +231.847191
Potential:     -196.727927
External:        +0.000000
XC:            -176.977128
Entropy (-ST):   -1.614500
Local:           -0.546623
SIC:             +0.000000
--------------------------
Free energy:   -144.018987
Extrapolated:  -143.211737

Showing all kpts
 Kpt  Band  Eigenvalues  Occupancy
  0    42     -2.66047    1.28695
  0    43     -2.58018    0.89422
  0    44     -2.55105    0.75337
  0    45     -2.54125    0.70790

  1    42     -2.65731    1.27238
  1    43     -2.58534    0.91976
  1    44     -2.55446    0.76941
  1    45     -2.54137    0.70845


Fermi level: -2.60142

Gap: 0.072 eV
Transition (v -> c):
  (s=0, k=1, n=42, [0.25, 0.25, 0.00]) -> (s=0, k=1, n=43, [0.25, 0.25, 0.00])
No difference between direct/indirect transitions
