
  ___ ___ ___ _ _ _  
 |   |   |_  | | | | 
 | | | | | . | | | | 
 |__ |  _|___|_____|  25.7.0
 |___|_|             

User:   tew@Mathuss-MacBook-Air-357.local
Date:   Mon Dec  1 20:16:38 2025
Arch:   arm64
Pid:    60975
CWD:    /Users/tew/Documents/Project/GitHub/chem-com/step_v4
Python: 3.13.5
gpaw:   /Users/tew/Documents/Project/GitHub/chem-com/.venv/lib/python3.13/site-packages/gpaw
_gpaw:  /Users/tew/Documents/Project/GitHub/chem-com/.venv/lib/python3.13/site-packages/
        _gpaw.cpython-313-darwin.so
ase:    /Users/tew/Documents/Project/GitHub/chem-com/.venv/lib/python3.13/site-packages/ase (version 3.26.0)
numpy:  /Users/tew/Documents/Project/GitHub/chem-com/.venv/lib/python3.13/site-packages/numpy (version 2.2.6)
scipy:  /Users/tew/Documents/Project/GitHub/chem-com/.venv/lib/python3.13/site-packages/scipy (version 1.16.3)
libxc:  2.x.y
units:  Angstrom and eV
cores: 1
OpenMP: False
OMP_NUM_THREADS: 1

Input parameters:
  kpts: [2 2 1]
  mode: {interpolation: 3,
         name: lcao}
  occupations: {name: fermi-dirac,
                width: 0.1}
  xc: PBE

System changes: positions, numbers, cell, pbc, initial_charges, initial_magmoms 

Initialize ...

species:
  Li:
    name: Lithium
    id: 830b4218f175192f93f959cfc0aad614
    Z: 3.0
    valence: 1
    core: 2
    charge: 0.0
    file: /Users/tew/Documents/Project/GitHub/chem-com/.venv/lib/python3.13/site-packages/gpaw_data/setups/Li.PBE.gz
    compensation charges: {type: gauss,
                           rc: 0.33,
                           lmax: 2}
    cutoffs: {filter: 1.91,
              core: 2.55}
    projectors:
      #              energy  rcut
      - 2s(1.00)    -2.874   1.058
      - 2p(0.00)    -1.090   1.058
      -  s          24.337   1.058
  
    # Using partial waves for Li as LCAO basis

Reference energy: -18048.116001  # eV

Spin-paired calculation

Convergence criteria:
 Maximum [total energy] change in last 3 cyles: 0.0005 eV / valence electron
 Maximum integral of absolute [dens]ity change: 0.0001 electrons / valence electron
 Maximum integral of absolute [eigenst]ate change: 4e-08 eV^2 / valence electron
 Maximum number of scf [iter]ations: 333
 (Square brackets indicate name in SCF output, whereas a 'c' in
 the SCF output indicates the quantity has converged.)

Symmetries present (total): 1

  ( 1  0  0)
  ( 0  1  0)
  ( 0  0  1)

4 k-points: 2 x 2 x 1 Monkhorst-Pack grid
2 k-points in the irreducible part of the Brillouin zone
       k-points in crystal coordinates                weights
   0:     0.25000000   -0.25000000    0.00000000          2/4
   1:     0.25000000    0.25000000    0.00000000          2/4

Wave functions: LCAO
  Diagonalizer: Serial LAPACK
  Atomic Correction: dense with blas
  Data-type: complex
 

Occupation numbers: Fermi-Dirac:
  width: 0.1000  # eV
 

Eigensolver
   LCAO using direct dense diagonalizer 

Densities:
  Coarse grid: 68*48*140 grid
  Fine grid: 136*96*280 grid
  Total Charge: 0.000000 

Density mixing:
  Method: separate
  Backend: pulay
  Linear mixing parameter: 0.05
  old densities: 5
  Damping of long wavelength oscillations: 50 

Hamiltonian:
  XC and Coulomb potentials evaluated on a 136*96*280 grid
  Using the PBE Exchange-Correlation functional
  Interpolation: tri-quintic (5. degree polynomial)
  Poisson solver: FastPoissonSolver using
    Stencil: 6*3+1=19 point O(h^6) finite-difference Laplacian
    FFT axes: [np.int64(0), np.int64(1)]
    FST axes: [np.int64(2)]
 

XC parameters: PBE with 2 nearest neighbor stencil

Memory estimate:
  Process memory now: 2858.64 MiB
  Calculator: 544.81 MiB
    Density: 357.68 MiB
      Arrays: 90.30 MiB
      Localized functions: 232.77 MiB
      Mixer: 34.61 MiB
    Hamiltonian: 77.45 MiB
      Arrays: 59.04 MiB
      XC: 0.00 MiB
      Poisson: 0.00 MiB
      vbar: 18.41 MiB
    Wavefunctions: 109.67 MiB
      C [qnM]: 0.63 MiB
      S, T [2 x qmm]: 7.74 MiB
      P [aqMi]: 0.30 MiB
      BasisFunctions: 101.00 MiB
      Eigensolver: 0.00 MiB

Total number of cores used: 1

Number of atoms: 89
Number of atomic orbitals: 356
Number of bands in calculation: 58
Number of valence electrons: 89
Bands to converge: occupied

... initialized

Initializing position-dependent things.

Density initialized from atomic densities
       .---------------------------------.  
      /|                                 |  
     / |                                 |  
    /  |                                 |  
   /   |                                 |  
  /    |                                 |  
 *     |                                 |  
 |     |                                 |  
 |     |            Li                   |  
 |     |                                 |  
 |     |  Li              Li       Li    |  
 |     |          Li                     |  
 |  Li |   LiLi     Li      LLi      Li  |  
 |     |             Li                  |  
 |   Li|      Li      Li       Li        |  
 |     |Li               Li     LiLi     |  
 |     |         Li                      |  
 | Li  |  LLi     LLi      LLi     Li    |  
 |     |                                 |  
 |  Li |    Li       Li       Li         |  
 |     Li      Li       Li      Li       |  
 |    Li  Li  Li  Li   Li      Li        |  
 Li    |Li       Li      Li       Li     |  
 |     |                                 |  
 |Li   |  LLi     LLi      LLi     Li    |  
 |  LLi|     LLi     LLi      LLi        |  
 |     |                                 |  
 |    LLi     LLi      LLi     LLi       |  
 Li    |LLi      LLi     LiLi     Li     |  
 |     |                                 |  
 |Li   |   Li      Li       Li           |  
 |   Li|      Li      Li       Li        |  
 |     |                                 |  
 |     |                                 |  
 |     |                                 |  
 |     .---------------------------------.  
 |    /                                 /   
 |   /                                 /    
 |  /                                 /     
 | /                                 /      
 |/                                 /       
 *---------------------------------*        

Atomic positions and initial magnetic moments

Positions:
   0 Li     0.000000    2.467803    8.000000    ( 0.0000,  0.0000,  0.0000)
   1 Li     3.490000    2.467803    8.000000    ( 0.0000,  0.0000,  0.0000)
   2 Li     6.980000    2.467803    8.000000    ( 0.0000,  0.0000,  0.0000)
   3 Li    10.470000    2.467803    8.000000    ( 0.0000,  0.0000,  0.0000)
   4 Li     1.745000    4.935605    8.000000    ( 0.0000,  0.0000,  0.0000)
   5 Li     5.235000    4.935605    8.000000    ( 0.0000,  0.0000,  0.0000)
   6 Li     8.725000    4.935605    8.000000    ( 0.0000,  0.0000,  0.0000)
   7 Li    12.215000    4.935605    8.000000    ( 0.0000,  0.0000,  0.0000)
   8 Li     0.000000    7.403408    8.000000    ( 0.0000,  0.0000,  0.0000)
   9 Li     3.490000    7.403408    8.000000    ( 0.0000,  0.0000,  0.0000)
  10 Li     6.980000    7.403408    8.000000    ( 0.0000,  0.0000,  0.0000)
  11 Li    10.470000    7.403408    8.000000    ( 0.0000,  0.0000,  0.0000)
  12 Li     1.745000    9.871211    8.000000    ( 0.0000,  0.0000,  0.0000)
  13 Li     5.235000    9.871211    8.000000    ( 0.0000,  0.0000,  0.0000)
  14 Li     8.725000    9.871211    8.000000    ( 0.0000,  0.0000,  0.0000)
  15 Li    12.215000    9.871211    8.000000    ( 0.0000,  0.0000,  0.0000)
  16 Li     0.000000    0.000000   10.467803    ( 0.0000,  0.0000,  0.0000)
  17 Li     3.490000    0.000000   10.467803    ( 0.0000,  0.0000,  0.0000)
  18 Li     6.980000    0.000000   10.467803    ( 0.0000,  0.0000,  0.0000)
  19 Li    10.470000    0.000000   10.467803    ( 0.0000,  0.0000,  0.0000)
  20 Li     1.745000    2.467803   10.467803    ( 0.0000,  0.0000,  0.0000)
  21 Li     5.235000    2.467803   10.467803    ( 0.0000,  0.0000,  0.0000)
  22 Li     8.725000    2.467803   10.467803    ( 0.0000,  0.0000,  0.0000)
  23 Li    12.215000    2.467803   10.467803    ( 0.0000,  0.0000,  0.0000)
  24 Li     0.000000    4.935605   10.467803    ( 0.0000,  0.0000,  0.0000)
  25 Li     3.490000    4.935605   10.467803    ( 0.0000,  0.0000,  0.0000)
  26 Li     6.980000    4.935605   10.467803    ( 0.0000,  0.0000,  0.0000)
  27 Li    10.470000    4.935605   10.467803    ( 0.0000,  0.0000,  0.0000)
  28 Li     1.745000    7.403408   10.467803    ( 0.0000,  0.0000,  0.0000)
  29 Li     5.235000    7.403408   10.467803    ( 0.0000,  0.0000,  0.0000)
  30 Li     8.725000    7.403408   10.467803    ( 0.0000,  0.0000,  0.0000)
  31 Li    12.215000    7.403408   10.467803    ( 0.0000,  0.0000,  0.0000)
  32 Li     0.000000    2.467803   12.935605    ( 0.0000,  0.0000,  0.0000)
  33 Li     3.490000    2.467803   12.935605    ( 0.0000,  0.0000,  0.0000)
  34 Li     6.980000    2.467803   12.935605    ( 0.0000,  0.0000,  0.0000)
  35 Li    10.470000    2.467803   12.935605    ( 0.0000,  0.0000,  0.0000)
  36 Li     1.745000    4.935605   12.935605    ( 0.0000,  0.0000,  0.0000)
  37 Li     5.235000    4.935605   12.935605    ( 0.0000,  0.0000,  0.0000)
  38 Li     8.725000    4.935605   12.935605    ( 0.0000,  0.0000,  0.0000)
  39 Li    12.215000    4.935605   12.935605    ( 0.0000,  0.0000,  0.0000)
  40 Li     0.000000    7.403408   12.935605    ( 0.0000,  0.0000,  0.0000)
  41 Li     3.490000    7.403408   12.935605    ( 0.0000,  0.0000,  0.0000)
  42 Li     6.980000    7.403408   12.935605    ( 0.0000,  0.0000,  0.0000)
  43 Li    10.470000    7.403408   12.935605    ( 0.0000,  0.0000,  0.0000)
  44 Li     1.745000    9.871211   12.935605    ( 0.0000,  0.0000,  0.0000)
  45 Li     5.235000    9.871211   12.935605    ( 0.0000,  0.0000,  0.0000)
  46 Li     8.725000    9.871211   12.935605    ( 0.0000,  0.0000,  0.0000)
  47 Li    12.215000    9.871211   12.935605    ( 0.0000,  0.0000,  0.0000)
  48 Li     0.017189    0.001080   15.779321    ( 0.0000,  0.0000,  0.0000)
  49 Li     3.506757    0.001821   15.835062    ( 0.0000,  0.0000,  0.0000)
  50 Li     6.960685    0.002654   15.833069    ( 0.0000,  0.0000,  0.0000)
  51 Li    10.433787   -0.003497   15.815696    ( 0.0000,  0.0000,  0.0000)
  52 Li     1.734192    2.442810   15.719693    ( 0.0000,  0.0000,  0.0000)
  53 Li     5.224074    2.447705   15.658513    ( 0.0000,  0.0000,  0.0000)
  54 Li     8.743944    2.431191   15.707635    ( 0.0000,  0.0000,  0.0000)
  55 Li    12.202628    2.440158   15.749616    ( 0.0000,  0.0000,  0.0000)
  56 Li     0.005315    4.932584   15.672636    ( 0.0000,  0.0000,  0.0000)
  57 Li     3.452826    4.933001   15.587830    ( 0.0000,  0.0000,  0.0000)
  58 Li     6.995467    4.930974   15.570410    ( 0.0000,  0.0000,  0.0000)
  59 Li    10.480632    4.937876   15.623507    ( 0.0000,  0.0000,  0.0000)
  60 Li     1.733569    7.398083   15.671176    ( 0.0000,  0.0000,  0.0000)
  61 Li     5.224351    7.387214   15.597354    ( 0.0000,  0.0000,  0.0000)
  62 Li     8.742762    7.401304   15.642507    ( 0.0000,  0.0000,  0.0000)
  63 Li    12.199693    7.393479   15.710894    ( 0.0000,  0.0000,  0.0000)
  64 Li     0.002997    2.474950   18.471777    ( 0.0000,  0.0000,  0.0000)
  65 Li     3.500836    2.467661   18.418732    ( 0.0000,  0.0000,  0.0000)
  66 Li     6.952391    2.444992   18.350347    ( 0.0000,  0.0000,  0.0000)
  67 Li    10.438631    2.488443   18.546786    ( 0.0000,  0.0000,  0.0000)
  68 Li     1.796709    4.963384   18.380083    ( 0.0000,  0.0000,  0.0000)
  69 Li     5.231372    4.948568   18.180897    ( 0.0000,  0.0000,  0.0000)
  70 Li     8.718071    4.944719   18.223188    ( 0.0000,  0.0000,  0.0000)
  71 Li    12.202775    4.959449   18.336438    ( 0.0000,  0.0000,  0.0000)
  72 Li     0.006714    7.325897   18.414022    ( 0.0000,  0.0000,  0.0000)
  73 Li     3.519522    7.345737   18.320427    ( 0.0000,  0.0000,  0.0000)
  74 Li     6.975377    7.361992   18.285158    ( 0.0000,  0.0000,  0.0000)
  75 Li    10.409529    7.308784   18.479568    ( 0.0000,  0.0000,  0.0000)
  76 Li     1.729146    9.826391   18.626920    ( 0.0000,  0.0000,  0.0000)
  77 Li     5.216583    9.814833   18.726532    ( 0.0000,  0.0000,  0.0000)
  78 Li     8.729015    9.817272   18.688650    ( 0.0000,  0.0000,  0.0000)
  79 Li    12.201400    9.830366   18.492686    ( 0.0000,  0.0000,  0.0000)
  80 Li     0.014616    4.741603   20.955044    ( 0.0000,  0.0000,  0.0000)
  81 Li     3.690173    4.620973   21.068208    ( 0.0000,  0.0000,  0.0000)
  82 Li     7.021922    4.590366   20.810779    ( 0.0000,  0.0000,  0.0000)
  83 Li    10.410973    4.796619   21.015443    ( 0.0000,  0.0000,  0.0000)
  84 Li     1.871016    7.466769   21.033160    ( 0.0000,  0.0000,  0.0000)
  85 Li     5.263884    7.381352   21.029522    ( 0.0000,  0.0000,  0.0000)
  86 Li     8.510473    7.436521   21.214653    ( 0.0000,  0.0000,  0.0000)
  87 Li    12.213273    7.651658   21.020758    ( 0.0000,  0.0000,  0.0000)
  88 Li     6.198564    5.770383   23.527896    ( 0.0000,  0.0000,  0.0000)

Unit cell:
           periodic     x           y           z      points  spacing
  1. axis:    yes   13.960000    0.000000    0.000000    68     0.2053
  2. axis:    yes    0.000000    9.871211    0.000000    48     0.2057
  3. axis:    no     0.000000    0.000000   28.339013   140     0.2024

  Lengths:  13.960000   9.871211  28.339013
  Angles:   90.000000  90.000000  90.000000

Effective grid spacing dv^(1/3) = 0.2045

     iter     time        total  log10-change:
                         energy   eigst   dens
iter:   1 20:55:05  -151.636844        c
iter:   2 20:55:07  -148.011752        c -0.66
iter:   3 20:55:10  -146.418208        c -0.77
iter:   4 20:55:13  -145.577628        c -0.88
iter:   5 20:55:15  -144.290555        c -0.99
iter:   6 20:55:18  -144.119561        c -1.21
iter:   7 20:55:21  -143.630098        c -1.26
iter:   8 20:55:23  -143.517339        c -1.50
iter:   9 20:55:26  -143.490979        c -1.64
iter:  10 20:55:29  -143.447017        c -1.70
iter:  11 20:55:31  -143.424420        c -1.83
iter:  12 20:55:34  -143.410224c       c -1.98
iter:  13 20:55:37  -143.407657c       c -2.19
iter:  14 20:55:39  -143.407345c       c -2.31
iter:  15 20:55:42  -143.405711c       c -2.46
iter:  16 20:55:44  -143.407253c       c -2.51
iter:  17 20:55:47  -143.406132c       c -2.59
iter:  18 20:55:50  -143.406032c       c -2.74
iter:  19 20:55:52  -143.405750c       c -2.81
iter:  20 20:55:55  -143.405444c       c -2.89
iter:  21 20:55:58  -143.405691c       c -2.94
iter:  22 20:56:00  -143.405170c       c -2.98
iter:  23 20:56:03  -143.405489c       c -3.07
iter:  24 20:56:06  -143.405362c       c -3.17
iter:  25 20:56:08  -143.405334c       c -3.31
iter:  26 20:56:11  -143.405340c       c -3.49
iter:  27 20:56:13  -143.405221c       c -3.60
iter:  28 20:56:16  -143.405289c       c -3.78
iter:  29 20:56:19  -143.405215c       c -3.91
iter:  30 20:56:21  -143.405236c       c -4.08c

Converged after 30 iterations.

Dipole moment: (-10.596818, -11.183040, 1.255945) |e|*Ang

Energy contributions relative to reference atoms: (reference = -18048.116001)

Kinetic:       +228.969524
Potential:     -194.703064
External:        +0.000000
XC:            -176.340514
Entropy (-ST):   -1.607580
Local:           -0.527392
SIC:             +0.000000
--------------------------
Free energy:   -144.209026
Extrapolated:  -143.405236

Showing all kpts
 Kpt  Band  Eigenvalues  Occupancy
  0    42     -2.64716    1.31950
  0    43     -2.55417    0.86692
  0    44     -2.53167    0.75850
  0    45     -2.51592    0.68585

  1    42     -2.64616    1.31498
  1    43     -2.56675    0.92912
  1    44     -2.52705    0.73688
  1    45     -2.51699    0.69067


Fermi level: -2.58095

Gap: 0.079 eV
Transition (v -> c):
  (s=0, k=1, n=42, [0.25, 0.25, 0.00]) -> (s=0, k=1, n=43, [0.25, 0.25, 0.00])
No difference between direct/indirect transitions
