
  ___ ___ ___ _ _ _  
 |   |   |_  | | | | 
 | | | | | . | | | | 
 |__ |  _|___|_____|  25.7.0
 |___|_|             

User:   tew@Mathuss-MacBook-Air-357.local
Date:   Mon Dec  1 20:16:38 2025
Arch:   arm64
Pid:    60975
CWD:    /Users/tew/Documents/Project/GitHub/chem-com/step_v4
Python: 3.13.5
gpaw:   /Users/tew/Documents/Project/GitHub/chem-com/.venv/lib/python3.13/site-packages/gpaw
_gpaw:  /Users/tew/Documents/Project/GitHub/chem-com/.venv/lib/python3.13/site-packages/
        _gpaw.cpython-313-darwin.so
ase:    /Users/tew/Documents/Project/GitHub/chem-com/.venv/lib/python3.13/site-packages/ase (version 3.26.0)
numpy:  /Users/tew/Documents/Project/GitHub/chem-com/.venv/lib/python3.13/site-packages/numpy (version 2.2.6)
scipy:  /Users/tew/Documents/Project/GitHub/chem-com/.venv/lib/python3.13/site-packages/scipy (version 1.16.3)
libxc:  2.x.y
units:  Angstrom and eV
cores: 1
OpenMP: False
OMP_NUM_THREADS: 1

Input parameters:
  kpts: [2 2 1]
  mode: {interpolation: 3,
         name: lcao}
  occupations: {name: fermi-dirac,
                width: 0.1}
  xc: PBE

System changes: positions, numbers, cell, pbc, initial_charges, initial_magmoms 

Initialize ...

species:
  Li:
    name: Lithium
    id: 830b4218f175192f93f959cfc0aad614
    Z: 3.0
    valence: 1
    core: 2
    charge: 0.0
    file: /Users/tew/Documents/Project/GitHub/chem-com/.venv/lib/python3.13/site-packages/gpaw_data/setups/Li.PBE.gz
    compensation charges: {type: gauss,
                           rc: 0.33,
                           lmax: 2}
    cutoffs: {filter: 1.91,
              core: 2.55}
    projectors:
      #              energy  rcut
      - 2s(1.00)    -2.874   1.058
      - 2p(0.00)    -1.090   1.058
      -  s          24.337   1.058
  
    # Using partial waves for Li as LCAO basis

Reference energy: -18048.116001  # eV

Spin-paired calculation

Convergence criteria:
 Maximum [total energy] change in last 3 cyles: 0.0005 eV / valence electron
 Maximum integral of absolute [dens]ity change: 0.0001 electrons / valence electron
 Maximum integral of absolute [eigenst]ate change: 4e-08 eV^2 / valence electron
 Maximum number of scf [iter]ations: 333
 (Square brackets indicate name in SCF output, whereas a 'c' in
 the SCF output indicates the quantity has converged.)

Symmetries present (total): 1

  ( 1  0  0)
  ( 0  1  0)
  ( 0  0  1)

4 k-points: 2 x 2 x 1 Monkhorst-Pack grid
2 k-points in the irreducible part of the Brillouin zone
       k-points in crystal coordinates                weights
   0:     0.25000000   -0.25000000    0.00000000          2/4
   1:     0.25000000    0.25000000    0.00000000          2/4

Wave functions: LCAO
  Diagonalizer: Serial LAPACK
  Atomic Correction: dense with blas
  Data-type: complex
 

Occupation numbers: Fermi-Dirac:
  width: 0.1000  # eV
 

Eigensolver
   LCAO using direct dense diagonalizer 

Densities:
  Coarse grid: 68*48*140 grid
  Fine grid: 136*96*280 grid
  Total Charge: 0.000000 

Density mixing:
  Method: separate
  Backend: pulay
  Linear mixing parameter: 0.05
  old densities: 5
  Damping of long wavelength oscillations: 50 

Hamiltonian:
  XC and Coulomb potentials evaluated on a 136*96*280 grid
  Using the PBE Exchange-Correlation functional
  Interpolation: tri-quintic (5. degree polynomial)
  Poisson solver: FastPoissonSolver using
    Stencil: 6*3+1=19 point O(h^6) finite-difference Laplacian
    FFT axes: [np.int64(0), np.int64(1)]
    FST axes: [np.int64(2)]
 

XC parameters: PBE with 2 nearest neighbor stencil

Memory estimate:
  Process memory now: 2152.78 MiB
  Calculator: 544.81 MiB
    Density: 357.68 MiB
      Arrays: 90.30 MiB
      Localized functions: 232.77 MiB
      Mixer: 34.61 MiB
    Hamiltonian: 77.45 MiB
      Arrays: 59.04 MiB
      XC: 0.00 MiB
      Poisson: 0.00 MiB
      vbar: 18.41 MiB
    Wavefunctions: 109.67 MiB
      C [qnM]: 0.63 MiB
      S, T [2 x qmm]: 7.74 MiB
      P [aqMi]: 0.30 MiB
      BasisFunctions: 101.00 MiB
      Eigensolver: 0.00 MiB

Total number of cores used: 1

Number of atoms: 89
Number of atomic orbitals: 356
Number of bands in calculation: 58
Number of valence electrons: 89
Bands to converge: occupied

... initialized

Initializing position-dependent things.

Density initialized from atomic densities
       .---------------------------------.  
      /|                                 |  
     / |                                 |  
    /  |                                 |  
   /   |                                 |  
  /    |                                 |  
 *     |                                 |  
 |     |                                 |  
 |     |                                 |  
 |     |                                 |  
 |     |  Li      Li       Li      Li    |  
 |     |                                 |  
 |  Li |     Li     LLi      Li      Li  |  
 |     |        Li                       |  
 |    Li      Li      Li       Li        |  
 |     |Li       Li      Li       Li     |  
 |     |                                 |  
 |     |  LLi     LiLi     LLi     LLi   |  
 |   Li|              Li                 |  
 |  Li |    Li       Li       Li         |  
 |     Li      Li       Li      Li       |  
 Li   Li      Li       Li Li   Li        |  
 |     |LLi      LLi     Li       Li     |  
 |     |                                 |  
 |Li   |  LLi     LLi      LLi     Li    |  
 |  LLi|     LLi     LLi      LLi        |  
 |     |                                 |  
 |    LLi     LLi      LLi     LLi       |  
 Li    |LLi      LLi     LiLi     Li     |  
 |     |                                 |  
 |Li   |   Li      Li       Li           |  
 |   Li|      Li      Li       Li        |  
 |     |                                 |  
 |     |                                 |  
 |     |                                 |  
 |     .---------------------------------.  
 |    /                                 /   
 |   /                                 /    
 |  /                                 /     
 | /                                 /      
 |/                                 /       
 *---------------------------------*        

Atomic positions and initial magnetic moments

Positions:
   0 Li     0.000000    2.467803    8.000000    ( 0.0000,  0.0000,  0.0000)
   1 Li     3.490000    2.467803    8.000000    ( 0.0000,  0.0000,  0.0000)
   2 Li     6.980000    2.467803    8.000000    ( 0.0000,  0.0000,  0.0000)
   3 Li    10.470000    2.467803    8.000000    ( 0.0000,  0.0000,  0.0000)
   4 Li     1.745000    4.935605    8.000000    ( 0.0000,  0.0000,  0.0000)
   5 Li     5.235000    4.935605    8.000000    ( 0.0000,  0.0000,  0.0000)
   6 Li     8.725000    4.935605    8.000000    ( 0.0000,  0.0000,  0.0000)
   7 Li    12.215000    4.935605    8.000000    ( 0.0000,  0.0000,  0.0000)
   8 Li     0.000000    7.403408    8.000000    ( 0.0000,  0.0000,  0.0000)
   9 Li     3.490000    7.403408    8.000000    ( 0.0000,  0.0000,  0.0000)
  10 Li     6.980000    7.403408    8.000000    ( 0.0000,  0.0000,  0.0000)
  11 Li    10.470000    7.403408    8.000000    ( 0.0000,  0.0000,  0.0000)
  12 Li     1.745000    9.871211    8.000000    ( 0.0000,  0.0000,  0.0000)
  13 Li     5.235000    9.871211    8.000000    ( 0.0000,  0.0000,  0.0000)
  14 Li     8.725000    9.871211    8.000000    ( 0.0000,  0.0000,  0.0000)
  15 Li    12.215000    9.871211    8.000000    ( 0.0000,  0.0000,  0.0000)
  16 Li     0.000000    0.000000   10.467803    ( 0.0000,  0.0000,  0.0000)
  17 Li     3.490000    0.000000   10.467803    ( 0.0000,  0.0000,  0.0000)
  18 Li     6.980000    0.000000   10.467803    ( 0.0000,  0.0000,  0.0000)
  19 Li    10.470000    0.000000   10.467803    ( 0.0000,  0.0000,  0.0000)
  20 Li     1.745000    2.467803   10.467803    ( 0.0000,  0.0000,  0.0000)
  21 Li     5.235000    2.467803   10.467803    ( 0.0000,  0.0000,  0.0000)
  22 Li     8.725000    2.467803   10.467803    ( 0.0000,  0.0000,  0.0000)
  23 Li    12.215000    2.467803   10.467803    ( 0.0000,  0.0000,  0.0000)
  24 Li     0.000000    4.935605   10.467803    ( 0.0000,  0.0000,  0.0000)
  25 Li     3.490000    4.935605   10.467803    ( 0.0000,  0.0000,  0.0000)
  26 Li     6.980000    4.935605   10.467803    ( 0.0000,  0.0000,  0.0000)
  27 Li    10.470000    4.935605   10.467803    ( 0.0000,  0.0000,  0.0000)
  28 Li     1.745000    7.403408   10.467803    ( 0.0000,  0.0000,  0.0000)
  29 Li     5.235000    7.403408   10.467803    ( 0.0000,  0.0000,  0.0000)
  30 Li     8.725000    7.403408   10.467803    ( 0.0000,  0.0000,  0.0000)
  31 Li    12.215000    7.403408   10.467803    ( 0.0000,  0.0000,  0.0000)
  32 Li     0.000000    2.467803   12.935605    ( 0.0000,  0.0000,  0.0000)
  33 Li     3.490000    2.467803   12.935605    ( 0.0000,  0.0000,  0.0000)
  34 Li     6.980000    2.467803   12.935605    ( 0.0000,  0.0000,  0.0000)
  35 Li    10.470000    2.467803   12.935605    ( 0.0000,  0.0000,  0.0000)
  36 Li     1.745000    4.935605   12.935605    ( 0.0000,  0.0000,  0.0000)
  37 Li     5.235000    4.935605   12.935605    ( 0.0000,  0.0000,  0.0000)
  38 Li     8.725000    4.935605   12.935605    ( 0.0000,  0.0000,  0.0000)
  39 Li    12.215000    4.935605   12.935605    ( 0.0000,  0.0000,  0.0000)
  40 Li     0.000000    7.403408   12.935605    ( 0.0000,  0.0000,  0.0000)
  41 Li     3.490000    7.403408   12.935605    ( 0.0000,  0.0000,  0.0000)
  42 Li     6.980000    7.403408   12.935605    ( 0.0000,  0.0000,  0.0000)
  43 Li    10.470000    7.403408   12.935605    ( 0.0000,  0.0000,  0.0000)
  44 Li     1.745000    9.871211   12.935605    ( 0.0000,  0.0000,  0.0000)
  45 Li     5.235000    9.871211   12.935605    ( 0.0000,  0.0000,  0.0000)
  46 Li     8.725000    9.871211   12.935605    ( 0.0000,  0.0000,  0.0000)
  47 Li    12.215000    9.871211   12.935605    ( 0.0000,  0.0000,  0.0000)
  48 Li     0.002459    0.007903   15.799783    ( 0.0000,  0.0000,  0.0000)
  49 Li     3.471753    0.004319   15.713583    ( 0.0000,  0.0000,  0.0000)
  50 Li     6.997608    0.004528   15.713085    ( 0.0000,  0.0000,  0.0000)
  51 Li    10.462785    0.006759   15.808877    ( 0.0000,  0.0000,  0.0000)
  52 Li     1.738030    2.464607   15.732352    ( 0.0000,  0.0000,  0.0000)
  53 Li     5.232269    2.450297   15.686931    ( 0.0000,  0.0000,  0.0000)
  54 Li     8.734004    2.461702   15.729338    ( 0.0000,  0.0000,  0.0000)
  55 Li    12.211907    2.458033   15.747730    ( 0.0000,  0.0000,  0.0000)
  56 Li     0.004619    4.939729   15.604527    ( 0.0000,  0.0000,  0.0000)
  57 Li     3.485978    4.931358   15.618627    ( 0.0000,  0.0000,  0.0000)
  58 Li     6.978595    4.930851   15.614272    ( 0.0000,  0.0000,  0.0000)
  59 Li    10.469367    4.941052   15.592245    ( 0.0000,  0.0000,  0.0000)
  60 Li     1.747887    7.404278   15.632725    ( 0.0000,  0.0000,  0.0000)
  61 Li     5.232338    7.417687   15.617665    ( 0.0000,  0.0000,  0.0000)
  62 Li     8.723696    7.405084   15.625558    ( 0.0000,  0.0000,  0.0000)
  63 Li    12.211173    7.403267   15.648018    ( 0.0000,  0.0000,  0.0000)
  64 Li    -0.010371    2.495272   18.514200    ( 0.0000,  0.0000,  0.0000)
  65 Li     3.479807    2.547219   18.466573    ( 0.0000,  0.0000,  0.0000)
  66 Li     6.986000    2.541552   18.449477    ( 0.0000,  0.0000,  0.0000)
  67 Li    10.473278    2.498645   18.532952    ( 0.0000,  0.0000,  0.0000)
  68 Li     1.723438    4.984818   18.281859    ( 0.0000,  0.0000,  0.0000)
  69 Li     5.234093    4.927153   18.313160    ( 0.0000,  0.0000,  0.0000)
  70 Li     8.757757    4.980151   18.242636    ( 0.0000,  0.0000,  0.0000)
  71 Li    12.211944    4.998044   18.271063    ( 0.0000,  0.0000,  0.0000)
  72 Li     0.016612    7.411726   18.340503    ( 0.0000,  0.0000,  0.0000)
  73 Li     3.493203    7.353592   18.323305    ( 0.0000,  0.0000,  0.0000)
  74 Li     6.983022    7.357656   18.314488    ( 0.0000,  0.0000,  0.0000)
  75 Li    10.439949    7.407448   18.356889    ( 0.0000,  0.0000,  0.0000)
  76 Li     1.831584    9.882718   18.581783    ( 0.0000,  0.0000,  0.0000)
  77 Li     5.230396    9.855337   18.410119    ( 0.0000,  0.0000,  0.0000)
  78 Li     8.635456    9.880438   18.597215    ( 0.0000,  0.0000,  0.0000)
  79 Li    12.211600    9.850024   18.602059    ( 0.0000,  0.0000,  0.0000)
  80 Li     0.032006    4.830023   20.899712    ( 0.0000,  0.0000,  0.0000)
  81 Li     3.565516    4.817173   20.957780    ( 0.0000,  0.0000,  0.0000)
  82 Li     6.965008    4.809521   20.893422    ( 0.0000,  0.0000,  0.0000)
  83 Li    10.426891    4.843777   20.914812    ( 0.0000,  0.0000,  0.0000)
  84 Li     1.780275    7.683970   20.970011    ( 0.0000,  0.0000,  0.0000)
  85 Li     5.242221    7.783146   20.907797    ( 0.0000,  0.0000,  0.0000)
  86 Li     8.667597    7.676408   21.015384    ( 0.0000,  0.0000,  0.0000)
  87 Li    12.214568    7.604590   20.980844    ( 0.0000,  0.0000,  0.0000)
  88 Li     5.475891    2.688267   21.603791    ( 0.0000,  0.0000,  0.0000)

Unit cell:
           periodic     x           y           z      points  spacing
  1. axis:    yes   13.960000    0.000000    0.000000    68     0.2053
  2. axis:    yes    0.000000    9.871211    0.000000    48     0.2057
  3. axis:    no     0.000000    0.000000   28.339013   140     0.2024

  Lengths:  13.960000   9.871211  28.339013
  Angles:   90.000000  90.000000  90.000000

Effective grid spacing dv^(1/3) = 0.2045

     iter     time        total  log10-change:
                         energy   eigst   dens
iter:   1 20:19:49  -151.641058        c
iter:   2 20:19:51  -147.601543        c -0.67
iter:   3 20:19:54  -146.465883        c -0.81
iter:   4 20:19:57  -145.547685        c -0.89
iter:   5 20:20:00  -144.277784        c -1.00
iter:   6 20:20:02  -144.150897        c -1.22
iter:   7 20:20:05  -143.665469        c -1.25
iter:   8 20:20:08  -143.520820        c -1.48
iter:   9 20:20:11  -143.502456        c -1.66
iter:  10 20:20:14  -143.454071        c -1.70
iter:  11 20:20:16  -143.431146        c -1.86
iter:  12 20:20:19  -143.418564c       c -1.99
iter:  13 20:20:22  -143.417590c       c -2.26
iter:  14 20:20:25  -143.416724c       c -2.39
iter:  15 20:20:28  -143.417367c       c -2.52
iter:  16 20:20:31  -143.416230c       c -2.58
iter:  17 20:20:33  -143.416239c       c -2.73
iter:  18 20:20:36  -143.416183c       c -2.81
iter:  19 20:20:39  -143.416225c       c -2.89
iter:  20 20:20:42  -143.416188c       c -3.06
iter:  21 20:20:45  -143.416308c       c -3.13
iter:  22 20:20:48  -143.415979c       c -3.19
iter:  23 20:20:51  -143.416048c       c -3.28
iter:  24 20:20:53  -143.416018c       c -3.38
iter:  25 20:20:56  -143.416037c       c -3.46
iter:  26 20:20:59  -143.416056c       c -3.56
iter:  27 20:21:02  -143.416022c       c -3.70
iter:  28 20:21:05  -143.416082c       c -3.78
iter:  29 20:21:07  -143.416026c       c -3.83
iter:  30 20:21:10  -143.416030c       c -3.98
iter:  31 20:21:13  -143.416024c       c -4.11c

Converged after 31 iterations.

Dipole moment: (-10.556718, -13.646784, 0.895711) |e|*Ang

Energy contributions relative to reference atoms: (reference = -18048.116001)

Kinetic:       +232.346801
Potential:     -197.105175
External:        +0.000000
XC:            -177.283815
Entropy (-ST):   -1.624187
Local:           -0.561742
SIC:             +0.000000
--------------------------
Free energy:   -144.228117
Extrapolated:  -143.416024

Showing all kpts
 Kpt  Band  Eigenvalues  Occupancy
  0    42     -2.72035    1.14132
  0    43     -2.67514    0.91645
  0    44     -2.65391    0.81233
  0    45     -2.62877    0.69447

  1    42     -2.71850    1.13225
  1    43     -2.67920    0.93663
  1    44     -2.65058    0.79633
  1    45     -2.62912    0.69608


Fermi level: -2.69189

Gap: 0.039 eV
Transition (v -> c):
  (s=0, k=1, n=42, [0.25, 0.25, 0.00]) -> (s=0, k=1, n=43, [0.25, 0.25, 0.00])
No difference between direct/indirect transitions

Forces in eV/Ang:
  0 Li   -0.00201   -0.00208   -0.17258
  1 Li   -0.00031   -0.00526   -0.17227
  2 Li    0.00014   -0.00577   -0.17217
  3 Li    0.00208   -0.00225   -0.17304
  4 Li   -0.00115   -0.00422   -0.16654
  5 Li   -0.00032   -0.00277   -0.16491
  6 Li    0.00164   -0.00383   -0.16606
  7 Li   -0.00015   -0.00902   -0.16686
  8 Li    0.00321    0.00309   -0.16436
  9 Li   -0.00072    0.00455   -0.16671
 10 Li    0.00066    0.00468   -0.16670
 11 Li   -0.00325    0.00330   -0.16434
 12 Li    0.00118    0.00334   -0.17085
 13 Li    0.00005    0.00432   -0.17133
 14 Li   -0.00080    0.00332   -0.17089
 15 Li   -0.00025    0.00852   -0.17300
 16 Li    0.00031   -0.00111   -0.09314
 17 Li   -0.00175    0.00004   -0.09312
 18 Li    0.00197   -0.00006   -0.09254
 19 Li   -0.00040   -0.00082   -0.09648
 20 Li   -0.00057   -0.00128   -0.08992
 21 Li   -0.00026    0.00049   -0.09187
 22 Li    0.00047   -0.00144   -0.09066
 23 Li    0.00013    0.00263   -0.08732
 24 Li    0.00039   -0.00439   -0.08584
 25 Li   -0.00093   -0.00161   -0.09092
 26 Li    0.00111   -0.00203   -0.09016
 27 Li   -0.00041   -0.00352   -0.08450
 28 Li    0.00096    0.00229   -0.08653
 29 Li   -0.00020    0.00282   -0.08659
 30 Li   -0.00059    0.00219   -0.08574
 31 Li   -0.00028    0.00582   -0.08579
 32 Li   -0.00170   -0.00606    0.29052
 33 Li   -0.00761   -0.00757    0.27026
 34 Li    0.00691   -0.00954    0.27052
 35 Li    0.00139   -0.00949    0.28674
 36 Li    0.00743   -0.01125    0.20910
 37 Li   -0.00225   -0.00578    0.20997
 38 Li   -0.00837   -0.01102    0.20826
 39 Li    0.00384   -0.01406    0.20645
 40 Li   -0.00042    0.01814    0.23367
 41 Li   -0.00593    0.00743    0.21779
 42 Li    0.00364    0.00688    0.21876
 43 Li    0.00152    0.02168    0.22659
 44 Li   -0.01413    0.00344    0.29229
 45 Li    0.00019    0.00964    0.26764
 46 Li    0.01736    0.00480    0.29132
 47 Li   -0.00372    0.00246    0.33151
 48 Li    0.00236    0.00358    0.00433
 49 Li   -0.00095    0.00770    0.01715
 50 Li    0.00059    0.00530    0.01748
 51 Li   -0.00155    0.00237    0.00745
 52 Li    0.00386   -0.01031    0.00560
 53 Li   -0.00004   -0.00254    0.01798
 54 Li   -0.00370   -0.00677    0.00075
 55 Li   -0.00320    0.00281    0.00338
 56 Li   -0.00812    0.00697    0.00695
 57 Li    0.01681    0.00176    0.00345
 58 Li   -0.01720   -0.00031    0.00238
 59 Li    0.01070    0.00357    0.01041
 60 Li   -0.01003    0.00663   -0.00401
 61 Li    0.00182   -0.00700    0.01131
 62 Li    0.00923    0.00930   -0.00482
 63 Li   -0.00151    0.00103    0.00304
 64 Li   -0.00133   -0.00177   -0.00731
 65 Li    0.05961   -0.03679    0.11533
 66 Li   -0.03074   -0.03996    0.07804
 67 Li   -0.00066   -0.00261   -0.00319
 68 Li   -0.00081    0.02083    0.00058
 69 Li    0.00285    0.01899    0.04847
 70 Li   -0.00275    0.01277    0.01273
 71 Li    0.00287    0.00200    0.01579
 72 Li   -0.00278   -0.00426    0.00988
 73 Li   -0.00499   -0.00884   -0.01649
 74 Li    0.00259   -0.00691   -0.01074
 75 Li    0.00427   -0.00059    0.01234
 76 Li   -0.05183   -0.00613   -0.02475
 77 Li    0.00757    0.09759    0.09892
 78 Li    0.03812    0.00194   -0.00430
 79 Li    0.00508    0.01205   -0.02406
 80 Li   -0.01270   -0.01901    0.01870
 81 Li   -0.17736    0.23418   -0.05413
 82 Li    0.25972    0.45819   -0.10364
 83 Li    0.01649   -0.03100    0.00893
 84 Li   -0.02695   -0.02518   -0.00305
 85 Li   -0.00114   -0.02569    0.03467
 86 Li    0.04969   -0.00367   -0.03032
 87 Li   -0.00403    0.00572    0.00239
 88 Li   -0.12643   -0.68988   -0.18008

System changes: positions 

Initializing position-dependent things.

Density initialized from wave functions
       .---------------------------------.  
      /|                                 |  
     / |                                 |  
    /  |                                 |  
   /   |                                 |  
  /    |                                 |  
 *     |                                 |  
 |     |                                 |  
 |     |                                 |  
 |     |                                 |  
 |     |  Li      Li       Li      Li    |  
 |     |                                 |  
 |  Li |     Li     LLi      Li      Li  |  
 |     |        Li                       |  
 |    Li      Li      Li       Li        |  
 |     |Li       Li      Li       Li     |  
 |     |                                 |  
 |     |  LLi     LiLi     LLi     LLi   |  
 |   Li|              Li                 |  
 |  Li |    Li       Li       Li         |  
 |     Li      Li       Li      Li       |  
 Li   Li      Li       Li Li   Li        |  
 |     |LLi      LLi     Li       Li     |  
 |     |                                 |  
 |Li   |  LLi     LLi      LLi     Li    |  
 |  LLi|     LLi     LLi      LLi        |  
 |     |                                 |  
 |    LLi     LLi      LLi     LLi       |  
 Li    |LLi      LLi     LiLi     Li     |  
 |     |                                 |  
 |Li   |   Li      Li       Li           |  
 |   Li|      Li      Li       Li        |  
 |     |                                 |  
 |     |                                 |  
 |     |                                 |  
 |     .---------------------------------.  
 |    /                                 /   
 |   /                                 /    
 |  /                                 /     
 | /                                 /      
 |/                                 /       
 *---------------------------------*        

Atomic positions and initial magnetic moments

Positions:
   0 Li     0.000000    2.467803    8.000000    ( 0.0000,  0.0000,  0.0000)
   1 Li     3.490000    2.467803    8.000000    ( 0.0000,  0.0000,  0.0000)
   2 Li     6.980000    2.467803    8.000000    ( 0.0000,  0.0000,  0.0000)
   3 Li    10.470000    2.467803    8.000000    ( 0.0000,  0.0000,  0.0000)
   4 Li     1.745000    4.935605    8.000000    ( 0.0000,  0.0000,  0.0000)
   5 Li     5.235000    4.935605    8.000000    ( 0.0000,  0.0000,  0.0000)
   6 Li     8.725000    4.935605    8.000000    ( 0.0000,  0.0000,  0.0000)
   7 Li    12.215000    4.935605    8.000000    ( 0.0000,  0.0000,  0.0000)
   8 Li     0.000000    7.403408    8.000000    ( 0.0000,  0.0000,  0.0000)
   9 Li     3.490000    7.403408    8.000000    ( 0.0000,  0.0000,  0.0000)
  10 Li     6.980000    7.403408    8.000000    ( 0.0000,  0.0000,  0.0000)
  11 Li    10.470000    7.403408    8.000000    ( 0.0000,  0.0000,  0.0000)
  12 Li     1.745000    9.871211    8.000000    ( 0.0000,  0.0000,  0.0000)
  13 Li     5.235000    9.871211    8.000000    ( 0.0000,  0.0000,  0.0000)
  14 Li     8.725000    9.871211    8.000000    ( 0.0000,  0.0000,  0.0000)
  15 Li    12.215000    9.871211    8.000000    ( 0.0000,  0.0000,  0.0000)
  16 Li     0.000000    0.000000   10.467803    ( 0.0000,  0.0000,  0.0000)
  17 Li     3.490000    0.000000   10.467803    ( 0.0000,  0.0000,  0.0000)
  18 Li     6.980000    0.000000   10.467803    ( 0.0000,  0.0000,  0.0000)
  19 Li    10.470000    0.000000   10.467803    ( 0.0000,  0.0000,  0.0000)
  20 Li     1.745000    2.467803   10.467803    ( 0.0000,  0.0000,  0.0000)
  21 Li     5.235000    2.467803   10.467803    ( 0.0000,  0.0000,  0.0000)
  22 Li     8.725000    2.467803   10.467803    ( 0.0000,  0.0000,  0.0000)
  23 Li    12.215000    2.467803   10.467803    ( 0.0000,  0.0000,  0.0000)
  24 Li     0.000000    4.935605   10.467803    ( 0.0000,  0.0000,  0.0000)
  25 Li     3.490000    4.935605   10.467803    ( 0.0000,  0.0000,  0.0000)
  26 Li     6.980000    4.935605   10.467803    ( 0.0000,  0.0000,  0.0000)
  27 Li    10.470000    4.935605   10.467803    ( 0.0000,  0.0000,  0.0000)
  28 Li     1.745000    7.403408   10.467803    ( 0.0000,  0.0000,  0.0000)
  29 Li     5.235000    7.403408   10.467803    ( 0.0000,  0.0000,  0.0000)
  30 Li     8.725000    7.403408   10.467803    ( 0.0000,  0.0000,  0.0000)
  31 Li    12.215000    7.403408   10.467803    ( 0.0000,  0.0000,  0.0000)
  32 Li     0.000000    2.467803   12.935605    ( 0.0000,  0.0000,  0.0000)
  33 Li     3.490000    2.467803   12.935605    ( 0.0000,  0.0000,  0.0000)
  34 Li     6.980000    2.467803   12.935605    ( 0.0000,  0.0000,  0.0000)
  35 Li    10.470000    2.467803   12.935605    ( 0.0000,  0.0000,  0.0000)
  36 Li     1.745000    4.935605   12.935605    ( 0.0000,  0.0000,  0.0000)
  37 Li     5.235000    4.935605   12.935605    ( 0.0000,  0.0000,  0.0000)
  38 Li     8.725000    4.935605   12.935605    ( 0.0000,  0.0000,  0.0000)
  39 Li    12.215000    4.935605   12.935605    ( 0.0000,  0.0000,  0.0000)
  40 Li     0.000000    7.403408   12.935605    ( 0.0000,  0.0000,  0.0000)
  41 Li     3.490000    7.403408   12.935605    ( 0.0000,  0.0000,  0.0000)
  42 Li     6.980000    7.403408   12.935605    ( 0.0000,  0.0000,  0.0000)
  43 Li    10.470000    7.403408   12.935605    ( 0.0000,  0.0000,  0.0000)
  44 Li     1.745000    9.871211   12.935605    ( 0.0000,  0.0000,  0.0000)
  45 Li     5.235000    9.871211   12.935605    ( 0.0000,  0.0000,  0.0000)
  46 Li     8.725000    9.871211   12.935605    ( 0.0000,  0.0000,  0.0000)
  47 Li    12.215000    9.871211   12.935605    ( 0.0000,  0.0000,  0.0000)
  48 Li     0.002509    0.007926   15.799789    ( 0.0000,  0.0000,  0.0000)
  49 Li     3.471807    0.004392   15.713977    ( 0.0000,  0.0000,  0.0000)
  50 Li     6.997546    0.004577   15.713480    ( 0.0000,  0.0000,  0.0000)
  51 Li    10.462717    0.006764   15.808964    ( 0.0000,  0.0000,  0.0000)
  52 Li     1.738062    2.464464   15.732385    ( 0.0000,  0.0000,  0.0000)
  53 Li     5.232253    2.450267   15.687059    ( 0.0000,  0.0000,  0.0000)
  54 Li     8.733985    2.461578   15.729305    ( 0.0000,  0.0000,  0.0000)
  55 Li    12.211858    2.458029   15.747768    ( 0.0000,  0.0000,  0.0000)
  56 Li     0.004539    4.939785   15.604721    ( 0.0000,  0.0000,  0.0000)
  57 Li     3.486085    4.931378   15.618605    ( 0.0000,  0.0000,  0.0000)
  58 Li     6.978454    4.930848   15.614215    ( 0.0000,  0.0000,  0.0000)
  59 Li    10.469495    4.941082   15.592406    ( 0.0000,  0.0000,  0.0000)
  60 Li     1.747760    7.404333   15.632756    ( 0.0000,  0.0000,  0.0000)
  61 Li     5.232341    7.417562   15.617741    ( 0.0000,  0.0000,  0.0000)
  62 Li     8.723823    7.405170   15.625541    ( 0.0000,  0.0000,  0.0000)
  63 Li    12.211137    7.403259   15.648164    ( 0.0000,  0.0000,  0.0000)
  64 Li    -0.010360    2.495217   18.514049    ( 0.0000,  0.0000,  0.0000)
  65 Li     3.480441    2.546706   18.467638    ( 0.0000,  0.0000,  0.0000)
  66 Li     6.985631    2.540975   18.450075    ( 0.0000,  0.0000,  0.0000)
  67 Li    10.473208    2.498600   18.532946    ( 0.0000,  0.0000,  0.0000)
  68 Li     1.723564    4.984986   18.282045    ( 0.0000,  0.0000,  0.0000)
  69 Li     5.234116    4.927382   18.313402    ( 0.0000,  0.0000,  0.0000)
  70 Li     8.757657    4.980214   18.242727    ( 0.0000,  0.0000,  0.0000)
  71 Li    12.211956    4.997993   18.271341    ( 0.0000,  0.0000,  0.0000)
  72 Li     0.016566    7.411526   18.340737    ( 0.0000,  0.0000,  0.0000)
  73 Li     3.493201    7.353489   18.323135    ( 0.0000,  0.0000,  0.0000)
  74 Li     6.983034    7.357595   18.314326    ( 0.0000,  0.0000,  0.0000)
  75 Li    10.439936    7.407261   18.357238    ( 0.0000,  0.0000,  0.0000)
  76 Li     1.830878    9.882553   18.581618    ( 0.0000,  0.0000,  0.0000)
  77 Li     5.230446    9.856239   18.411689    ( 0.0000,  0.0000,  0.0000)
  78 Li     8.636009    9.880341   18.597340    ( 0.0000,  0.0000,  0.0000)
  79 Li    12.211632    9.850109   18.601617    ( 0.0000,  0.0000,  0.0000)
  80 Li     0.031847    4.829670   20.900000    ( 0.0000,  0.0000,  0.0000)
  81 Li     3.563971    4.819155   20.957441    ( 0.0000,  0.0000,  0.0000)
  82 Li     6.967709    4.813701   20.892234    ( 0.0000,  0.0000,  0.0000)
  83 Li    10.427027    4.843380   20.915086    ( 0.0000,  0.0000,  0.0000)
  84 Li     1.780172    7.683320   20.970096    ( 0.0000,  0.0000,  0.0000)
  85 Li     5.242249    7.782152   20.908367    ( 0.0000,  0.0000,  0.0000)
  86 Li     8.667806    7.675931   21.015447    ( 0.0000,  0.0000,  0.0000)
  87 Li    12.214526    7.604733   20.980941    ( 0.0000,  0.0000,  0.0000)
  88 Li     5.475953    2.687025   21.605521    ( 0.0000,  0.0000,  0.0000)

Unit cell:
           periodic     x           y           z      points  spacing
  1. axis:    yes   13.960000    0.000000    0.000000    68     0.2053
  2. axis:    yes    0.000000    9.871211    0.000000    48     0.2057
  3. axis:    no     0.000000    0.000000   28.339013   140     0.2024

  Lengths:  13.960000   9.871211  28.339013
  Angles:   90.000000  90.000000  90.000000

Effective grid spacing dv^(1/3) = 0.2045

     iter     time        total  log10-change:
                         energy   eigst   dens
iter:   1 20:22:25  -143.421076        c
iter:   2 20:22:28  -143.420507        c -3.32
iter:   3 20:22:31  -143.420838c       c -3.11
iter:   4 20:22:33  -143.420806c       c -3.83
iter:   5 20:22:36  -143.420802c       c -4.02c

Converged after 5 iterations.

Dipole moment: (-10.553265, -13.663695, 0.897127) |e|*Ang

Energy contributions relative to reference atoms: (reference = -18048.116001)

Kinetic:       +232.258645
Potential:     -197.049676
External:        +0.000000
XC:            -177.270043
Entropy (-ST):   -1.624111
Local:           -0.547672
SIC:             +0.000000
--------------------------
Free energy:   -144.232858
Extrapolated:  -143.420802

Showing all kpts
 Kpt  Band  Eigenvalues  Occupancy
  0    42     -2.71984    1.14098
  0    43     -2.67470    0.91642
  0    44     -2.65348    0.81235
  0    45     -2.62839    0.69470

  1    42     -2.71800    1.13191
  1    43     -2.67875    0.93652
  1    44     -2.65016    0.79639
  1    45     -2.62877    0.69642


Fermi level: -2.69146

Gap: 0.039 eV
Transition (v -> c):
  (s=0, k=1, n=42, [0.25, 0.25, 0.00]) -> (s=0, k=1, n=43, [0.25, 0.25, 0.00])
No difference between direct/indirect transitions

Forces in eV/Ang:
  0 Li   -0.00204   -0.00198   -0.17215
  1 Li   -0.00030   -0.00518   -0.17183
  2 Li    0.00015   -0.00569   -0.17171
  3 Li    0.00209   -0.00214   -0.17259
  4 Li   -0.00118   -0.00417   -0.16633
  5 Li   -0.00030   -0.00271   -0.16470
  6 Li    0.00165   -0.00377   -0.16584
  7 Li   -0.00017   -0.00898   -0.16662
  8 Li    0.00320    0.00298   -0.16407
  9 Li   -0.00069    0.00449   -0.16646
 10 Li    0.00065    0.00460   -0.16645
 11 Li   -0.00326    0.00319   -0.16406
 12 Li    0.00119    0.00329   -0.17039
 13 Li    0.00005    0.00426   -0.17084
 14 Li   -0.00081    0.00326   -0.17040
 15 Li   -0.00026    0.00849   -0.17247
 16 Li    0.00032   -0.00110   -0.09356
 17 Li   -0.00176    0.00012   -0.09375
 18 Li    0.00198    0.00002   -0.09318
 19 Li   -0.00041   -0.00082   -0.09694
 20 Li   -0.00057   -0.00139   -0.09047
 21 Li   -0.00025    0.00037   -0.09241
 22 Li    0.00047   -0.00154   -0.09118
 23 Li    0.00012    0.00256   -0.08783
 24 Li    0.00033   -0.00441   -0.08632
 25 Li   -0.00095   -0.00170   -0.09137
 26 Li    0.00113   -0.00212   -0.09058
 27 Li   -0.00036   -0.00356   -0.08497
 28 Li    0.00089    0.00241   -0.08698
 29 Li   -0.00019    0.00295   -0.08710
 30 Li   -0.00052    0.00231   -0.08620
 31 Li   -0.00029    0.00592   -0.08618
 32 Li   -0.00169   -0.00595    0.29089
 33 Li   -0.00753   -0.00742    0.27050
 34 Li    0.00682   -0.00939    0.27074
 35 Li    0.00138   -0.00941    0.28702
 36 Li    0.00742   -0.01113    0.20970
 37 Li   -0.00227   -0.00576    0.21030
 38 Li   -0.00833   -0.01092    0.20883
 39 Li    0.00384   -0.01390    0.20686
 40 Li   -0.00050    0.01804    0.23396
 41 Li   -0.00599    0.00728    0.21844
 42 Li    0.00368    0.00672    0.21935
 43 Li    0.00162    0.02156    0.22684
 44 Li   -0.01403    0.00333    0.29266
 45 Li    0.00020    0.00960    0.26808
 46 Li    0.01730    0.00473    0.29166
 47 Li   -0.00376    0.00232    0.33175
 48 Li    0.00209    0.00364    0.00376
 49 Li   -0.00040    0.00756    0.01753
 50 Li    0.00010    0.00525    0.01781
 51 Li   -0.00138    0.00249    0.00705
 52 Li    0.00422   -0.00977    0.00617
 53 Li   -0.00013   -0.00247    0.01806
 54 Li   -0.00394   -0.00640    0.00109
 55 Li   -0.00309    0.00270    0.00318
 56 Li   -0.00780    0.00655    0.00628
 57 Li    0.01632    0.00119    0.00328
 58 Li   -0.01672   -0.00070    0.00219
 59 Li    0.01030    0.00324    0.00976
 60 Li   -0.00988    0.00662   -0.00457
 61 Li    0.00178   -0.00625    0.01085
 62 Li    0.00906    0.00912   -0.00523
 63 Li   -0.00144    0.00137    0.00252
 64 Li   -0.00082   -0.00119   -0.00693
 65 Li    0.05768   -0.03533    0.11460
 66 Li   -0.02965   -0.03762    0.07858
 67 Li   -0.00070   -0.00224   -0.00306
 68 Li   -0.00118    0.01980    0.00059
 69 Li    0.00281    0.01729    0.04987
 70 Li   -0.00190    0.01202    0.01196
 71 Li    0.00282    0.00200    0.01640
 72 Li   -0.00277   -0.00460    0.01047
 73 Li   -0.00441   -0.00678   -0.01550
 74 Li    0.00211   -0.00432   -0.01021
 75 Li    0.00401   -0.00112    0.01297
 76 Li   -0.05078   -0.00630   -0.02423
 77 Li    0.00738    0.09421    0.09826
 78 Li    0.03738    0.00138   -0.00405
 79 Li    0.00506    0.01185   -0.02370
 80 Li   -0.01308   -0.01908    0.01806
 81 Li   -0.17190    0.22990   -0.05362
 82 Li    0.25008    0.44645   -0.10086
 83 Li    0.01755   -0.03094    0.00849
 84 Li   -0.02748   -0.02347   -0.00380
 85 Li   -0.00145   -0.02392    0.03341
 86 Li    0.05075   -0.00097   -0.03089
 87 Li   -0.00399    0.00562    0.00227
 88 Li   -0.12303   -0.67854   -0.18274

System changes: positions 

Initializing position-dependent things.

Density initialized from wave functions
       .---------------------------------.  
      /|                                 |  
     / |                                 |  
    /  |                                 |  
   /   |                                 |  
  /    |                                 |  
 *     |                                 |  
 |     |                                 |  
 |     |                                 |  
 |     |                                 |  
 |     |  Li      Li       Li      Li    |  
 |     |                                 |  
 |  Li |     Li     LLi      Li      Li  |  
 |     |        Li                       |  
 |    Li      Li      Li       Li        |  
 |     |Li       Li      Li       Li     |  
 |     |                                 |  
 |     |  LLi     LiLi     LLi     LLi   |  
 |   Li|              Li                 |  
 |  Li |    Li       Li       Li         |  
 |     Li      Li       Li      Li       |  
 Li   Li      Li       Li Li   Li        |  
 |     |LLi      LLi     Li       Li     |  
 |     |                                 |  
 |Li   |  LLi     LLi      LLi     Li    |  
 |  LLi|     LLi     LLi      LLi        |  
 |     |                                 |  
 |    LLi     LLi      LLi     LLi       |  
 Li    |LLi      LLi     LiLi     Li     |  
 |     |                                 |  
 |Li   |   Li      Li       Li           |  
 |   Li|      Li      Li       Li        |  
 |     |                                 |  
 |     |                                 |  
 |     |                                 |  
 |     .---------------------------------.  
 |    /                                 /   
 |   /                                 /    
 |  /                                 /     
 | /                                 /      
 |/                                 /       
 *---------------------------------*        

Atomic positions and initial magnetic moments

Positions:
   0 Li     0.000000    2.467803    8.000000    ( 0.0000,  0.0000,  0.0000)
   1 Li     3.490000    2.467803    8.000000    ( 0.0000,  0.0000,  0.0000)
   2 Li     6.980000    2.467803    8.000000    ( 0.0000,  0.0000,  0.0000)
   3 Li    10.470000    2.467803    8.000000    ( 0.0000,  0.0000,  0.0000)
   4 Li     1.745000    4.935605    8.000000    ( 0.0000,  0.0000,  0.0000)
   5 Li     5.235000    4.935605    8.000000    ( 0.0000,  0.0000,  0.0000)
   6 Li     8.725000    4.935605    8.000000    ( 0.0000,  0.0000,  0.0000)
   7 Li    12.215000    4.935605    8.000000    ( 0.0000,  0.0000,  0.0000)
   8 Li     0.000000    7.403408    8.000000    ( 0.0000,  0.0000,  0.0000)
   9 Li     3.490000    7.403408    8.000000    ( 0.0000,  0.0000,  0.0000)
  10 Li     6.980000    7.403408    8.000000    ( 0.0000,  0.0000,  0.0000)
  11 Li    10.470000    7.403408    8.000000    ( 0.0000,  0.0000,  0.0000)
  12 Li     1.745000    9.871211    8.000000    ( 0.0000,  0.0000,  0.0000)
  13 Li     5.235000    9.871211    8.000000    ( 0.0000,  0.0000,  0.0000)
  14 Li     8.725000    9.871211    8.000000    ( 0.0000,  0.0000,  0.0000)
  15 Li    12.215000    9.871211    8.000000    ( 0.0000,  0.0000,  0.0000)
  16 Li     0.000000    0.000000   10.467803    ( 0.0000,  0.0000,  0.0000)
  17 Li     3.490000    0.000000   10.467803    ( 0.0000,  0.0000,  0.0000)
  18 Li     6.980000    0.000000   10.467803    ( 0.0000,  0.0000,  0.0000)
  19 Li    10.470000    0.000000   10.467803    ( 0.0000,  0.0000,  0.0000)
  20 Li     1.745000    2.467803   10.467803    ( 0.0000,  0.0000,  0.0000)
  21 Li     5.235000    2.467803   10.467803    ( 0.0000,  0.0000,  0.0000)
  22 Li     8.725000    2.467803   10.467803    ( 0.0000,  0.0000,  0.0000)
  23 Li    12.215000    2.467803   10.467803    ( 0.0000,  0.0000,  0.0000)
  24 Li     0.000000    4.935605   10.467803    ( 0.0000,  0.0000,  0.0000)
  25 Li     3.490000    4.935605   10.467803    ( 0.0000,  0.0000,  0.0000)
  26 Li     6.980000    4.935605   10.467803    ( 0.0000,  0.0000,  0.0000)
  27 Li    10.470000    4.935605   10.467803    ( 0.0000,  0.0000,  0.0000)
  28 Li     1.745000    7.403408   10.467803    ( 0.0000,  0.0000,  0.0000)
  29 Li     5.235000    7.403408   10.467803    ( 0.0000,  0.0000,  0.0000)
  30 Li     8.725000    7.403408   10.467803    ( 0.0000,  0.0000,  0.0000)
  31 Li    12.215000    7.403408   10.467803    ( 0.0000,  0.0000,  0.0000)
  32 Li     0.000000    2.467803   12.935605    ( 0.0000,  0.0000,  0.0000)
  33 Li     3.490000    2.467803   12.935605    ( 0.0000,  0.0000,  0.0000)
  34 Li     6.980000    2.467803   12.935605    ( 0.0000,  0.0000,  0.0000)
  35 Li    10.470000    2.467803   12.935605    ( 0.0000,  0.0000,  0.0000)
  36 Li     1.745000    4.935605   12.935605    ( 0.0000,  0.0000,  0.0000)
  37 Li     5.235000    4.935605   12.935605    ( 0.0000,  0.0000,  0.0000)
  38 Li     8.725000    4.935605   12.935605    ( 0.0000,  0.0000,  0.0000)
  39 Li    12.215000    4.935605   12.935605    ( 0.0000,  0.0000,  0.0000)
  40 Li     0.000000    7.403408   12.935605    ( 0.0000,  0.0000,  0.0000)
  41 Li     3.490000    7.403408   12.935605    ( 0.0000,  0.0000,  0.0000)
  42 Li     6.980000    7.403408   12.935605    ( 0.0000,  0.0000,  0.0000)
  43 Li    10.470000    7.403408   12.935605    ( 0.0000,  0.0000,  0.0000)
  44 Li     1.745000    9.871211   12.935605    ( 0.0000,  0.0000,  0.0000)
  45 Li     5.235000    9.871211   12.935605    ( 0.0000,  0.0000,  0.0000)
  46 Li     8.725000    9.871211   12.935605    ( 0.0000,  0.0000,  0.0000)
  47 Li    12.215000    9.871211   12.935605    ( 0.0000,  0.0000,  0.0000)
  48 Li     0.002607    0.007974   15.799795    ( 0.0000,  0.0000,  0.0000)
  49 Li     3.471922    0.004536   15.714767    ( 0.0000,  0.0000,  0.0000)
  50 Li     6.997418    0.004676   15.714270    ( 0.0000,  0.0000,  0.0000)
  51 Li    10.462582    0.006775   15.809134    ( 0.0000,  0.0000,  0.0000)
  52 Li     1.738129    2.464184   15.732458    ( 0.0000,  0.0000,  0.0000)
  53 Li     5.232221    2.450207   15.687317    ( 0.0000,  0.0000,  0.0000)
  54 Li     8.733944    2.461336   15.729245    ( 0.0000,  0.0000,  0.0000)
  55 Li    12.211761    2.458019   15.747840    ( 0.0000,  0.0000,  0.0000)
  56 Li     0.004383    4.939894   15.605100    ( 0.0000,  0.0000,  0.0000)
  57 Li     3.486296    4.931413   15.618561    ( 0.0000,  0.0000,  0.0000)
  58 Li     6.978176    4.930838   15.614102    ( 0.0000,  0.0000,  0.0000)
  59 Li    10.469746    4.941138   15.592721    ( 0.0000,  0.0000,  0.0000)
  60 Li     1.747509    7.404443   15.632809    ( 0.0000,  0.0000,  0.0000)
  61 Li     5.232348    7.417319   15.617889    ( 0.0000,  0.0000,  0.0000)
  62 Li     8.724076    7.405341   15.625501    ( 0.0000,  0.0000,  0.0000)
  63 Li    12.211066    7.403249   15.648447    ( 0.0000,  0.0000,  0.0000)
  64 Li    -0.010332    2.495115   18.513752    ( 0.0000,  0.0000,  0.0000)
  65 Li     3.481691    2.545697   18.469769    ( 0.0000,  0.0000,  0.0000)
  66 Li     6.984904    2.539851   18.451289    ( 0.0000,  0.0000,  0.0000)
  67 Li    10.473068    2.498516   18.532934    ( 0.0000,  0.0000,  0.0000)
  68 Li     1.723810    4.985314   18.282414    ( 0.0000,  0.0000,  0.0000)
  69 Li     5.234163    4.927822   18.313909    ( 0.0000,  0.0000,  0.0000)
  70 Li     8.757467    4.980332   18.242903    ( 0.0000,  0.0000,  0.0000)
  71 Li    12.211979    4.997892   18.271902    ( 0.0000,  0.0000,  0.0000)
  72 Li     0.016475    7.411126   18.341209    ( 0.0000,  0.0000,  0.0000)
  73 Li     3.493202    7.353308   18.322804    ( 0.0000,  0.0000,  0.0000)
  74 Li     6.983053    7.357502   18.314010    ( 0.0000,  0.0000,  0.0000)
  75 Li    10.439908    7.406886   18.357939    ( 0.0000,  0.0000,  0.0000)
  76 Li     1.829478    9.882222   18.581292    ( 0.0000,  0.0000,  0.0000)
  77 Li     5.230546    9.858007   18.414812    ( 0.0000,  0.0000,  0.0000)
  78 Li     8.637105    9.880143   18.597589    ( 0.0000,  0.0000,  0.0000)
  79 Li    12.211697    9.850276   18.600741    ( 0.0000,  0.0000,  0.0000)
  80 Li     0.031525    4.828967   20.900569    ( 0.0000,  0.0000,  0.0000)
  81 Li     3.560911    4.823093   20.956748    ( 0.0000,  0.0000,  0.0000)
  82 Li     6.973061    4.821991   20.889826    ( 0.0000,  0.0000,  0.0000)
  83 Li    10.427310    4.842587   20.915626    ( 0.0000,  0.0000,  0.0000)
  84 Li     1.779955    7.682044   20.970256    ( 0.0000,  0.0000,  0.0000)
  85 Li     5.242303    7.780187   20.909495    ( 0.0000,  0.0000,  0.0000)
  86 Li     8.668243    7.675014   21.015556    ( 0.0000,  0.0000,  0.0000)
  87 Li    12.214441    7.605018   20.981132    ( 0.0000,  0.0000,  0.0000)
  88 Li     5.476059    2.684501   21.608946    ( 0.0000,  0.0000,  0.0000)

Unit cell:
           periodic     x           y           z      points  spacing
  1. axis:    yes   13.960000    0.000000    0.000000    68     0.2053
  2. axis:    yes    0.000000    9.871211    0.000000    48     0.2057
  3. axis:    no     0.000000    0.000000   28.339013   140     0.2024

  Lengths:  13.960000   9.871211  28.339013
  Angles:   90.000000  90.000000  90.000000

Effective grid spacing dv^(1/3) = 0.2045

     iter     time        total  log10-change:
                         energy   eigst   dens
iter:   1 20:24:01  -143.430278        c
iter:   2 20:24:04  -143.429672        c -3.19
iter:   3 20:24:07  -143.430081c       c -3.06
iter:   4 20:24:10  -143.429994c       c -3.61
iter:   5 20:24:13  -143.429995c       c -3.91
iter:   6 20:24:15  -143.429995c       c -4.03c

Converged after 6 iterations.

Dipole moment: (-10.547136, -13.693534, 0.899274) |e|*Ang

Energy contributions relative to reference atoms: (reference = -18048.116001)

Kinetic:       +232.210357
Potential:     -197.019773
External:        +0.000000
XC:            -177.260405
Entropy (-ST):   -1.623964
Local:           -0.548192
SIC:             +0.000000
--------------------------
Free energy:   -144.241978
Extrapolated:  -143.429995

Showing all kpts
 Kpt  Band  Eigenvalues  Occupancy
  0    42     -2.71917    1.14027
  0    43     -2.67417    0.91637
  0    44     -2.65299    0.81254
  0    45     -2.62794    0.69507

  1    42     -2.71731    1.13114
  1    43     -2.67818    0.93633
  1    44     -2.64969    0.79667
  1    45     -2.62836    0.69695


Fermi level: -2.69093

Gap: 0.039 eV
Transition (v -> c):
  (s=0, k=1, n=42, [0.25, 0.25, 0.00]) -> (s=0, k=1, n=43, [0.25, 0.25, 0.00])
No difference between direct/indirect transitions

Forces in eV/Ang:
  0 Li   -0.00205   -0.00205   -0.17235
  1 Li   -0.00026   -0.00521   -0.17207
  2 Li    0.00010   -0.00573   -0.17194
  3 Li    0.00211   -0.00222   -0.17278
  4 Li   -0.00115   -0.00416   -0.16641
  5 Li   -0.00032   -0.00275   -0.16476
  6 Li    0.00163   -0.00378   -0.16589
  7 Li   -0.00016   -0.00894   -0.16669
  8 Li    0.00319    0.00305   -0.16418
  9 Li   -0.00071    0.00452   -0.16656
 10 Li    0.00064    0.00463   -0.16653
 11 Li   -0.00321    0.00326   -0.16418
 12 Li    0.00117    0.00327   -0.17064
 13 Li    0.00004    0.00430   -0.17110
 14 Li   -0.00079    0.00327   -0.17065
 15 Li   -0.00024    0.00845   -0.17267
 16 Li    0.00032   -0.00115   -0.09326
 17 Li   -0.00176    0.00003   -0.09361
 18 Li    0.00198   -0.00008   -0.09299
 19 Li   -0.00042   -0.00086   -0.09665
 20 Li   -0.00058   -0.00130   -0.09024
 21 Li   -0.00025    0.00045   -0.09227
 22 Li    0.00049   -0.00144   -0.09090
 23 Li    0.00012    0.00263   -0.08747
 24 Li    0.00035   -0.00435   -0.08610
 25 Li   -0.00098   -0.00162   -0.09122
 26 Li    0.00116   -0.00203   -0.09038
 27 Li   -0.00039   -0.00352   -0.08472
 28 Li    0.00090    0.00231   -0.08679
 29 Li   -0.00019    0.00288   -0.08688
 30 Li   -0.00052    0.00222   -0.08595
 31 Li   -0.00028    0.00585   -0.08600
 32 Li   -0.00171   -0.00588    0.29090
 33 Li   -0.00745   -0.00757    0.27045
 34 Li    0.00673   -0.00957    0.27073
 35 Li    0.00139   -0.00940    0.28698
 36 Li    0.00724   -0.01123    0.20972
 37 Li   -0.00229   -0.00586    0.20993
 38 Li   -0.00813   -0.01097    0.20889
 39 Li    0.00384   -0.01392    0.20684
 40 Li   -0.00071    0.01801    0.23383
 41 Li   -0.00598    0.00742    0.21851
 42 Li    0.00371    0.00688    0.21942
 43 Li    0.00178    0.02154    0.22670
 44 Li   -0.01378    0.00341    0.29290
 45 Li    0.00025    0.00969    0.26838
 46 Li    0.01710    0.00480    0.29193
 47 Li   -0.00385    0.00233    0.33184
 48 Li    0.00155    0.00332    0.00321
 49 Li    0.00028    0.00719    0.01786
 50 Li   -0.00039    0.00511    0.01811
 51 Li   -0.00107    0.00228    0.00669
 52 Li    0.00466   -0.00897    0.00702
 53 Li   -0.00014   -0.00221    0.01868
 54 Li   -0.00425   -0.00579    0.00181
 55 Li   -0.00298    0.00264    0.00308
 56 Li   -0.00768    0.00636    0.00612
 57 Li    0.01574    0.00072    0.00422
 58 Li   -0.01600   -0.00100    0.00320
 59 Li    0.00996    0.00311    0.00967
 60 Li   -0.00991    0.00646   -0.00452
 61 Li    0.00177   -0.00550    0.01080
 62 Li    0.00906    0.00872   -0.00508
 63 Li   -0.00137    0.00162    0.00278
 64 Li   -0.00054   -0.00049   -0.00672
 65 Li    0.05502   -0.03326    0.11373
 66 Li   -0.02816   -0.03443    0.07927
 67 Li   -0.00054   -0.00181   -0.00323
 68 Li   -0.00160    0.01799   -0.00069
 69 Li    0.00272    0.01478    0.04971
 70 Li   -0.00048    0.01075    0.00906
 71 Li    0.00266    0.00159    0.01585
 72 Li   -0.00326   -0.00464    0.00966
 73 Li   -0.00357   -0.00426   -0.01535
 74 Li    0.00148   -0.00113   -0.01079
 75 Li    0.00410   -0.00147    0.01215
 76 Li   -0.04952   -0.00598   -0.02391
 77 Li    0.00718    0.09032    0.09758
 78 Li    0.03660    0.00147   -0.00421
 79 Li    0.00485    0.01142   -0.02344
 80 Li   -0.01341   -0.01912    0.01814
 81 Li   -0.16301    0.22163   -0.05143
 82 Li    0.23346    0.42577   -0.09457
 83 Li    0.01906   -0.03078    0.00871
 84 Li   -0.02811   -0.02119   -0.00351
 85 Li   -0.00174   -0.02044    0.03285
 86 Li    0.05205    0.00303   -0.03023
 87 Li   -0.00381    0.00561    0.00258
 88 Li   -0.11774   -0.65980   -0.18973

System changes: positions 

Initializing position-dependent things.

Density initialized from wave functions
       .---------------------------------.  
      /|                                 |  
     / |                                 |  
    /  |                                 |  
   /   |                                 |  
  /    |                                 |  
 *     |                                 |  
 |     |                                 |  
 |     |                                 |  
 |     |                                 |  
 |     |  Li      Li       Li      Li    |  
 |     |                                 |  
 |  Li |     Li     LLi      Li      Li  |  
 |     |        Li                       |  
 |    Li      Li      Li       Li        |  
 |     |Li       Li      Li       Li     |  
 |     |                                 |  
 |     |  LLi     LiLi     LLi     LLi   |  
 |   Li|              Li                 |  
 |  Li |    Li       Li       Li         |  
 |     Li      Li       Li      Li       |  
 Li   Li      Li       Li Li   Li        |  
 |     |LLi      LLi     Li       Li     |  
 |     |                                 |  
 |Li   |  LLi     LLi      LLi     Li    |  
 |  LLi|     LLi     LLi      LLi        |  
 |     |                                 |  
 |    LLi     LLi      LLi     LLi       |  
 Li    |LLi      LLi     LiLi     Li     |  
 |     |                                 |  
 |Li   |   Li      Li       Li           |  
 |   Li|      Li      Li       Li        |  
 |     |                                 |  
 |     |                                 |  
 |     |                                 |  
 |     .---------------------------------.  
 |    /                                 /   
 |   /                                 /    
 |  /                                 /     
 | /                                 /      
 |/                                 /       
 *---------------------------------*        

Atomic positions and initial magnetic moments

Positions:
   0 Li     0.000000    2.467803    8.000000    ( 0.0000,  0.0000,  0.0000)
   1 Li     3.490000    2.467803    8.000000    ( 0.0000,  0.0000,  0.0000)
   2 Li     6.980000    2.467803    8.000000    ( 0.0000,  0.0000,  0.0000)
   3 Li    10.470000    2.467803    8.000000    ( 0.0000,  0.0000,  0.0000)
   4 Li     1.745000    4.935605    8.000000    ( 0.0000,  0.0000,  0.0000)
   5 Li     5.235000    4.935605    8.000000    ( 0.0000,  0.0000,  0.0000)
   6 Li     8.725000    4.935605    8.000000    ( 0.0000,  0.0000,  0.0000)
   7 Li    12.215000    4.935605    8.000000    ( 0.0000,  0.0000,  0.0000)
   8 Li     0.000000    7.403408    8.000000    ( 0.0000,  0.0000,  0.0000)
   9 Li     3.490000    7.403408    8.000000    ( 0.0000,  0.0000,  0.0000)
  10 Li     6.980000    7.403408    8.000000    ( 0.0000,  0.0000,  0.0000)
  11 Li    10.470000    7.403408    8.000000    ( 0.0000,  0.0000,  0.0000)
  12 Li     1.745000    9.871211    8.000000    ( 0.0000,  0.0000,  0.0000)
  13 Li     5.235000    9.871211    8.000000    ( 0.0000,  0.0000,  0.0000)
  14 Li     8.725000    9.871211    8.000000    ( 0.0000,  0.0000,  0.0000)
  15 Li    12.215000    9.871211    8.000000    ( 0.0000,  0.0000,  0.0000)
  16 Li     0.000000    0.000000   10.467803    ( 0.0000,  0.0000,  0.0000)
  17 Li     3.490000    0.000000   10.467803    ( 0.0000,  0.0000,  0.0000)
  18 Li     6.980000    0.000000   10.467803    ( 0.0000,  0.0000,  0.0000)
  19 Li    10.470000    0.000000   10.467803    ( 0.0000,  0.0000,  0.0000)
  20 Li     1.745000    2.467803   10.467803    ( 0.0000,  0.0000,  0.0000)
  21 Li     5.235000    2.467803   10.467803    ( 0.0000,  0.0000,  0.0000)
  22 Li     8.725000    2.467803   10.467803    ( 0.0000,  0.0000,  0.0000)
  23 Li    12.215000    2.467803   10.467803    ( 0.0000,  0.0000,  0.0000)
  24 Li     0.000000    4.935605   10.467803    ( 0.0000,  0.0000,  0.0000)
  25 Li     3.490000    4.935605   10.467803    ( 0.0000,  0.0000,  0.0000)
  26 Li     6.980000    4.935605   10.467803    ( 0.0000,  0.0000,  0.0000)
  27 Li    10.470000    4.935605   10.467803    ( 0.0000,  0.0000,  0.0000)
  28 Li     1.745000    7.403408   10.467803    ( 0.0000,  0.0000,  0.0000)
  29 Li     5.235000    7.403408   10.467803    ( 0.0000,  0.0000,  0.0000)
  30 Li     8.725000    7.403408   10.467803    ( 0.0000,  0.0000,  0.0000)
  31 Li    12.215000    7.403408   10.467803    ( 0.0000,  0.0000,  0.0000)
  32 Li     0.000000    2.467803   12.935605    ( 0.0000,  0.0000,  0.0000)
  33 Li     3.490000    2.467803   12.935605    ( 0.0000,  0.0000,  0.0000)
  34 Li     6.980000    2.467803   12.935605    ( 0.0000,  0.0000,  0.0000)
  35 Li    10.470000    2.467803   12.935605    ( 0.0000,  0.0000,  0.0000)
  36 Li     1.745000    4.935605   12.935605    ( 0.0000,  0.0000,  0.0000)
  37 Li     5.235000    4.935605   12.935605    ( 0.0000,  0.0000,  0.0000)
  38 Li     8.725000    4.935605   12.935605    ( 0.0000,  0.0000,  0.0000)
  39 Li    12.215000    4.935605   12.935605    ( 0.0000,  0.0000,  0.0000)
  40 Li     0.000000    7.403408   12.935605    ( 0.0000,  0.0000,  0.0000)
  41 Li     3.490000    7.403408   12.935605    ( 0.0000,  0.0000,  0.0000)
  42 Li     6.980000    7.403408   12.935605    ( 0.0000,  0.0000,  0.0000)
  43 Li    10.470000    7.403408   12.935605    ( 0.0000,  0.0000,  0.0000)
  44 Li     1.745000    9.871211   12.935605    ( 0.0000,  0.0000,  0.0000)
  45 Li     5.235000    9.871211   12.935605    ( 0.0000,  0.0000,  0.0000)
  46 Li     8.725000    9.871211   12.935605    ( 0.0000,  0.0000,  0.0000)
  47 Li    12.215000    9.871211   12.935605    ( 0.0000,  0.0000,  0.0000)
  48 Li     0.002744    0.008041   15.799796    ( 0.0000,  0.0000,  0.0000)
  49 Li     3.472103    0.004748   15.715957    ( 0.0000,  0.0000,  0.0000)
  50 Li     6.997219    0.004823   15.715460    ( 0.0000,  0.0000,  0.0000)
  51 Li    10.462388    0.006790   15.809383    ( 0.0000,  0.0000,  0.0000)
  52 Li     1.738240    2.463776   15.732583    ( 0.0000,  0.0000,  0.0000)
  53 Li     5.232173    2.450120   15.687720    ( 0.0000,  0.0000,  0.0000)
  54 Li     8.733877    2.460983   15.729167    ( 0.0000,  0.0000,  0.0000)
  55 Li    12.211617    2.458005   15.747946    ( 0.0000,  0.0000,  0.0000)
  56 Li     0.004149    4.940055   15.605660    ( 0.0000,  0.0000,  0.0000)
  57 Li     3.486609    4.931456   15.618508    ( 0.0000,  0.0000,  0.0000)
  58 Li     6.977765    4.930816   15.613947    ( 0.0000,  0.0000,  0.0000)
  59 Li    10.470119    4.941219   15.593188    ( 0.0000,  0.0000,  0.0000)
  60 Li     1.747130    7.404609   15.632881    ( 0.0000,  0.0000,  0.0000)
  61 Li     5.232360    7.416970   15.618110    ( 0.0000,  0.0000,  0.0000)
  62 Li     8.724455    7.405594   15.625437    ( 0.0000,  0.0000,  0.0000)
  63 Li    12.210960    7.403239   15.648869    ( 0.0000,  0.0000,  0.0000)
  64 Li    -0.010286    2.494976   18.513313    ( 0.0000,  0.0000,  0.0000)
  65 Li     3.483534    2.544216   18.472983    ( 0.0000,  0.0000,  0.0000)
  66 Li     6.983832    2.538217   18.453157    ( 0.0000,  0.0000,  0.0000)
  67 Li    10.472863    2.498398   18.532913    ( 0.0000,  0.0000,  0.0000)
  68 Li     1.724166    4.985783   18.282943    ( 0.0000,  0.0000,  0.0000)
  69 Li     5.234233    4.928446   18.314696    ( 0.0000,  0.0000,  0.0000)
  70 Li     8.757207    4.980493   18.243131    ( 0.0000,  0.0000,  0.0000)
  71 Li    12.212014    4.997739   18.272741    ( 0.0000,  0.0000,  0.0000)
  72 Li     0.016332    7.410527   18.341908    ( 0.0000,  0.0000,  0.0000)
  73 Li     3.493214    7.353080   18.322309    ( 0.0000,  0.0000,  0.0000)
  74 Li     6.983074    7.357418   18.313528    ( 0.0000,  0.0000,  0.0000)
  75 Li    10.439868    7.406323   18.358980    ( 0.0000,  0.0000,  0.0000)
  76 Li     1.827394    9.881728   18.580800    ( 0.0000,  0.0000,  0.0000)
  77 Li     5.230693    9.860611   18.419483    ( 0.0000,  0.0000,  0.0000)
  78 Li     8.638739    9.879844   18.597956    ( 0.0000,  0.0000,  0.0000)
  79 Li    12.211793    9.850525   18.599433    ( 0.0000,  0.0000,  0.0000)
  80 Li     0.031034    4.827912   20.901421    ( 0.0000,  0.0000,  0.0000)
  81 Li     3.556361    4.828952   20.955681    ( 0.0000,  0.0000,  0.0000)
  82 Li     6.981002    4.834309   20.886132    ( 0.0000,  0.0000,  0.0000)
  83 Li    10.427760    4.841391   20.916436    ( 0.0000,  0.0000,  0.0000)
  84 Li     1.779604    7.680176   20.970488    ( 0.0000,  0.0000,  0.0000)
  85 Li     5.242377    7.777285   20.911187    ( 0.0000,  0.0000,  0.0000)
  86 Li     8.668943    7.673712   21.015703    ( 0.0000,  0.0000,  0.0000)
  87 Li    12.214315    7.605442   20.981421    ( 0.0000,  0.0000,  0.0000)
  88 Li     5.476170    2.680600   21.614001    ( 0.0000,  0.0000,  0.0000)

Unit cell:
           periodic     x           y           z      points  spacing
  1. axis:    yes   13.960000    0.000000    0.000000    68     0.2053
  2. axis:    yes    0.000000    9.871211    0.000000    48     0.2057
  3. axis:    no     0.000000    0.000000   28.339013   140     0.2024

  Lengths:  13.960000   9.871211  28.339013
  Angles:   90.000000  90.000000  90.000000

Effective grid spacing dv^(1/3) = 0.2045

     iter     time        total  log10-change:
                         energy   eigst   dens
iter:   1 20:25:48  -143.443245        c
iter:   2 20:25:51  -143.442695        c -3.07
iter:   3 20:25:53  -143.443173c       c -3.04
iter:   4 20:25:56  -143.442957c       c -3.36
iter:   5 20:25:59  -143.442984c       c -3.67
iter:   6 20:26:02  -143.442977c       c -3.81
iter:   7 20:26:04  -143.442978c       c -3.96
iter:   8 20:26:08  -143.442989c       c -4.06c

Converged after 8 iterations.

Dipole moment: (-10.537904, -13.736554, 0.902572) |e|*Ang

Energy contributions relative to reference atoms: (reference = -18048.116001)

Kinetic:       +232.123563
Potential:     -196.962551
External:        +0.000000
XC:            -177.244205
Entropy (-ST):   -1.623741
Local:           -0.547926
SIC:             +0.000000
--------------------------
Free energy:   -144.254860
Extrapolated:  -143.442989

Showing all kpts
 Kpt  Band  Eigenvalues  Occupancy
  0    42     -2.71813    1.13924
  0    43     -2.67333    0.91633
  0    44     -2.65223    0.81288
  0    45     -2.62721    0.69552

  1    42     -2.71625    1.13003
  1    43     -2.67729    0.93605
  1    44     -2.64896    0.79715
  1    45     -2.62768    0.69765


Fermi level: -2.69010

Gap: 0.039 eV
Transition (v -> c):
  (s=0, k=1, n=42, [0.25, 0.25, 0.00]) -> (s=0, k=1, n=43, [0.25, 0.25, 0.00])
No difference between direct/indirect transitions

Forces in eV/Ang:
  0 Li   -0.00208   -0.00205   -0.17236
  1 Li   -0.00020   -0.00517   -0.17203
  2 Li    0.00008   -0.00570   -0.17196
  3 Li    0.00211   -0.00223   -0.17286
  4 Li   -0.00112   -0.00414   -0.16643
  5 Li   -0.00032   -0.00279   -0.16476
  6 Li    0.00160   -0.00380   -0.16595
  7 Li   -0.00016   -0.00893   -0.16677
  8 Li    0.00316    0.00306   -0.16427
  9 Li   -0.00070    0.00449   -0.16653
 10 Li    0.00064    0.00461   -0.16653
 11 Li   -0.00318    0.00328   -0.16432
 12 Li    0.00116    0.00326   -0.17062
 13 Li    0.00006    0.00434   -0.17104
 14 Li   -0.00078    0.00328   -0.17069
 15 Li   -0.00026    0.00842   -0.17278
 16 Li    0.00040   -0.00115   -0.09326
 17 Li   -0.00172    0.00001   -0.09373
 18 Li    0.00190   -0.00012   -0.09319
 19 Li   -0.00045   -0.00085   -0.09678
 20 Li   -0.00050   -0.00130   -0.09033
 21 Li   -0.00028    0.00043   -0.09243
 22 Li    0.00043   -0.00144   -0.09108
 23 Li    0.00014    0.00260   -0.08761
 24 Li    0.00047   -0.00436   -0.08619
 25 Li   -0.00098   -0.00161   -0.09121
 26 Li    0.00109   -0.00204   -0.09042
 27 Li   -0.00046   -0.00354   -0.08488
 28 Li    0.00098    0.00231   -0.08671
 29 Li   -0.00023    0.00295   -0.08681
 30 Li   -0.00062    0.00223   -0.08598
 31 Li   -0.00023    0.00588   -0.08610
 32 Li   -0.00156   -0.00570    0.29099
 33 Li   -0.00729   -0.00758    0.27054
 34 Li    0.00642   -0.00960    0.27083
 35 Li    0.00137   -0.00928    0.28701
 36 Li    0.00723   -0.01116    0.21015
 37 Li   -0.00242   -0.00582    0.20984
 38 Li   -0.00810   -0.01086    0.20935
 39 Li    0.00395   -0.01377    0.20705
 40 Li   -0.00077    0.01789    0.23394
 41 Li   -0.00594    0.00742    0.21898
 42 Li    0.00356    0.00690    0.21988
 43 Li    0.00192    0.02142    0.22678
 44 Li   -0.01332    0.00332    0.29327
 45 Li    0.00018    0.00963    0.26890
 46 Li    0.01669    0.00470    0.29236
 47 Li   -0.00384    0.00216    0.33198
 48 Li    0.00100    0.00287    0.00244
 49 Li    0.00112    0.00633    0.01808
 50 Li   -0.00109    0.00453    0.01840
 51 Li   -0.00071    0.00190    0.00618
 52 Li    0.00524   -0.00790    0.00781
 53 Li   -0.00022   -0.00181    0.01926
 54 Li   -0.00465   -0.00489    0.00260
 55 Li   -0.00276    0.00257    0.00292
 56 Li   -0.00731    0.00614    0.00558
 57 Li    0.01498    0.00045    0.00477
 58 Li   -0.01513   -0.00107    0.00390
 59 Li    0.00940    0.00304    0.00927
 60 Li   -0.00966    0.00621   -0.00483
 61 Li    0.00168   -0.00450    0.01020
 62 Li    0.00881    0.00818   -0.00515
 63 Li   -0.00128    0.00185    0.00287
 64 Li   -0.00043    0.00050   -0.00628
 65 Li    0.05144   -0.03054    0.11289
 66 Li   -0.02608   -0.03021    0.08064
 67 Li   -0.00028   -0.00114   -0.00308
 68 Li   -0.00232    0.01587   -0.00216
 69 Li    0.00274    0.01207    0.05001
 70 Li    0.00158    0.00942    0.00563
 71 Li    0.00246    0.00133    0.01558
 72 Li   -0.00408   -0.00471    0.00894
 73 Li   -0.00255   -0.00112   -0.01499
 74 Li    0.00079    0.00267   -0.01125
 75 Li    0.00440   -0.00187    0.01143
 76 Li   -0.04792   -0.00576   -0.02354
 77 Li    0.00696    0.08500    0.09621
 78 Li    0.03573    0.00155   -0.00434
 79 Li    0.00444    0.01039   -0.02241
 80 Li   -0.01407   -0.01900    0.01806
 81 Li   -0.15036    0.21002   -0.04873
 82 Li    0.21037    0.39818   -0.08623
 83 Li    0.02103   -0.03035    0.00878
 84 Li   -0.02905   -0.01835   -0.00318
 85 Li   -0.00201   -0.01616    0.03205
 86 Li    0.05376    0.00814   -0.02924
 87 Li   -0.00360    0.00564    0.00235
 88 Li   -0.11048   -0.63430   -0.20104

System changes: positions 

Initializing position-dependent things.

Density initialized from wave functions
       .---------------------------------.  
      /|                                 |  
     / |                                 |  
    /  |                                 |  
   /   |                                 |  
  /    |                                 |  
 *     |                                 |  
 |     |                                 |  
 |     |                                 |  
 |     |                                 |  
 |     |  Li      Li       Li      Li    |  
 |     |                                 |  
 |  Li |     Li     LLi      Li      Li  |  
 |     |        Li                       |  
 |    Li      Li      Li       Li        |  
 |     |Li       Li      Li       Li     |  
 |     |                                 |  
 |     |  LLi     LiLi     LLi     LLi   |  
 |   Li|              Li                 |  
 |  Li |    Li       Li       Li         |  
 |     Li      Li       Li      Li       |  
 Li   Li      Li       Li Li   Li        |  
 |     |LLi      LLi     Li       Li     |  
 |     |                                 |  
 |Li   |  LLi     LLi      LLi     Li    |  
 |  LLi|     LLi     LLi      LLi        |  
 |     |                                 |  
 |    LLi     LLi      LLi     LLi       |  
 Li    |LLi      LLi     LiLi     Li     |  
 |     |                                 |  
 |Li   |   Li      Li       Li           |  
 |   Li|      Li      Li       Li        |  
 |     |                                 |  
 |     |                                 |  
 |     |                                 |  
 |     .---------------------------------.  
 |    /                                 /   
 |   /                                 /    
 |  /                                 /     
 | /                                 /      
 |/                                 /       
 *---------------------------------*        

Atomic positions and initial magnetic moments

Positions:
   0 Li     0.000000    2.467803    8.000000    ( 0.0000,  0.0000,  0.0000)
   1 Li     3.490000    2.467803    8.000000    ( 0.0000,  0.0000,  0.0000)
   2 Li     6.980000    2.467803    8.000000    ( 0.0000,  0.0000,  0.0000)
   3 Li    10.470000    2.467803    8.000000    ( 0.0000,  0.0000,  0.0000)
   4 Li     1.745000    4.935605    8.000000    ( 0.0000,  0.0000,  0.0000)
   5 Li     5.235000    4.935605    8.000000    ( 0.0000,  0.0000,  0.0000)
   6 Li     8.725000    4.935605    8.000000    ( 0.0000,  0.0000,  0.0000)
   7 Li    12.215000    4.935605    8.000000    ( 0.0000,  0.0000,  0.0000)
   8 Li     0.000000    7.403408    8.000000    ( 0.0000,  0.0000,  0.0000)
   9 Li     3.490000    7.403408    8.000000    ( 0.0000,  0.0000,  0.0000)
  10 Li     6.980000    7.403408    8.000000    ( 0.0000,  0.0000,  0.0000)
  11 Li    10.470000    7.403408    8.000000    ( 0.0000,  0.0000,  0.0000)
  12 Li     1.745000    9.871211    8.000000    ( 0.0000,  0.0000,  0.0000)
  13 Li     5.235000    9.871211    8.000000    ( 0.0000,  0.0000,  0.0000)
  14 Li     8.725000    9.871211    8.000000    ( 0.0000,  0.0000,  0.0000)
  15 Li    12.215000    9.871211    8.000000    ( 0.0000,  0.0000,  0.0000)
  16 Li     0.000000    0.000000   10.467803    ( 0.0000,  0.0000,  0.0000)
  17 Li     3.490000    0.000000   10.467803    ( 0.0000,  0.0000,  0.0000)
  18 Li     6.980000    0.000000   10.467803    ( 0.0000,  0.0000,  0.0000)
  19 Li    10.470000    0.000000   10.467803    ( 0.0000,  0.0000,  0.0000)
  20 Li     1.745000    2.467803   10.467803    ( 0.0000,  0.0000,  0.0000)
  21 Li     5.235000    2.467803   10.467803    ( 0.0000,  0.0000,  0.0000)
  22 Li     8.725000    2.467803   10.467803    ( 0.0000,  0.0000,  0.0000)
  23 Li    12.215000    2.467803   10.467803    ( 0.0000,  0.0000,  0.0000)
  24 Li     0.000000    4.935605   10.467803    ( 0.0000,  0.0000,  0.0000)
  25 Li     3.490000    4.935605   10.467803    ( 0.0000,  0.0000,  0.0000)
  26 Li     6.980000    4.935605   10.467803    ( 0.0000,  0.0000,  0.0000)
  27 Li    10.470000    4.935605   10.467803    ( 0.0000,  0.0000,  0.0000)
  28 Li     1.745000    7.403408   10.467803    ( 0.0000,  0.0000,  0.0000)
  29 Li     5.235000    7.403408   10.467803    ( 0.0000,  0.0000,  0.0000)
  30 Li     8.725000    7.403408   10.467803    ( 0.0000,  0.0000,  0.0000)
  31 Li    12.215000    7.403408   10.467803    ( 0.0000,  0.0000,  0.0000)
  32 Li     0.000000    2.467803   12.935605    ( 0.0000,  0.0000,  0.0000)
  33 Li     3.490000    2.467803   12.935605    ( 0.0000,  0.0000,  0.0000)
  34 Li     6.980000    2.467803   12.935605    ( 0.0000,  0.0000,  0.0000)
  35 Li    10.470000    2.467803   12.935605    ( 0.0000,  0.0000,  0.0000)
  36 Li     1.745000    4.935605   12.935605    ( 0.0000,  0.0000,  0.0000)
  37 Li     5.235000    4.935605   12.935605    ( 0.0000,  0.0000,  0.0000)
  38 Li     8.725000    4.935605   12.935605    ( 0.0000,  0.0000,  0.0000)
  39 Li    12.215000    4.935605   12.935605    ( 0.0000,  0.0000,  0.0000)
  40 Li     0.000000    7.403408   12.935605    ( 0.0000,  0.0000,  0.0000)
  41 Li     3.490000    7.403408   12.935605    ( 0.0000,  0.0000,  0.0000)
  42 Li     6.980000    7.403408   12.935605    ( 0.0000,  0.0000,  0.0000)
  43 Li    10.470000    7.403408   12.935605    ( 0.0000,  0.0000,  0.0000)
  44 Li     1.745000    9.871211   12.935605    ( 0.0000,  0.0000,  0.0000)
  45 Li     5.235000    9.871211   12.935605    ( 0.0000,  0.0000,  0.0000)
  46 Li     8.725000    9.871211   12.935605    ( 0.0000,  0.0000,  0.0000)
  47 Li    12.215000    9.871211   12.935605    ( 0.0000,  0.0000,  0.0000)
  48 Li     0.002914    0.008123   15.799783    ( 0.0000,  0.0000,  0.0000)
  49 Li     3.472363    0.005020   15.717558    ( 0.0000,  0.0000,  0.0000)
  50 Li     6.996940    0.005012   15.717061    ( 0.0000,  0.0000,  0.0000)
  51 Li    10.462138    0.006804   15.809709    ( 0.0000,  0.0000,  0.0000)
  52 Li     1.738404    2.463251   15.732776    ( 0.0000,  0.0000,  0.0000)
  53 Li     5.232108    2.450009   15.688287    ( 0.0000,  0.0000,  0.0000)
  54 Li     8.733774    2.460530   15.729082    ( 0.0000,  0.0000,  0.0000)
  55 Li    12.211427    2.457988   15.748086    ( 0.0000,  0.0000,  0.0000)
  56 Li     0.003840    4.940268   15.606392    ( 0.0000,  0.0000,  0.0000)
  57 Li     3.487022    4.931504   15.618458    ( 0.0000,  0.0000,  0.0000)
  58 Li     6.977224    4.930780   15.613764    ( 0.0000,  0.0000,  0.0000)
  59 Li    10.470611    4.941325   15.593806    ( 0.0000,  0.0000,  0.0000)
  60 Li     1.746623    7.404830   15.632965    ( 0.0000,  0.0000,  0.0000)
  61 Li     5.232376    7.416528   15.618403    ( 0.0000,  0.0000,  0.0000)
  62 Li     8.724961    7.405928   15.625344    ( 0.0000,  0.0000,  0.0000)
  63 Li    12.210821    7.403236   15.649430    ( 0.0000,  0.0000,  0.0000)
  64 Li    -0.010220    2.494817   18.512735    ( 0.0000,  0.0000,  0.0000)
  65 Li     3.485948    2.542290   18.477335    ( 0.0000,  0.0000,  0.0000)
  66 Li     6.982428    2.536119   18.455758    ( 0.0000,  0.0000,  0.0000)
  67 Li    10.472596    2.498259   18.532885    ( 0.0000,  0.0000,  0.0000)
  68 Li     1.724619    4.986372   18.283608    ( 0.0000,  0.0000,  0.0000)
  69 Li     5.234328    4.929227   18.315798    ( 0.0000,  0.0000,  0.0000)
  70 Li     8.756907    4.980682   18.243368    ( 0.0000,  0.0000,  0.0000)
  71 Li    12.212059    4.997528   18.273860    ( 0.0000,  0.0000,  0.0000)
  72 Li     0.016126    7.409731   18.342828    ( 0.0000,  0.0000,  0.0000)
  73 Li     3.493244    7.352851   18.321645    ( 0.0000,  0.0000,  0.0000)
  74 Li     6.983090    7.357398   18.312869    ( 0.0000,  0.0000,  0.0000)
  75 Li    10.439823    7.405572   18.360356    ( 0.0000,  0.0000,  0.0000)
  76 Li     1.824621    9.881069   18.580133    ( 0.0000,  0.0000,  0.0000)
  77 Li     5.230891    9.864016   18.425718    ( 0.0000,  0.0000,  0.0000)
  78 Li     8.640917    9.879443   18.598434    ( 0.0000,  0.0000,  0.0000)
  79 Li    12.211919    9.850846   18.597696    ( 0.0000,  0.0000,  0.0000)
  80 Li     0.030356    4.826498   20.902563    ( 0.0000,  0.0000,  0.0000)
  81 Li     3.550345    4.836714   20.954196    ( 0.0000,  0.0000,  0.0000)
  82 Li     6.991477    4.850611   20.881029    ( 0.0000,  0.0000,  0.0000)
  83 Li    10.428411    4.839780   20.917520    ( 0.0000,  0.0000,  0.0000)
  84 Li     1.779086    7.677747   20.970793    ( 0.0000,  0.0000,  0.0000)
  85 Li     5.242470    7.773472   20.913462    ( 0.0000,  0.0000,  0.0000)
  86 Li     8.669966    7.672100   21.015878    ( 0.0000,  0.0000,  0.0000)
  87 Li    12.214149    7.606008   20.981802    ( 0.0000,  0.0000,  0.0000)
  88 Li     5.476237    2.675171   21.620600    ( 0.0000,  0.0000,  0.0000)

Unit cell:
           periodic     x           y           z      points  spacing
  1. axis:    yes   13.960000    0.000000    0.000000    68     0.2053
  2. axis:    yes    0.000000    9.871211    0.000000    48     0.2057
  3. axis:    no     0.000000    0.000000   28.339013   140     0.2024

  Lengths:  13.960000   9.871211  28.339013
  Angles:   90.000000  90.000000  90.000000

Effective grid spacing dv^(1/3) = 0.2045

     iter     time        total  log10-change:
                         energy   eigst   dens
iter:   1 20:27:46  -143.458713        c
iter:   2 20:27:49  -143.459961        c -2.90
iter:   3 20:27:51  -143.458849c       c -2.80
iter:   4 20:27:54  -143.458969c       c -3.26
iter:   5 20:27:57  -143.458955c       c -3.56
iter:   6 20:28:00  -143.458945c       c -3.72
iter:   7 20:28:03  -143.458942c       c -3.89
iter:   8 20:28:06  -143.458946c       c -4.01c

Converged after 8 iterations.

Dipole moment: (-10.524561, -13.793022, 0.906663) |e|*Ang

Energy contributions relative to reference atoms: (reference = -18048.116001)

Kinetic:       +232.020815
Potential:     -196.895253
External:        +0.000000
XC:            -177.224713
Entropy (-ST):   -1.623495
Local:           -0.548048
SIC:             +0.000000
--------------------------
Free energy:   -144.270694
Extrapolated:  -143.458946

Showing all kpts
 Kpt  Band  Eigenvalues  Occupancy
  0    42     -2.71659    1.13780
  0    43     -2.67207    0.91624
  0    44     -2.65104    0.81312
  0    45     -2.62613    0.69624

  1    42     -2.71469    1.12844
  1    43     -2.67595    0.93556
  1    44     -2.64781    0.79762
  1    45     -2.62668    0.69874


Fermi level: -2.68886

Gap: 0.039 eV
Transition (v -> c):
  (s=0, k=1, n=42, [0.25, 0.25, 0.00]) -> (s=0, k=1, n=43, [0.25, 0.25, 0.00])
No difference between direct/indirect transitions

Forces in eV/Ang:
  0 Li   -0.00219   -0.00208   -0.17228
  1 Li   -0.00018   -0.00516   -0.17199
  2 Li    0.00010   -0.00570   -0.17190
  3 Li    0.00217   -0.00226   -0.17279
  4 Li   -0.00117   -0.00414   -0.16643
  5 Li   -0.00031   -0.00287   -0.16476
  6 Li    0.00164   -0.00384   -0.16592
  7 Li   -0.00019   -0.00892   -0.16675
  8 Li    0.00306    0.00310   -0.16431
  9 Li   -0.00074    0.00448   -0.16654
 10 Li    0.00070    0.00461   -0.16651
 11 Li   -0.00309    0.00332   -0.16436
 12 Li    0.00107    0.00326   -0.17059
 13 Li    0.00009    0.00441   -0.17099
 14 Li   -0.00069    0.00332   -0.17065
 15 Li   -0.00028    0.00840   -0.17274
 16 Li    0.00037   -0.00107   -0.09306
 17 Li   -0.00173    0.00007   -0.09377
 18 Li    0.00194   -0.00008   -0.09323
 19 Li   -0.00045   -0.00076   -0.09667
 20 Li   -0.00054   -0.00132   -0.09024
 21 Li   -0.00026    0.00039   -0.09244
 22 Li    0.00048   -0.00144   -0.09099
 23 Li    0.00010    0.00256   -0.08745
 24 Li    0.00046   -0.00444   -0.08616
 25 Li   -0.00103   -0.00169   -0.09113
 26 Li    0.00116   -0.00212   -0.09032
 27 Li   -0.00048   -0.00365   -0.08486
 28 Li    0.00094    0.00233   -0.08659
 29 Li   -0.00020    0.00302   -0.08666
 30 Li   -0.00059    0.00226   -0.08587
 31 Li   -0.00024    0.00592   -0.08612
 32 Li   -0.00151   -0.00554    0.29126
 33 Li   -0.00711   -0.00770    0.27084
 34 Li    0.00616   -0.00975    0.27106
 35 Li    0.00138   -0.00922    0.28708
 36 Li    0.00706   -0.01127    0.21083
 37 Li   -0.00250   -0.00598    0.20980
 38 Li   -0.00790   -0.01092    0.20997
 39 Li    0.00400   -0.01378    0.20734
 40 Li   -0.00101    0.01781    0.23412
 41 Li   -0.00593    0.00755    0.21979
 42 Li    0.00353    0.00705    0.22058
 43 Li    0.00216    0.02135    0.22684
 44 Li   -0.01281    0.00342    0.29397
 45 Li    0.00020    0.00974    0.26984
 46 Li    0.01626    0.00479    0.29301
 47 Li   -0.00393    0.00216    0.33223
 48 Li    0.00028    0.00246    0.00127
 49 Li    0.00233    0.00538    0.01856
 50 Li   -0.00213    0.00394    0.01884
 51 Li   -0.00022    0.00162    0.00529
 52 Li    0.00608   -0.00644    0.00911
 53 Li   -0.00035   -0.00134    0.02012
 54 Li   -0.00524   -0.00372    0.00369
 55 Li   -0.00243    0.00241    0.00254
 56 Li   -0.00672    0.00561    0.00494
 57 Li    0.01384   -0.00022    0.00591
 58 Li   -0.01390   -0.00141    0.00514
 59 Li    0.00856    0.00271    0.00869
 60 Li   -0.00928    0.00593   -0.00500
 61 Li    0.00156   -0.00296    0.00980
 62 Li    0.00839    0.00744   -0.00508
 63 Li   -0.00110    0.00228    0.00299
 64 Li    0.00008    0.00192   -0.00579
 65 Li    0.04600   -0.02648    0.11112
 66 Li   -0.02282   -0.02399    0.08178
 67 Li   -0.00001   -0.00014   -0.00309
 68 Li   -0.00318    0.01290   -0.00428
 69 Li    0.00265    0.00839    0.05019
 70 Li    0.00424    0.00746    0.00076
 71 Li    0.00224    0.00087    0.01518
 72 Li   -0.00473   -0.00490    0.00803
 73 Li   -0.00101    0.00344   -0.01431
 74 Li   -0.00040    0.00826   -0.01186
 75 Li    0.00439   -0.00263    0.01062
 76 Li   -0.04544   -0.00562   -0.02301
 77 Li    0.00648    0.07648    0.09370
 78 Li    0.03419    0.00127   -0.00448
 79 Li    0.00405    0.00922   -0.02133
 80 Li   -0.01495   -0.01887    0.01774
 81 Li   -0.13354    0.19490   -0.04512
 82 Li    0.17944    0.36066   -0.07413
 83 Li    0.02374   -0.02977    0.00877
 84 Li   -0.03032   -0.01406   -0.00318
 85 Li   -0.00263   -0.01023    0.03041
 86 Li    0.05623    0.01570   -0.02831
 87 Li   -0.00331    0.00555    0.00230
 88 Li   -0.10077   -0.59956   -0.21498

System changes: positions 

Initializing position-dependent things.

Density initialized from wave functions
       .---------------------------------.  
      /|                                 |  
     / |                                 |  
    /  |                                 |  
   /   |                                 |  
  /    |                                 |  
 *     |                                 |  
 |     |                                 |  
 |     |                                 |  
 |     |                                 |  
 |     |  Li      Li       Li      Li    |  
 |     |                                 |  
 |  Li |     Li     LLi      Li      Li  |  
 |     |        Li                       |  
 |    Li      Li      Li       Li        |  
 |     |Li       Li      Li       Li     |  
 |     |                                 |  
 |     |  LLi     LiLi     LLi     LLi   |  
 |   Li|              Li                 |  
 |  Li |    Li       Li       Li         |  
 |     Li      Li       Li      Li       |  
 Li   Li      Li       Li Li   Li        |  
 |     |LLi      LLi     Li       Li     |  
 |     |                                 |  
 |Li   |  LLi     LLi      LLi     Li    |  
 |  LLi|     LLi     LLi      LLi        |  
 |     |                                 |  
 |    LLi     LLi      LLi     LLi       |  
 Li    |LLi      LLi     LiLi     Li     |  
 |     |                                 |  
 |Li   |   Li      Li       Li           |  
 |   Li|      Li      Li       Li        |  
 |     |                                 |  
 |     |                                 |  
 |     |                                 |  
 |     .---------------------------------.  
 |    /                                 /   
 |   /                                 /    
 |  /                                 /     
 | /                                 /      
 |/                                 /       
 *---------------------------------*        

Atomic positions and initial magnetic moments

Positions:
   0 Li     0.000000    2.467803    8.000000    ( 0.0000,  0.0000,  0.0000)
   1 Li     3.490000    2.467803    8.000000    ( 0.0000,  0.0000,  0.0000)
   2 Li     6.980000    2.467803    8.000000    ( 0.0000,  0.0000,  0.0000)
   3 Li    10.470000    2.467803    8.000000    ( 0.0000,  0.0000,  0.0000)
   4 Li     1.745000    4.935605    8.000000    ( 0.0000,  0.0000,  0.0000)
   5 Li     5.235000    4.935605    8.000000    ( 0.0000,  0.0000,  0.0000)
   6 Li     8.725000    4.935605    8.000000    ( 0.0000,  0.0000,  0.0000)
   7 Li    12.215000    4.935605    8.000000    ( 0.0000,  0.0000,  0.0000)
   8 Li     0.000000    7.403408    8.000000    ( 0.0000,  0.0000,  0.0000)
   9 Li     3.490000    7.403408    8.000000    ( 0.0000,  0.0000,  0.0000)
  10 Li     6.980000    7.403408    8.000000    ( 0.0000,  0.0000,  0.0000)
  11 Li    10.470000    7.403408    8.000000    ( 0.0000,  0.0000,  0.0000)
  12 Li     1.745000    9.871211    8.000000    ( 0.0000,  0.0000,  0.0000)
  13 Li     5.235000    9.871211    8.000000    ( 0.0000,  0.0000,  0.0000)
  14 Li     8.725000    9.871211    8.000000    ( 0.0000,  0.0000,  0.0000)
  15 Li    12.215000    9.871211    8.000000    ( 0.0000,  0.0000,  0.0000)
  16 Li     0.000000    0.000000   10.467803    ( 0.0000,  0.0000,  0.0000)
  17 Li     3.490000    0.000000   10.467803    ( 0.0000,  0.0000,  0.0000)
  18 Li     6.980000    0.000000   10.467803    ( 0.0000,  0.0000,  0.0000)
  19 Li    10.470000    0.000000   10.467803    ( 0.0000,  0.0000,  0.0000)
  20 Li     1.745000    2.467803   10.467803    ( 0.0000,  0.0000,  0.0000)
  21 Li     5.235000    2.467803   10.467803    ( 0.0000,  0.0000,  0.0000)
[...]
  36 Li     1.745000    4.935605   12.935605    ( 0.0000,  0.0000,  0.0000)
  37 Li     5.235000    4.935605   12.935605    ( 0.0000,  0.0000,  0.0000)
  38 Li     8.725000    4.935605   12.935605    ( 0.0000,  0.0000,  0.0000)
  39 Li    12.215000    4.935605   12.935605    ( 0.0000,  0.0000,  0.0000)
  40 Li     0.000000    7.403408   12.935605    ( 0.0000,  0.0000,  0.0000)
  41 Li     3.490000    7.403408   12.935605    ( 0.0000,  0.0000,  0.0000)
  42 Li     6.980000    7.403408   12.935605    ( 0.0000,  0.0000,  0.0000)
  43 Li    10.470000    7.403408   12.935605    ( 0.0000,  0.0000,  0.0000)
  44 Li     1.745000    9.871211   12.935605    ( 0.0000,  0.0000,  0.0000)
  45 Li     5.235000    9.871211   12.935605    ( 0.0000,  0.0000,  0.0000)
  46 Li     8.725000    9.871211   12.935605    ( 0.0000,  0.0000,  0.0000)
  47 Li    12.215000    9.871211   12.935605    ( 0.0000,  0.0000,  0.0000)
  48 Li     0.002898    0.009022   15.793059    ( 0.0000,  0.0000,  0.0000)
  49 Li     3.482804    0.006903   15.752002    ( 0.0000,  0.0000,  0.0000)
  50 Li     6.987355    0.007529   15.751133    ( 0.0000,  0.0000,  0.0000)
  51 Li    10.459592    0.006373   15.811068    ( 0.0000,  0.0000,  0.0000)
  52 Li     1.746408    2.459041   15.744795    ( 0.0000,  0.0000,  0.0000)
  53 Li     5.230623    2.449604   15.710687    ( 0.0000,  0.0000,  0.0000)
  54 Li     8.727716    2.456527   15.734399    ( 0.0000,  0.0000,  0.0000)
  55 Li    12.209077    2.457524   15.749411    ( 0.0000,  0.0000,  0.0000)
  56 Li    -0.000643    4.941659   15.614408    ( 0.0000,  0.0000,  0.0000)
  57 Li     3.491404    4.930002   15.624813    ( 0.0000,  0.0000,  0.0000)
  58 Li     6.970463    4.928778   15.618640    ( 0.0000,  0.0000,  0.0000)
  59 Li    10.478769    4.941410   15.598842    ( 0.0000,  0.0000,  0.0000)
  60 Li     1.738461    7.408461   15.631932    ( 0.0000,  0.0000,  0.0000)
  61 Li     5.232225    7.415280   15.621055    ( 0.0000,  0.0000,  0.0000)
  62 Li     8.733212    7.410285   15.621652    ( 0.0000,  0.0000,  0.0000)
  63 Li    12.208406    7.405062   15.659646    ( 0.0000,  0.0000,  0.0000)
  64 Li    -0.007773    2.499012   18.505381    ( 0.0000,  0.0000,  0.0000)
  65 Li     3.505394    2.521993   18.564254    ( 0.0000,  0.0000,  0.0000)
  66 Li     6.972969    2.523189   18.524632    ( 0.0000,  0.0000,  0.0000)
  67 Li    10.470001    2.500279   18.532933    ( 0.0000,  0.0000,  0.0000)
  68 Li     1.726662    4.986966   18.281104    ( 0.0000,  0.0000,  0.0000)
  69 Li     5.234222    4.932678   18.337931    ( 0.0000,  0.0000,  0.0000)
  70 Li     8.768936    4.977181   18.215588    ( 0.0000,  0.0000,  0.0000)
  71 Li    12.212888    4.991170   18.292785    ( 0.0000,  0.0000,  0.0000)
  72 Li     0.009869    7.393554   18.355206    ( 0.0000,  0.0000,  0.0000)
  73 Li     3.499159    7.369196   18.312202    ( 0.0000,  0.0000,  0.0000)
  74 Li     6.979133    7.384179   18.295087    ( 0.0000,  0.0000,  0.0000)
  75 Li    10.438057    7.388146   18.383377    ( 0.0000,  0.0000,  0.0000)
  76 Li     1.782082    9.870735   18.566401    ( 0.0000,  0.0000,  0.0000)
  77 Li     5.233427    9.894703   18.535689    ( 0.0000,  0.0000,  0.0000)
  78 Li     8.676434    9.874231   18.602407    ( 0.0000,  0.0000,  0.0000)
  79 Li    12.212661    9.852438   18.570965    ( 0.0000,  0.0000,  0.0000)
  80 Li     0.013196    4.799675   20.923573    ( 0.0000,  0.0000,  0.0000)
  81 Li     3.488573    4.927535   20.925223    ( 0.0000,  0.0000,  0.0000)
  82 Li     7.096109    5.032193   20.794187    ( 0.0000,  0.0000,  0.0000)
  83 Li    10.454544    4.808170   20.937757    ( 0.0000,  0.0000,  0.0000)
  84 Li     1.756895    7.659688   20.974442    ( 0.0000,  0.0000,  0.0000)
  85 Li     5.241770    7.723331   20.957850    ( 0.0000,  0.0000,  0.0000)
  86 Li     8.713487    7.691610   21.019260    ( 0.0000,  0.0000,  0.0000)
  87 Li    12.213021    7.615929   20.988571    ( 0.0000,  0.0000,  0.0000)
  88 Li     5.483240    2.610978   21.685861    ( 0.0000,  0.0000,  0.0000)

Unit cell:
           periodic     x           y           z      points  spacing
  1. axis:    yes   13.960000    0.000000    0.000000    68     0.2053
  2. axis:    yes    0.000000    9.871211    0.000000    48     0.2057
  3. axis:    no     0.000000    0.000000   28.339013   140     0.2024

  Lengths:  13.960000   9.871211  28.339013
  Angles:   90.000000  90.000000  90.000000

Effective grid spacing dv^(1/3) = 0.2045

     iter     time        total  log10-change:
                         energy   eigst   dens
iter:   1 20:53:07  -143.559632        c
iter:   2 20:53:10  -143.559543        c -3.35
iter:   3 20:53:12  -143.559739c       c -3.54
iter:   4 20:53:15  -143.559577c       c -3.50
iter:   5 20:53:18  -143.559615c       c -3.84
iter:   6 20:53:20  -143.559609c       c -4.00c

Converged after 6 iterations.

Dipole moment: (-10.142227, -14.168930, 0.962721) |e|*Ang

Energy contributions relative to reference atoms: (reference = -18048.116001)

Kinetic:       +230.743074
Potential:     -195.978977
External:        +0.000000
XC:            -176.965370
Entropy (-ST):   -1.620318
Local:           -0.548177
SIC:             +0.000000
--------------------------
Free energy:   -144.369768
Extrapolated:  -143.559609

Showing all kpts
 Kpt  Band  Eigenvalues  Occupancy
  0    42     -2.69886    1.12598
  0    43     -2.65758    0.92039
  0    44     -2.63586    0.81380
  0    45     -2.61221    0.70263

  1    42     -2.69551    1.10945
  1    43     -2.65979    0.93138
  1    44     -2.63405    0.80509
  1    45     -2.61408    0.71118


Fermi level: -2.67353

Gap: 0.036 eV
Transition (v -> c):
  (s=0, k=1, n=42, [0.25, 0.25, 0.00]) -> (s=0, k=1, n=43, [0.25, 0.25, 0.00])
No difference between direct/indirect transitions

Forces in eV/Ang:
  0 Li   -0.00275   -0.00234   -0.17223
  1 Li   -0.00003   -0.00472   -0.17254
  2 Li   -0.00004   -0.00536   -0.17222
  3 Li    0.00274   -0.00250   -0.17302
  4 Li   -0.00114   -0.00369   -0.16712
  5 Li   -0.00043   -0.00297   -0.16540
  6 Li    0.00163   -0.00356   -0.16621
  7 Li   -0.00018   -0.00839   -0.16709
  8 Li    0.00249    0.00330   -0.16539
  9 Li   -0.00101    0.00411   -0.16679
 10 Li    0.00088    0.00428   -0.16658
 11 Li   -0.00240    0.00343   -0.16550
 12 Li    0.00052    0.00285   -0.17076
 13 Li   -0.00002    0.00457   -0.17129
 14 Li   -0.00013    0.00308   -0.17084
 15 Li   -0.00017    0.00780   -0.17348
 16 Li    0.00068   -0.00112   -0.09079
 17 Li   -0.00167   -0.00006   -0.09607
 18 Li    0.00190   -0.00043   -0.09564
 19 Li   -0.00070   -0.00088   -0.09571
 20 Li   -0.00029   -0.00132   -0.09044
 21 Li   -0.00023    0.00047   -0.09463
 22 Li    0.00025   -0.00111   -0.09042
 23 Li    0.00011    0.00257   -0.08602
 24 Li    0.00092   -0.00447   -0.08649
 25 Li   -0.00118   -0.00163   -0.09168
 26 Li    0.00123   -0.00219   -0.09040
 27 Li   -0.00098   -0.00381   -0.08482
 28 Li    0.00071    0.00235   -0.08530
 29 Li   -0.00031    0.00354   -0.08545
 30 Li   -0.00044    0.00226   -0.08464
 31 Li   -0.00005    0.00585   -0.08780
 32 Li    0.00019   -0.00310    0.29707
 33 Li   -0.00256   -0.00991    0.28411
 34 Li    0.00016   -0.01214    0.28268
 35 Li    0.00081   -0.00889    0.29030
 36 Li    0.00641   -0.01249    0.22047
 37 Li   -0.00367   -0.00858    0.21462
 38 Li   -0.00702   -0.01141    0.22036
 39 Li    0.00547   -0.01152    0.20731
 40 Li   -0.00806    0.01604    0.23415
 41 Li   -0.00639    0.00869    0.22828
 42 Li    0.00334    0.00863    0.22837
 43 Li    0.00899    0.02015    0.22434
 44 Li   -0.00211    0.00493    0.30655
 45 Li    0.00059    0.01335    0.28915
 46 Li    0.00743    0.00631    0.30596
 47 Li   -0.00619   -0.00009    0.33274
 48 Li   -0.00158    0.00333   -0.01030
 49 Li    0.00841    0.00005    0.01911
 50 Li   -0.00669    0.00345    0.01827
 51 Li   -0.00019    0.00181   -0.00616
 52 Li    0.01016    0.00111    0.01742
 53 Li    0.00021    0.00289    0.03550
 54 Li   -0.00922    0.00095    0.01235
 55 Li    0.00020    0.00075    0.00135
 56 Li   -0.00299   -0.00129   -0.00738
 57 Li    0.00470    0.00093    0.01154
 58 Li   -0.00575    0.00124    0.00916
 59 Li    0.00715   -0.00123   -0.01041
 60 Li   -0.00222    0.00230   -0.00521
 61 Li   -0.00047    0.00239   -0.00045
 62 Li    0.00246    0.00199   -0.00625
 63 Li   -0.00137    0.00087    0.00352
 64 Li   -0.00278    0.00557    0.00312
 65 Li   -0.00569   -0.00022    0.07381
 66 Li    0.01264    0.01256    0.06339
 67 Li    0.00836    0.00096    0.00013
 68 Li   -0.00349    0.00119   -0.01416
 69 Li    0.00124   -0.00682    0.02671
 70 Li    0.00680    0.00202   -0.01890
 71 Li    0.00331   -0.00301    0.00219
 72 Li   -0.00424   -0.00752   -0.00385
 73 Li    0.00538    0.01740    0.00364
 74 Li   -0.00221    0.01965    0.00014
 75 Li    0.00321   -0.00632    0.00090
 76 Li   -0.01328    0.00424   -0.01590
 77 Li    0.00339    0.02256    0.05422
 78 Li    0.01207    0.01557   -0.01523
 79 Li   -0.00197   -0.00275   -0.00088
 80 Li   -0.00480   -0.00942    0.00721
 81 Li    0.01682    0.03049    0.00839
 82 Li   -0.04476    0.01490    0.05206
 83 Li    0.01531   -0.01079   -0.00119
 84 Li   -0.02691    0.03054   -0.00516
 85 Li   -0.00231    0.05229    0.00974
 86 Li    0.05106    0.07201   -0.01211
 87 Li    0.00440    0.00195    0.00091
 88 Li   -0.03306   -0.28834   -0.33159

System changes: positions 

Initializing position-dependent things.

Density initialized from wave functions
       .---------------------------------.  
      /|                                 |  
     / |                                 |  
    /  |                                 |  
   /   |                                 |  
  /    |                                 |  
 *     |                                 |  
 |     |                                 |  
 |     |                                 |  
 |     |                                 |  
 |     |  Li      Li       Li      Li    |  
 |     |                                 |  
 |  Li |   LLi       Li      Li      Li  |  
 |     |        Li                       |  
 |    Li      Li      Li       Li        |  
 |     |Li       Li      Li       Li     |  
 |     |                                 |  
 |     |  LLi     LiLi     LLi     LiLi  |  
 |     |      Li      Li                 |  
 |     |    Li       Li       Li      Li |  
 |     Li      Li       Li      Li       |  
 Li   Li      Li       Li Li   Li        |  
 |     |LLi      LLi     Li       Li     |  
 |     |                                 |  
 |Li   |  LLi     LLi      LLi     Li    |  
 |  LLi|     LLi     LLi      LLi        |  
 |     |                                 |  
 |    LLi     LLi      LLi     LLi       |  
 Li    |LLi      LLi     LiLi     Li     |  
 |     |                                 |  
 |Li   |   Li      Li       Li           |  
 |   Li|      Li      Li       Li        |  
 |     |                                 |  
 |     |                                 |  
 |     |                                 |  
 |     .---------------------------------.  
 |    /                                 /   
 |   /                                 /    
 |  /                                 /     
 | /                                 /      
 |/                                 /       
 *---------------------------------*        

Atomic positions and initial magnetic moments

Positions:
   0 Li     0.000000    2.467803    8.000000    ( 0.0000,  0.0000,  0.0000)
   1 Li     3.490000    2.467803    8.000000    ( 0.0000,  0.0000,  0.0000)
   2 Li     6.980000    2.467803    8.000000    ( 0.0000,  0.0000,  0.0000)
   3 Li    10.470000    2.467803    8.000000    ( 0.0000,  0.0000,  0.0000)
   4 Li     1.745000    4.935605    8.000000    ( 0.0000,  0.0000,  0.0000)
   5 Li     5.235000    4.935605    8.000000    ( 0.0000,  0.0000,  0.0000)
   6 Li     8.725000    4.935605    8.000000    ( 0.0000,  0.0000,  0.0000)
   7 Li    12.215000    4.935605    8.000000    ( 0.0000,  0.0000,  0.0000)
   8 Li     0.000000    7.403408    8.000000    ( 0.0000,  0.0000,  0.0000)
   9 Li     3.490000    7.403408    8.000000    ( 0.0000,  0.0000,  0.0000)
  10 Li     6.980000    7.403408    8.000000    ( 0.0000,  0.0000,  0.0000)
  11 Li    10.470000    7.403408    8.000000    ( 0.0000,  0.0000,  0.0000)
  12 Li     1.745000    9.871211    8.000000    ( 0.0000,  0.0000,  0.0000)
  13 Li     5.235000    9.871211    8.000000    ( 0.0000,  0.0000,  0.0000)
  14 Li     8.725000    9.871211    8.000000    ( 0.0000,  0.0000,  0.0000)
  15 Li    12.215000    9.871211    8.000000    ( 0.0000,  0.0000,  0.0000)
  16 Li     0.000000    0.000000   10.467803    ( 0.0000,  0.0000,  0.0000)
  17 Li     3.490000    0.000000   10.467803    ( 0.0000,  0.0000,  0.0000)
  18 Li     6.980000    0.000000   10.467803    ( 0.0000,  0.0000,  0.0000)
  19 Li    10.470000    0.000000   10.467803    ( 0.0000,  0.0000,  0.0000)
  20 Li     1.745000    2.467803   10.467803    ( 0.0000,  0.0000,  0.0000)
  21 Li     5.235000    2.467803   10.467803    ( 0.0000,  0.0000,  0.0000)
  22 Li     8.725000    2.467803   10.467803    ( 0.0000,  0.0000,  0.0000)
  23 Li    12.215000    2.467803   10.467803    ( 0.0000,  0.0000,  0.0000)
  24 Li     0.000000    4.935605   10.467803    ( 0.0000,  0.0000,  0.0000)
  25 Li     3.490000    4.935605   10.467803    ( 0.0000,  0.0000,  0.0000)
  26 Li     6.980000    4.935605   10.467803    ( 0.0000,  0.0000,  0.0000)
  27 Li    10.470000    4.935605   10.467803    ( 0.0000,  0.0000,  0.0000)
  28 Li     1.745000    7.403408   10.467803    ( 0.0000,  0.0000,  0.0000)
  29 Li     5.235000    7.403408   10.467803    ( 0.0000,  0.0000,  0.0000)
  30 Li     8.725000    7.403408   10.467803    ( 0.0000,  0.0000,  0.0000)
  31 Li    12.215000    7.403408   10.467803    ( 0.0000,  0.0000,  0.0000)
  32 Li     0.000000    2.467803   12.935605    ( 0.0000,  0.0000,  0.0000)
  33 Li     3.490000    2.467803   12.935605    ( 0.0000,  0.0000,  0.0000)
  34 Li     6.980000    2.467803   12.935605    ( 0.0000,  0.0000,  0.0000)
  35 Li    10.470000    2.467803   12.935605    ( 0.0000,  0.0000,  0.0000)
  36 Li     1.745000    4.935605   12.935605    ( 0.0000,  0.0000,  0.0000)
  37 Li     5.235000    4.935605   12.935605    ( 0.0000,  0.0000,  0.0000)
  38 Li     8.725000    4.935605   12.935605    ( 0.0000,  0.0000,  0.0000)
  39 Li    12.215000    4.935605   12.935605    ( 0.0000,  0.0000,  0.0000)
  40 Li     0.000000    7.403408   12.935605    ( 0.0000,  0.0000,  0.0000)
  41 Li     3.490000    7.403408   12.935605    ( 0.0000,  0.0000,  0.0000)
  42 Li     6.980000    7.403408   12.935605    ( 0.0000,  0.0000,  0.0000)
  43 Li    10.470000    7.403408   12.935605    ( 0.0000,  0.0000,  0.0000)
  44 Li     1.745000    9.871211   12.935605    ( 0.0000,  0.0000,  0.0000)
  45 Li     5.235000    9.871211   12.935605    ( 0.0000,  0.0000,  0.0000)
  46 Li     8.725000    9.871211   12.935605    ( 0.0000,  0.0000,  0.0000)
  47 Li    12.215000    9.871211   12.935605    ( 0.0000,  0.0000,  0.0000)
  48 Li     0.002742    0.009143   15.791905    ( 0.0000,  0.0000,  0.0000)
  49 Li     3.483903    0.006778   15.754741    ( 0.0000,  0.0000,  0.0000)
  50 Li     6.986420    0.007745   15.753786    ( 0.0000,  0.0000,  0.0000)
  51 Li    10.459485    0.006331   15.810596    ( 0.0000,  0.0000,  0.0000)
  52 Li     1.747303    2.459102   15.746280    ( 0.0000,  0.0000,  0.0000)
  53 Li     5.230556    2.449746   15.713712    ( 0.0000,  0.0000,  0.0000)
  54 Li     8.726946    2.456463   15.735385    ( 0.0000,  0.0000,  0.0000)
  55 Li    12.209013    2.457466   15.749475    ( 0.0000,  0.0000,  0.0000)
  56 Li    -0.000911    4.941465   15.614170    ( 0.0000,  0.0000,  0.0000)
  57 Li     3.491380    4.929936   15.625741    ( 0.0000,  0.0000,  0.0000)
  58 Li     6.970203    4.928732   15.619538    ( 0.0000,  0.0000,  0.0000)
  59 Li    10.479558    4.941227   15.597951    ( 0.0000,  0.0000,  0.0000)
  60 Li     1.738143    7.408632   15.631634    ( 0.0000,  0.0000,  0.0000)
  61 Li     5.232118    7.415602   15.620636    ( 0.0000,  0.0000,  0.0000)
  62 Li     8.733610    7.410448   15.621081    ( 0.0000,  0.0000,  0.0000)
  63 Li    12.208181    7.405169   15.660405    ( 0.0000,  0.0000,  0.0000)
  64 Li    -0.007701    2.499705   18.505402    ( 0.0000,  0.0000,  0.0000)
  65 Li     3.504074    2.521672   18.569806    ( 0.0000,  0.0000,  0.0000)
  66 Li     6.974118    2.524042   18.530289    ( 0.0000,  0.0000,  0.0000)
  67 Li    10.470203    2.500611   18.533171    ( 0.0000,  0.0000,  0.0000)
  68 Li     1.726345    4.986527   18.279625    ( 0.0000,  0.0000,  0.0000)
  69 Li     5.233914    4.932519   18.338205    ( 0.0000,  0.0000,  0.0000)
  70 Li     8.771081    4.976674   18.210664    ( 0.0000,  0.0000,  0.0000)
  71 Li    12.213034    4.990518   18.293597    ( 0.0000,  0.0000,  0.0000)
  72 Li     0.009361    7.392237   18.355457    ( 0.0000,  0.0000,  0.0000)
  73 Li     3.499844    7.371446   18.312259    ( 0.0000,  0.0000,  0.0000)
  74 Li     6.978768    7.387474   18.293833    ( 0.0000,  0.0000,  0.0000)
  75 Li    10.437772    7.386614   18.384723    ( 0.0000,  0.0000,  0.0000)
  76 Li     1.780227    9.870472   18.565377    ( 0.0000,  0.0000,  0.0000)
  77 Li     5.233487    9.894150   18.542155    ( 0.0000,  0.0000,  0.0000)
  78 Li     8.678205    9.874626   18.601897    ( 0.0000,  0.0000,  0.0000)
  79 Li    12.212454    9.852045   18.569986    ( 0.0000,  0.0000,  0.0000)
  80 Li     0.012131    4.798038   20.924752    ( 0.0000,  0.0000,  0.0000)
  81 Li     3.489896    4.927411   20.924153    ( 0.0000,  0.0000,  0.0000)
  82 Li     7.094074    5.031291   20.791895    ( 0.0000,  0.0000,  0.0000)
  83 Li    10.456788    4.806282   20.938825    ( 0.0000,  0.0000,  0.0000)
  84 Li     1.754641    7.661192   20.974433    ( 0.0000,  0.0000,  0.0000)
  85 Li     5.241747    7.721612   20.960997    ( 0.0000,  0.0000,  0.0000)
  86 Li     8.718015    7.697411   21.019820    ( 0.0000,  0.0000,  0.0000)
  87 Li    12.213299    7.616458   20.988986    ( 0.0000,  0.0000,  0.0000)
  88 Li     5.485094    2.613996   21.685059    ( 0.0000,  0.0000,  0.0000)

Unit cell:
           periodic     x           y           z      points  spacing
  1. axis:    yes   13.960000    0.000000    0.000000    68     0.2053
  2. axis:    yes    0.000000    9.871211    0.000000    48     0.2057
  3. axis:    no     0.000000    0.000000   28.339013   140     0.2024

  Lengths:  13.960000   9.871211  28.339013
  Angles:   90.000000  90.000000  90.000000

Effective grid spacing dv^(1/3) = 0.2045

     iter     time        total  log10-change:
                         energy   eigst   dens
iter:   1 20:54:39  -143.561511        c
iter:   2 20:54:41  -143.561311        c -3.29
iter:   3 20:54:44  -143.561584c       c -3.39
iter:   4 20:54:47  -143.561414c       c -3.44
iter:   5 20:54:49  -143.561436c       c -3.83
iter:   6 20:54:52  -143.561431c       c -3.96
iter:   7 20:54:55  -143.561432c       c -4.06c

Converged after 7 iterations.

Dipole moment: (-10.112180, -14.154476, 0.964062) |e|*Ang

Energy contributions relative to reference atoms: (reference = -18048.116001)

Kinetic:       +230.676634
Potential:     -195.928470
External:        +0.000000
XC:            -176.951425
Entropy (-ST):   -1.620249
Local:           -0.548046
SIC:             +0.000000
--------------------------
Free energy:   -144.371556
Extrapolated:  -143.561432

Showing all kpts
 Kpt  Band  Eigenvalues  Occupancy
  0    42     -2.69876    1.12723
  0    43     -2.65710    0.91979
  0    44     -2.63536    0.81311
  0    45     -2.61184    0.70257

  1    42     -2.69531    1.11022
  1    43     -2.65932    0.93082
  1    44     -2.63359    0.80459
  1    45     -2.61375    0.71131


Fermi level: -2.67318

Gap: 0.036 eV
Transition (v -> c):
  (s=0, k=1, n=42, [0.25, 0.25, 0.00]) -> (s=0, k=1, n=43, [0.25, 0.25, 0.00])
No difference between direct/indirect transitions
