
  ___ ___ ___ _ _ _  
 |   |   |_  | | | | 
 | | | | | . | | | | 
 |__ |  _|___|_____|  25.7.0
 |___|_|             

User:   tew@Mathuss-MacBook-Air-357.local
Date:   Mon Dec  1 20:16:38 2025
Arch:   arm64
Pid:    60975
CWD:    /Users/tew/Documents/Project/GitHub/chem-com/step_v4
Python: 3.13.5
gpaw:   /Users/tew/Documents/Project/GitHub/chem-com/.venv/lib/python3.13/site-packages/gpaw
_gpaw:  /Users/tew/Documents/Project/GitHub/chem-com/.venv/lib/python3.13/site-packages/
        _gpaw.cpython-313-darwin.so
ase:    /Users/tew/Documents/Project/GitHub/chem-com/.venv/lib/python3.13/site-packages/ase (version 3.26.0)
numpy:  /Users/tew/Documents/Project/GitHub/chem-com/.venv/lib/python3.13/site-packages/numpy (version 2.2.6)
scipy:  /Users/tew/Documents/Project/GitHub/chem-com/.venv/lib/python3.13/site-packages/scipy (version 1.16.3)
libxc:  2.x.y
units:  Angstrom and eV
cores: 1
OpenMP: False
OMP_NUM_THREADS: 1

Input parameters:
  kpts: [2 2 1]
  mode: {interpolation: 3,
         name: lcao}
  occupations: {name: fermi-dirac,
                width: 0.1}
  xc: PBE

System changes: positions, numbers, cell, pbc, initial_charges, initial_magmoms 

Initialize ...

species:
  Li:
    name: Lithium
    id: 830b4218f175192f93f959cfc0aad614
    Z: 3.0
    valence: 1
    core: 2
    charge: 0.0
    file: /Users/tew/Documents/Project/GitHub/chem-com/.venv/lib/python3.13/site-packages/gpaw_data/setups/Li.PBE.gz
    compensation charges: {type: gauss,
                           rc: 0.33,
                           lmax: 2}
    cutoffs: {filter: 1.91,
              core: 2.55}
    projectors:
      #              energy  rcut
      - 2s(1.00)    -2.874   1.058
      - 2p(0.00)    -1.090   1.058
      -  s          24.337   1.058
  
    # Using partial waves for Li as LCAO basis

Reference energy: -18048.116001  # eV

Spin-paired calculation

Convergence criteria:
 Maximum [total energy] change in last 3 cyles: 0.0005 eV / valence electron
 Maximum integral of absolute [dens]ity change: 0.0001 electrons / valence electron
 Maximum integral of absolute [eigenst]ate change: 4e-08 eV^2 / valence electron
 Maximum number of scf [iter]ations: 333
 (Square brackets indicate name in SCF output, whereas a 'c' in
 the SCF output indicates the quantity has converged.)

Symmetries present (total): 1

  ( 1  0  0)
  ( 0  1  0)
  ( 0  0  1)

4 k-points: 2 x 2 x 1 Monkhorst-Pack grid
2 k-points in the irreducible part of the Brillouin zone
       k-points in crystal coordinates                weights
   0:     0.25000000   -0.25000000    0.00000000          2/4
   1:     0.25000000    0.25000000    0.00000000          2/4

Wave functions: LCAO
  Diagonalizer: Serial LAPACK
  Atomic Correction: dense with blas
  Data-type: complex
 

Occupation numbers: Fermi-Dirac:
  width: 0.1000  # eV
 

Eigensolver
   LCAO using direct dense diagonalizer 

Densities:
  Coarse grid: 68*48*140 grid
  Fine grid: 136*96*280 grid
  Total Charge: 0.000000 

Density mixing:
  Method: separate
  Backend: pulay
  Linear mixing parameter: 0.05
  old densities: 5
  Damping of long wavelength oscillations: 50 

Hamiltonian:
  XC and Coulomb potentials evaluated on a 136*96*280 grid
  Using the PBE Exchange-Correlation functional
  Interpolation: tri-quintic (5. degree polynomial)
  Poisson solver: FastPoissonSolver using
    Stencil: 6*3+1=19 point O(h^6) finite-difference Laplacian
    FFT axes: [np.int64(0), np.int64(1)]
    FST axes: [np.int64(2)]
 

XC parameters: PBE with 2 nearest neighbor stencil

Memory estimate:
  Process memory now: 1966.86 MiB
  Calculator: 544.81 MiB
    Density: 357.68 MiB
      Arrays: 90.30 MiB
      Localized functions: 232.77 MiB
      Mixer: 34.61 MiB
    Hamiltonian: 77.45 MiB
      Arrays: 59.04 MiB
      XC: 0.00 MiB
      Poisson: 0.00 MiB
      vbar: 18.41 MiB
    Wavefunctions: 109.67 MiB
      C [qnM]: 0.63 MiB
      S, T [2 x qmm]: 7.74 MiB
      P [aqMi]: 0.30 MiB
      BasisFunctions: 101.00 MiB
      Eigensolver: 0.00 MiB

Total number of cores used: 1

Number of atoms: 89
Number of atomic orbitals: 356
Number of bands in calculation: 58
Number of valence electrons: 89
Bands to converge: occupied

... initialized

Initializing position-dependent things.

Density initialized from atomic densities
       .---------------------------------.  
      /|                                 |  
     / |                                 |  
    /  |                                 |  
   /   |                                 |  
  /    |                                 |  
 *     |                                 |  
 |     |                                 |  
 |     |                                 |  
 |     |                                 |  
 |     |  Li      Li       Li      Li    |  
 |     |         Li                      |  
 |  Li |   LiLi     LLi     LLi      Li  |  
 |     |                                 |  
 |    Li      Li      Li       Li        |  
 |     |Li       Li      Li       Li     |  
 |     |                                 |  
 |     |  LLi     LiLi     LLi     LLi   |  
 |     |                                 |  
 |  Li |    Li       Li       Li         |  
 |     Li      Li       Li      Li       |  
 Li   Li      Li       Li Li   Li        |  
 |     |LLi      LLi     Li       Li     |  
 |     |                                 |  
 |Li   |  LLi     LLi      LLi     Li    |  
 |  LLi|     LLi     LLi      LLi        |  
 |     |                                 |  
 |    LLi     LLi      LLi     LLi       |  
 Li    |LLi      LLi     LiLi     Li     |  
 |     |                                 |  
 |Li   |   Li      Li       Li           |  
 |   Li|      Li      Li       Li        |  
 |     |                                 |  
 |     |                                 |  
 |     |                                 |  
 |     .---------------------------------.  
 |    /                                 /   
 |   /                                 /    
 |  /                                 /     
 | /                                 /      
 |/                                 /       
 *---------------------------------*        

Atomic positions and initial magnetic moments

Positions:
   0 Li     0.000000    2.467803    8.000000    ( 0.0000,  0.0000,  0.0000)
   1 Li     3.490000    2.467803    8.000000    ( 0.0000,  0.0000,  0.0000)
   2 Li     6.980000    2.467803    8.000000    ( 0.0000,  0.0000,  0.0000)
   3 Li    10.470000    2.467803    8.000000    ( 0.0000,  0.0000,  0.0000)
   4 Li     1.745000    4.935605    8.000000    ( 0.0000,  0.0000,  0.0000)
   5 Li     5.235000    4.935605    8.000000    ( 0.0000,  0.0000,  0.0000)
   6 Li     8.725000    4.935605    8.000000    ( 0.0000,  0.0000,  0.0000)
   7 Li    12.215000    4.935605    8.000000    ( 0.0000,  0.0000,  0.0000)
   8 Li     0.000000    7.403408    8.000000    ( 0.0000,  0.0000,  0.0000)
   9 Li     3.490000    7.403408    8.000000    ( 0.0000,  0.0000,  0.0000)
  10 Li     6.980000    7.403408    8.000000    ( 0.0000,  0.0000,  0.0000)
  11 Li    10.470000    7.403408    8.000000    ( 0.0000,  0.0000,  0.0000)
  12 Li     1.745000    9.871211    8.000000    ( 0.0000,  0.0000,  0.0000)
  13 Li     5.235000    9.871211    8.000000    ( 0.0000,  0.0000,  0.0000)
  14 Li     8.725000    9.871211    8.000000    ( 0.0000,  0.0000,  0.0000)
  15 Li    12.215000    9.871211    8.000000    ( 0.0000,  0.0000,  0.0000)
  16 Li     0.000000    0.000000   10.467803    ( 0.0000,  0.0000,  0.0000)
  17 Li     3.490000    0.000000   10.467803    ( 0.0000,  0.0000,  0.0000)
  18 Li     6.980000    0.000000   10.467803    ( 0.0000,  0.0000,  0.0000)
  19 Li    10.470000    0.000000   10.467803    ( 0.0000,  0.0000,  0.0000)
  20 Li     1.745000    2.467803   10.467803    ( 0.0000,  0.0000,  0.0000)
  21 Li     5.235000    2.467803   10.467803    ( 0.0000,  0.0000,  0.0000)
  22 Li     8.725000    2.467803   10.467803    ( 0.0000,  0.0000,  0.0000)
  23 Li    12.215000    2.467803   10.467803    ( 0.0000,  0.0000,  0.0000)
  24 Li     0.000000    4.935605   10.467803    ( 0.0000,  0.0000,  0.0000)
  25 Li     3.490000    4.935605   10.467803    ( 0.0000,  0.0000,  0.0000)
  26 Li     6.980000    4.935605   10.467803    ( 0.0000,  0.0000,  0.0000)
  27 Li    10.470000    4.935605   10.467803    ( 0.0000,  0.0000,  0.0000)
  28 Li     1.745000    7.403408   10.467803    ( 0.0000,  0.0000,  0.0000)
  29 Li     5.235000    7.403408   10.467803    ( 0.0000,  0.0000,  0.0000)
  30 Li     8.725000    7.403408   10.467803    ( 0.0000,  0.0000,  0.0000)
  31 Li    12.215000    7.403408   10.467803    ( 0.0000,  0.0000,  0.0000)
  32 Li     0.000000    2.467803   12.935605    ( 0.0000,  0.0000,  0.0000)
  33 Li     3.490000    2.467803   12.935605    ( 0.0000,  0.0000,  0.0000)
  34 Li     6.980000    2.467803   12.935605    ( 0.0000,  0.0000,  0.0000)
  35 Li    10.470000    2.467803   12.935605    ( 0.0000,  0.0000,  0.0000)
  36 Li     1.745000    4.935605   12.935605    ( 0.0000,  0.0000,  0.0000)
  37 Li     5.235000    4.935605   12.935605    ( 0.0000,  0.0000,  0.0000)
  38 Li     8.725000    4.935605   12.935605    ( 0.0000,  0.0000,  0.0000)
  39 Li    12.215000    4.935605   12.935605    ( 0.0000,  0.0000,  0.0000)
  40 Li     0.000000    7.403408   12.935605    ( 0.0000,  0.0000,  0.0000)
  41 Li     3.490000    7.403408   12.935605    ( 0.0000,  0.0000,  0.0000)
  42 Li     6.980000    7.403408   12.935605    ( 0.0000,  0.0000,  0.0000)
  43 Li    10.470000    7.403408   12.935605    ( 0.0000,  0.0000,  0.0000)
  44 Li     1.745000    9.871211   12.935605    ( 0.0000,  0.0000,  0.0000)
  45 Li     5.235000    9.871211   12.935605    ( 0.0000,  0.0000,  0.0000)
  46 Li     8.725000    9.871211   12.935605    ( 0.0000,  0.0000,  0.0000)
  47 Li    12.215000    9.871211   12.935605    ( 0.0000,  0.0000,  0.0000)
  48 Li     0.007369    0.005629   15.792962    ( 0.0000,  0.0000,  0.0000)
  49 Li     3.483421    0.003487   15.754076    ( 0.0000,  0.0000,  0.0000)
  50 Li     6.985300    0.003903   15.753079    ( 0.0000,  0.0000,  0.0000)
  51 Li    10.453119    0.003340   15.811150    ( 0.0000,  0.0000,  0.0000)
  52 Li     1.736751    2.457341   15.728132    ( 0.0000,  0.0000,  0.0000)
  53 Li     5.229537    2.449433   15.677459    ( 0.0000,  0.0000,  0.0000)
  54 Li     8.737317    2.451532   15.722103    ( 0.0000,  0.0000,  0.0000)
  55 Li    12.208814    2.452075   15.748359    ( 0.0000,  0.0000,  0.0000)
  56 Li     0.004851    4.937347   15.627230    ( 0.0000,  0.0000,  0.0000)
  57 Li     3.474927    4.931905   15.608361    ( 0.0000,  0.0000,  0.0000)
  58 Li     6.984219    4.930892   15.599652    ( 0.0000,  0.0000,  0.0000)
  59 Li    10.473122    4.939993   15.602666    ( 0.0000,  0.0000,  0.0000)
  60 Li     1.743114    7.402213   15.645542    ( 0.0000,  0.0000,  0.0000)
  61 Li     5.229676    7.407530   15.610895    ( 0.0000,  0.0000,  0.0000)
  62 Li     8.730051    7.403824   15.631208    ( 0.0000,  0.0000,  0.0000)
  63 Li    12.207347    7.400005   15.668977    ( 0.0000,  0.0000,  0.0000)
  64 Li    -0.005915    2.488498   18.500059    ( 0.0000,  0.0000,  0.0000)
  65 Li     3.486816    2.520700   18.450626    ( 0.0000,  0.0000,  0.0000)
  66 Li     6.974797    2.509365   18.416433    ( 0.0000,  0.0000,  0.0000)
  67 Li    10.461729    2.495244   18.537564    ( 0.0000,  0.0000,  0.0000)
  68 Li     1.747862    4.977673   18.314600    ( 0.0000,  0.0000,  0.0000)
  69 Li     5.233186    4.934291   18.269073    ( 0.0000,  0.0000,  0.0000)
  70 Li     8.744528    4.968340   18.236153    ( 0.0000,  0.0000,  0.0000)
  71 Li    12.208888    4.985179   18.292855    ( 0.0000,  0.0000,  0.0000)
  72 Li     0.013313    7.383117   18.365010    ( 0.0000,  0.0000,  0.0000)
  73 Li     3.501976    7.350974   18.322346    ( 0.0000,  0.0000,  0.0000)
  74 Li     6.980474    7.359102   18.304711    ( 0.0000,  0.0000,  0.0000)
  75 Li    10.429809    7.374560   18.397782    ( 0.0000,  0.0000,  0.0000)
  76 Li     1.797438    9.863942   18.596829    ( 0.0000,  0.0000,  0.0000)
  77 Li     5.225792    9.841836   18.515590    ( 0.0000,  0.0000,  0.0000)
  78 Li     8.666642    9.859383   18.627693    ( 0.0000,  0.0000,  0.0000)
  79 Li    12.208200    9.843472   18.565601    ( 0.0000,  0.0000,  0.0000)
  80 Li     0.026210    4.800550   20.918156    ( 0.0000,  0.0000,  0.0000)
  81 Li     3.607069    4.751773   20.994589    ( 0.0000,  0.0000,  0.0000)
  82 Li     6.983979    4.736469   20.865875    ( 0.0000,  0.0000,  0.0000)
  83 Li    10.421585    4.828057   20.948356    ( 0.0000,  0.0000,  0.0000)
  84 Li     1.810522    7.611570   20.991061    ( 0.0000,  0.0000,  0.0000)
  85 Li     5.249442    7.649215   20.948372    ( 0.0000,  0.0000,  0.0000)
  86 Li     8.615223    7.596446   21.081807    ( 0.0000,  0.0000,  0.0000)
  87 Li    12.214137    7.620279   20.994148    ( 0.0000,  0.0000,  0.0000)
  88 Li     5.716782    3.715639   22.245159    ( 0.0000,  0.0000,  0.0000)

Unit cell:
           periodic     x           y           z      points  spacing
  1. axis:    yes   13.960000    0.000000    0.000000    68     0.2053
  2. axis:    yes    0.000000    9.871211    0.000000    48     0.2057
  3. axis:    no     0.000000    0.000000   28.339013   140     0.2024

  Lengths:  13.960000   9.871211  28.339013
  Angles:   90.000000  90.000000  90.000000

Effective grid spacing dv^(1/3) = 0.2045

     iter     time        total  log10-change:
                         energy   eigst   dens
iter:   1 20:18:18  -150.676710        c
iter:   2 20:18:21  -146.870092        c -0.66
iter:   3 20:18:24  -145.564960        c -0.79
iter:   4 20:18:27  -144.641186        c -0.88
iter:   5 20:18:30  -143.375312        c -1.00
iter:   6 20:18:33  -143.218299        c -1.21
iter:   7 20:18:35  -142.731355        c -1.25
iter:   8 20:18:38  -142.606197        c -1.49
iter:   9 20:18:41  -142.588865        c -1.65
iter:  10 20:18:44  -142.536036        c -1.69
iter:  11 20:18:47  -142.511199        c -1.85
iter:  12 20:18:50  -142.497533c       c -1.98
iter:  13 20:18:52  -142.495960c       c -2.21
iter:  14 20:18:55  -142.494753c       c -2.33
iter:  15 20:18:58  -142.494396c       c -2.49
iter:  16 20:19:01  -142.493323c       c -2.66
iter:  17 20:19:04  -142.493918c       c -2.70
iter:  18 20:19:07  -142.493606c       c -2.80
iter:  19 20:19:09  -142.493570c       c -2.92
iter:  20 20:19:12  -142.493630c       c -3.07
iter:  21 20:19:15  -142.493592c       c -3.25
iter:  22 20:19:18  -142.493789c       c -3.39
iter:  23 20:19:21  -142.493624c       c -3.39
iter:  24 20:19:23  -142.493668c       c -3.53
iter:  25 20:19:26  -142.493645c       c -3.60
iter:  26 20:19:29  -142.493607c       c -3.68
iter:  27 20:19:32  -142.493612c       c -3.82
iter:  28 20:19:35  -142.493585c       c -3.91
iter:  29 20:19:37  -142.493628c       c -4.00c

Converged after 29 iterations.

Dipole moment: (-10.539476, -12.816040, 0.848481) |e|*Ang

Energy contributions relative to reference atoms: (reference = -18048.116001)

Kinetic:       +234.320135
Potential:     -197.994913
External:        +0.000000
XC:            -177.457632
Entropy (-ST):   -1.627055
Local:           -0.547691
SIC:             +0.000000
--------------------------
Free energy:   -143.307156
Extrapolated:  -142.493628

Showing all kpts
 Kpt  Band  Eigenvalues  Occupancy
  0    42     -2.75215    1.23898
  0    43     -2.68181    0.89242
  0    44     -2.66198    0.79576
  0    45     -2.64061    0.69594

  1    42     -2.74744    1.21665
  1    43     -2.69124    0.93920
  1    44     -2.65785    0.77607
  1    45     -2.64073    0.69646


Fermi level: -2.70341

Gap: 0.056 eV
Transition (v -> c):
  (s=0, k=1, n=42, [0.25, 0.25, 0.00]) -> (s=0, k=1, n=43, [0.25, 0.25, 0.00])
No difference between direct/indirect transitions

Forces in eV/Ang:
  0 Li    0.00026   -0.00132   -0.17095
  1 Li    0.00011   -0.00442   -0.17293
  2 Li    0.00005   -0.00544   -0.17321
  3 Li   -0.00064   -0.00199   -0.17210
  4 Li    0.00029   -0.00499   -0.16473
  5 Li   -0.00053   -0.00309   -0.16550
  6 Li    0.00094   -0.00421   -0.16483
  7 Li   -0.00067   -0.00789   -0.16557
  8 Li    0.00361    0.00187   -0.16285
  9 Li    0.00048    0.00427   -0.16629
 10 Li    0.00003    0.00480   -0.16666
 11 Li   -0.00416    0.00272   -0.16294
 12 Li    0.00308    0.00417   -0.16965
 13 Li    0.00028    0.00403   -0.17193
 14 Li   -0.00197    0.00392   -0.17057
 15 Li   -0.00113    0.00742   -0.16957
 16 Li    0.00034   -0.00164   -0.09166
 17 Li   -0.00077   -0.00038   -0.09555
 18 Li    0.00121   -0.00059   -0.09365
 19 Li   -0.00063   -0.00092   -0.09863
 20 Li   -0.00022   -0.00043   -0.09032
 21 Li   -0.00023    0.00099   -0.09043
 22 Li   -0.00006   -0.00058   -0.09099
 23 Li    0.00022    0.00223   -0.08755
 24 Li   -0.00101   -0.00435   -0.09000
 25 Li   -0.00062   -0.00302   -0.08532
 26 Li    0.00096   -0.00346   -0.08343
 27 Li    0.00086   -0.00374   -0.08610
 28 Li    0.00088    0.00361   -0.08680
 29 Li    0.00008    0.00365   -0.08308
 30 Li   -0.00109    0.00365   -0.08403
 31 Li   -0.00004    0.00480   -0.08965
 32 Li   -0.00187   -0.00220    0.29153
 33 Li   -0.01140   -0.01172    0.26702
 34 Li    0.00936   -0.01545    0.26929
 35 Li    0.00233   -0.00952    0.28308
 36 Li   -0.00388   -0.01069    0.20539
 37 Li   -0.00496   -0.00940    0.20174
 38 Li    0.00247   -0.01102    0.20369
 39 Li    0.00727   -0.01059    0.22001
 40 Li   -0.00445    0.01187    0.24459
 41 Li   -0.01414    0.01480    0.22117
 42 Li    0.00855    0.01488    0.22362
 43 Li    0.00773    0.01932    0.22989
 44 Li   -0.00051    0.00254    0.30434
 45 Li    0.00033    0.00861    0.27666
 46 Li    0.00711    0.00502    0.30020
 47 Li   -0.00788   -0.00038    0.33726
 48 Li   -0.00201   -0.00372    0.00155
 49 Li    0.00247    0.00555    0.02118
 50 Li   -0.00175    0.00068    0.02066
 51 Li    0.00292   -0.00443    0.00661
 52 Li    0.00565   -0.00568    0.00742
 53 Li   -0.00194   -0.00628    0.02010
 54 Li   -0.00238   -0.00107   -0.00157
 55 Li   -0.00563    0.00423    0.00073
 56 Li   -0.00526    0.00407   -0.00295
 57 Li    0.01236   -0.00032    0.00661
 58 Li   -0.01387   -0.00322    0.00699
 59 Li    0.01062   -0.00187    0.00196
 60 Li   -0.00863    0.00585   -0.00952
 61 Li    0.00255    0.00245    0.00526
 62 Li    0.00776    0.01037   -0.01186
 63 Li   -0.00206    0.00667   -0.00173
 64 Li   -0.00267    0.01081   -0.00460
 65 Li    0.03959   -0.00373    0.10392
 66 Li   -0.03036   -0.00338    0.13134
 67 Li    0.00118    0.01054    0.00045
 68 Li   -0.00552    0.00794   -0.00929
 69 Li    0.00349    0.02105    0.04710
 70 Li   -0.00052   -0.00311    0.01222
 71 Li    0.00400   -0.00384    0.01390
 72 Li    0.00135    0.00419    0.00798
 73 Li   -0.01449    0.01633   -0.02508
 74 Li    0.01003    0.01495   -0.01665
 75 Li    0.00136    0.01462    0.01426
 76 Li   -0.03962   -0.02301   -0.02111
 77 Li    0.00442    0.02277    0.02824
 78 Li    0.02885   -0.02195   -0.00249
 79 Li    0.00609    0.00492   -0.01985
 80 Li   -0.01214   -0.01505    0.01357
 81 Li   -0.45758    0.25418   -0.29330
 82 Li    0.96216    0.89622   -1.10865
 83 Li   -0.01304   -0.04356    0.01948
 84 Li   -0.03689   -0.01827   -0.01300
 85 Li    0.01078   -0.17550    0.10600
 86 Li    0.04807   -0.02727   -0.04053
 87 Li   -0.00307    0.00182   -0.00106
 88 Li   -0.50282   -0.95605    1.02077

System changes: positions 

Initializing position-dependent things.

Density initialized from wave functions
       .---------------------------------.  
      /|                                 |  
     / |                                 |  
    /  |                                 |  
   /   |                                 |  
  /    |                                 |  
 *     |                                 |  
 |     |                                 |  
 |     |                                 |  
 |     |                                 |  
 |     |  Li      Li       Li      Li    |  
 |     |         Li                      |  
 |  Li |   LiLi     LLi     LLi      Li  |  
 |     |                                 |  
 |    Li      Li      Li       Li        |  
 |     |Li       Li      Li       Li     |  
 |     |                                 |  
 |     |  LLi     LiLi     LLi     LLi   |  
 |     |                                 |  
 |  Li |    Li       Li       Li         |  
 |     Li      Li       Li      Li       |  
 Li   Li      Li       Li Li   Li        |  
 |     |LLi      LLi     Li       Li     |  
 |     |                                 |  
 |Li   |  LLi     LLi      LLi     Li    |  
 |  LLi|     LLi     LLi      LLi        |  
 |     |                                 |  
 |    LLi     LLi      LLi     LLi       |  
 Li    |LLi      LLi     LiLi     Li     |  
 |     |                                 |  
 |Li   |   Li      Li       Li           |  
 |   Li|      Li      Li       Li        |  
 |     |                                 |  
 |     |                                 |  
 |     |                                 |  
 |     .---------------------------------.  
 |    /                                 /   
 |   /                                 /    
 |  /                                 /     
 | /                                 /      
 |/                                 /       
 *---------------------------------*        

Atomic positions and initial magnetic moments

Positions:
   0 Li     0.000000    2.467803    8.000000    ( 0.0000,  0.0000,  0.0000)
   1 Li     3.490000    2.467803    8.000000    ( 0.0000,  0.0000,  0.0000)
   2 Li     6.980000    2.467803    8.000000    ( 0.0000,  0.0000,  0.0000)
   3 Li    10.470000    2.467803    8.000000    ( 0.0000,  0.0000,  0.0000)
   4 Li     1.745000    4.935605    8.000000    ( 0.0000,  0.0000,  0.0000)
   5 Li     5.235000    4.935605    8.000000    ( 0.0000,  0.0000,  0.0000)
   6 Li     8.725000    4.935605    8.000000    ( 0.0000,  0.0000,  0.0000)
   7 Li    12.215000    4.935605    8.000000    ( 0.0000,  0.0000,  0.0000)
   8 Li     0.000000    7.403408    8.000000    ( 0.0000,  0.0000,  0.0000)
   9 Li     3.490000    7.403408    8.000000    ( 0.0000,  0.0000,  0.0000)
  10 Li     6.980000    7.403408    8.000000    ( 0.0000,  0.0000,  0.0000)
  11 Li    10.470000    7.403408    8.000000    ( 0.0000,  0.0000,  0.0000)
  12 Li     1.745000    9.871211    8.000000    ( 0.0000,  0.0000,  0.0000)
  13 Li     5.235000    9.871211    8.000000    ( 0.0000,  0.0000,  0.0000)
  14 Li     8.725000    9.871211    8.000000    ( 0.0000,  0.0000,  0.0000)
  15 Li    12.215000    9.871211    8.000000    ( 0.0000,  0.0000,  0.0000)
  16 Li     0.000000    0.000000   10.467803    ( 0.0000,  0.0000,  0.0000)
  17 Li     3.490000    0.000000   10.467803    ( 0.0000,  0.0000,  0.0000)
  18 Li     6.980000    0.000000   10.467803    ( 0.0000,  0.0000,  0.0000)
  19 Li    10.470000    0.000000   10.467803    ( 0.0000,  0.0000,  0.0000)
  20 Li     1.745000    2.467803   10.467803    ( 0.0000,  0.0000,  0.0000)
  21 Li     5.235000    2.467803   10.467803    ( 0.0000,  0.0000,  0.0000)
  22 Li     8.725000    2.467803   10.467803    ( 0.0000,  0.0000,  0.0000)
  23 Li    12.215000    2.467803   10.467803    ( 0.0000,  0.0000,  0.0000)
  24 Li     0.000000    4.935605   10.467803    ( 0.0000,  0.0000,  0.0000)
  25 Li     3.490000    4.935605   10.467803    ( 0.0000,  0.0000,  0.0000)
  26 Li     6.980000    4.935605   10.467803    ( 0.0000,  0.0000,  0.0000)
  27 Li    10.470000    4.935605   10.467803    ( 0.0000,  0.0000,  0.0000)
  28 Li     1.745000    7.403408   10.467803    ( 0.0000,  0.0000,  0.0000)
  29 Li     5.235000    7.403408   10.467803    ( 0.0000,  0.0000,  0.0000)
  30 Li     8.725000    7.403408   10.467803    ( 0.0000,  0.0000,  0.0000)
  31 Li    12.215000    7.403408   10.467803    ( 0.0000,  0.0000,  0.0000)
  32 Li     0.000000    2.467803   12.935605    ( 0.0000,  0.0000,  0.0000)
  33 Li     3.490000    2.467803   12.935605    ( 0.0000,  0.0000,  0.0000)
  34 Li     6.980000    2.467803   12.935605    ( 0.0000,  0.0000,  0.0000)
  35 Li    10.470000    2.467803   12.935605    ( 0.0000,  0.0000,  0.0000)
  36 Li     1.745000    4.935605   12.935605    ( 0.0000,  0.0000,  0.0000)
  37 Li     5.235000    4.935605   12.935605    ( 0.0000,  0.0000,  0.0000)
  38 Li     8.725000    4.935605   12.935605    ( 0.0000,  0.0000,  0.0000)
  39 Li    12.215000    4.935605   12.935605    ( 0.0000,  0.0000,  0.0000)
  40 Li     0.000000    7.403408   12.935605    ( 0.0000,  0.0000,  0.0000)
  41 Li     3.490000    7.403408   12.935605    ( 0.0000,  0.0000,  0.0000)
  42 Li     6.980000    7.403408   12.935605    ( 0.0000,  0.0000,  0.0000)
  43 Li    10.470000    7.403408   12.935605    ( 0.0000,  0.0000,  0.0000)
  44 Li     1.745000    9.871211   12.935605    ( 0.0000,  0.0000,  0.0000)
  45 Li     5.235000    9.871211   12.935605    ( 0.0000,  0.0000,  0.0000)
  46 Li     8.725000    9.871211   12.935605    ( 0.0000,  0.0000,  0.0000)
  47 Li    12.215000    9.871211   12.935605    ( 0.0000,  0.0000,  0.0000)
  48 Li     0.007378    0.005578   15.792937    ( 0.0000,  0.0000,  0.0000)
  49 Li     3.483515    0.003537   15.754531    ( 0.0000,  0.0000,  0.0000)
  50 Li     6.985209    0.003906   15.753526    ( 0.0000,  0.0000,  0.0000)
  51 Li    10.453090    0.003275   15.811230    ( 0.0000,  0.0000,  0.0000)
  52 Li     1.736800    2.457241   15.728181    ( 0.0000,  0.0000,  0.0000)
  53 Li     5.229501    2.449365   15.677603    ( 0.0000,  0.0000,  0.0000)
  54 Li     8.737313    2.451460   15.722044    ( 0.0000,  0.0000,  0.0000)
  55 Li    12.208739    2.452081   15.748370    ( 0.0000,  0.0000,  0.0000)
  56 Li     0.004800    4.937373   15.627336    ( 0.0000,  0.0000,  0.0000)
  57 Li     3.474985    4.931905   15.608366    ( 0.0000,  0.0000,  0.0000)
  58 Li     6.984114    4.930860   15.599634    ( 0.0000,  0.0000,  0.0000)
  59 Li    10.473251    4.939968   15.602748    ( 0.0000,  0.0000,  0.0000)
  60 Li     1.742999    7.402259   15.645524    ( 0.0000,  0.0000,  0.0000)
  61 Li     5.229685    7.407493   15.610907    ( 0.0000,  0.0000,  0.0000)
  62 Li     8.730167    7.403920   15.631123    ( 0.0000,  0.0000,  0.0000)
  63 Li    12.207303    7.400052   15.669085    ( 0.0000,  0.0000,  0.0000)
  64 Li    -0.005915    2.488565   18.499928    ( 0.0000,  0.0000,  0.0000)
  65 Li     3.487254    2.520503   18.451570    ( 0.0000,  0.0000,  0.0000)
  66 Li     6.974426    2.509139   18.417549    ( 0.0000,  0.0000,  0.0000)
  67 Li    10.461672    2.495329   18.537596    ( 0.0000,  0.0000,  0.0000)
  68 Li     1.747953    4.977710   18.314704    ( 0.0000,  0.0000,  0.0000)
  69 Li     5.233215    4.934544   18.269279    ( 0.0000,  0.0000,  0.0000)
  70 Li     8.744444    4.968238   18.236236    ( 0.0000,  0.0000,  0.0000)
  71 Li    12.208909    4.985063   18.293124    ( 0.0000,  0.0000,  0.0000)
  72 Li     0.013306    7.382987   18.365236    ( 0.0000,  0.0000,  0.0000)
  73 Li     3.501883    7.351121   18.322089    ( 0.0000,  0.0000,  0.0000)
  74 Li     6.980559    7.359260   18.304486    ( 0.0000,  0.0000,  0.0000)
  75 Li    10.429762    7.374509   18.398170    ( 0.0000,  0.0000,  0.0000)
  76 Li     1.796837    9.863599   18.596708    ( 0.0000,  0.0000,  0.0000)
  77 Li     5.225808    9.841983   18.516505    ( 0.0000,  0.0000,  0.0000)
  78 Li     8.667118    9.859037   18.627851    ( 0.0000,  0.0000,  0.0000)
  79 Li    12.208241    9.843481   18.565184    ( 0.0000,  0.0000,  0.0000)
  80 Li     0.026053    4.800222   20.918402    ( 0.0000,  0.0000,  0.0000)
  81 Li     3.602742    4.753922   20.991877    ( 0.0000,  0.0000,  0.0000)
  82 Li     6.993714    4.744993   20.854623    ( 0.0000,  0.0000,  0.0000)
  83 Li    10.421423    4.827528   20.948752    ( 0.0000,  0.0000,  0.0000)
  84 Li     1.810334    7.610953   20.991057    ( 0.0000,  0.0000,  0.0000)
  85 Li     5.249593    7.646656   20.949675    ( 0.0000,  0.0000,  0.0000)
  86 Li     8.615389    7.595693   21.081800    ( 0.0000,  0.0000,  0.0000)
  87 Li    12.214103    7.620391   20.994217    ( 0.0000,  0.0000,  0.0000)
  88 Li     5.713199    3.712240   22.259213    ( 0.0000,  0.0000,  0.0000)

Unit cell:
           periodic     x           y           z      points  spacing
  1. axis:    yes   13.960000    0.000000    0.000000    68     0.2053
  2. axis:    yes    0.000000    9.871211    0.000000    48     0.2057
  3. axis:    no     0.000000    0.000000   28.339013   140     0.2024

  Lengths:  13.960000   9.871211  28.339013
  Angles:   90.000000  90.000000  90.000000

Effective grid spacing dv^(1/3) = 0.2045

     iter     time        total  log10-change:
                         energy   eigst   dens
iter:   1 20:21:52  -142.545054        c
iter:   2 20:21:55  -142.550879        c -2.50
iter:   3 20:21:57  -142.545384c       c -2.27
iter:   4 20:22:00  -142.545497c       c -3.32
iter:   5 20:22:03  -142.545479c       c -3.57
iter:   6 20:22:06  -142.545470c       c -3.71
iter:   7 20:22:08  -142.545465c       c -3.84
iter:   8 20:22:11  -142.545466c       c -3.94
iter:   9 20:22:14  -142.545464c       c -4.12c

Converged after 9 iterations.

Dipole moment: (-10.537206, -12.814187, 0.859865) |e|*Ang

Energy contributions relative to reference atoms: (reference = -18048.116001)

Kinetic:       +234.204231
Potential:     -197.953405
External:        +0.000000
XC:            -177.437739
Entropy (-ST):   -1.626714
Local:           -0.545194
SIC:             +0.000000
--------------------------
Free energy:   -143.358821
Extrapolated:  -142.545464

Showing all kpts
 Kpt  Band  Eigenvalues  Occupancy
  0    42     -2.74950    1.23948
  0    43     -2.67913    0.89279
  0    44     -2.65903    0.79483
  0    45     -2.63793    0.69629

  1    42     -2.74479    1.21719
  1    43     -2.68809    0.93726
  1    44     -2.65525    0.77679
  1    45     -2.63813    0.69719


Fermi level: -2.70065

Gap: 0.057 eV
Transition (v -> c):
  (s=0, k=1, n=42, [0.25, 0.25, 0.00]) -> (s=0, k=1, n=43, [0.25, 0.25, 0.00])
No difference between direct/indirect transitions

Forces in eV/Ang:
  0 Li    0.00005   -0.00125   -0.17123
  1 Li    0.00010   -0.00439   -0.17318
  2 Li    0.00018   -0.00544   -0.17343
  3 Li   -0.00056   -0.00193   -0.17240
  4 Li    0.00016   -0.00497   -0.16510
  5 Li   -0.00047   -0.00306   -0.16582
  6 Li    0.00104   -0.00422   -0.16516
  7 Li   -0.00074   -0.00795   -0.16586
  8 Li    0.00351    0.00180   -0.16319
  9 Li    0.00047    0.00423   -0.16658
 10 Li    0.00015    0.00478   -0.16694
 11 Li   -0.00414    0.00267   -0.16323
 12 Li    0.00297    0.00415   -0.16990
 13 Li    0.00036    0.00402   -0.17209
 14 Li   -0.00187    0.00392   -0.17073
 15 Li   -0.00122    0.00749   -0.16988
 16 Li    0.00026   -0.00161   -0.09166
 17 Li   -0.00073   -0.00036   -0.09547
 18 Li    0.00126   -0.00057   -0.09363
 19 Li   -0.00063   -0.00089   -0.09875
 20 Li   -0.00023   -0.00044   -0.09019
 21 Li   -0.00015    0.00100   -0.09040
 22 Li   -0.00007   -0.00057   -0.09097
 23 Li    0.00018    0.00218   -0.08768
 24 Li   -0.00104   -0.00436   -0.09011
 25 Li   -0.00059   -0.00303   -0.08524
 26 Li    0.00101   -0.00350   -0.08340
 27 Li    0.00079   -0.00376   -0.08620
 28 Li    0.00083    0.00358   -0.08673
 29 Li    0.00012    0.00365   -0.08297
 30 Li   -0.00107    0.00363   -0.08406
 31 Li   -0.00005    0.00484   -0.08977
 32 Li   -0.00191   -0.00218    0.29168
 33 Li   -0.01122   -0.01177    0.26741
 34 Li    0.00917   -0.01550    0.26957
 35 Li    0.00237   -0.00955    0.28321
 36 Li   -0.00387   -0.01062    0.20594
 37 Li   -0.00499   -0.00937    0.20219
 38 Li    0.00235   -0.01091    0.20419
 39 Li    0.00738   -0.01062    0.22020
 40 Li   -0.00441    0.01186    0.24503
 41 Li   -0.01411    0.01469    0.22163
 42 Li    0.00851    0.01474    0.22393
 43 Li    0.00768    0.01930    0.23006
 44 Li   -0.00033    0.00254    0.30470
 45 Li    0.00034    0.00878    0.27708
 46 Li    0.00694    0.00503    0.30049
 47 Li   -0.00785   -0.00035    0.33746
 48 Li   -0.00201   -0.00372    0.00134
 49 Li    0.00250    0.00501    0.02107
 50 Li   -0.00195    0.00045    0.02066
 51 Li    0.00312   -0.00462    0.00654
 52 Li    0.00564   -0.00539    0.00736
 53 Li   -0.00194   -0.00595    0.02101
 54 Li   -0.00259   -0.00079   -0.00094
 55 Li   -0.00526    0.00429    0.00078
 56 Li   -0.00546    0.00396   -0.00314
 57 Li    0.01206   -0.00045    0.00692
 58 Li   -0.01375   -0.00332    0.00807
 59 Li    0.01086   -0.00185    0.00143
 60 Li   -0.00843    0.00602   -0.00962
 61 Li    0.00237    0.00289    0.00481
 62 Li    0.00768    0.01035   -0.01197
 63 Li   -0.00202    0.00656   -0.00164
 64 Li   -0.00222    0.01085   -0.00392
 65 Li    0.03683   -0.00485    0.10131
 66 Li   -0.02885   -0.00500    0.12853
 67 Li    0.00060    0.01086    0.00098
 68 Li   -0.00644    0.00815   -0.01092
 69 Li    0.00179    0.02199    0.04358
 70 Li    0.00484   -0.00158    0.00412
 71 Li    0.00341   -0.00334    0.01357
 72 Li    0.00070    0.00361    0.00722
 73 Li   -0.01395    0.01645   -0.02492
 74 Li    0.01001    0.01704   -0.01814
 75 Li    0.00070    0.01275    0.01458
 76 Li   -0.03899   -0.02202   -0.02094
 77 Li    0.00428    0.02082    0.02839
 78 Li    0.02851   -0.02126   -0.00245
 79 Li    0.00601    0.00488   -0.01934
 80 Li   -0.01241   -0.01510    0.01409
 81 Li   -0.43678    0.24567   -0.28574
 82 Li    0.89211    0.84147   -1.03714
 83 Li   -0.00820   -0.04299    0.01897
 84 Li   -0.03732   -0.01695   -0.01226
 85 Li    0.01014   -0.17256    0.10439
 86 Li    0.05103   -0.02157   -0.04040
 87 Li   -0.00340    0.00188   -0.00052
 88 Li   -0.45699   -0.90215    0.96102

System changes: positions 

Initializing position-dependent things.

Density initialized from wave functions
       .---------------------------------.  
      /|                                 |  
     / |                                 |  
    /  |                                 |  
   /   |                                 |  
  /    |                                 |  
 *     |                                 |  
 |     |                                 |  
 |     |                                 |  
 |     |                                 |  
 |     |  Li      Li       Li      Li    |  
 |     |         Li                      |  
 |  Li |   LiLi     LLi     LLi      Li  |  
 |     |                                 |  
 |    Li      Li      Li       Li        |  
 |     |Li       Li      Li       Li     |  
 |     |                                 |  
 |     |  LLi     LiLi     LLi     LLi   |  
 |     |                                 |  
 |  Li |    Li       Li       Li         |  
 |     Li      Li       Li      Li       |  
 Li   Li      Li       Li Li   Li        |  
 |     |LLi      LLi     Li       Li     |  
 |     |                                 |  
 |Li   |  LLi     LLi      LLi     Li    |  
 |  LLi|     LLi     LLi      LLi        |  
 |     |                                 |  
 |    LLi     LLi      LLi     LLi       |  
 Li    |LLi      LLi     LiLi     Li     |  
 |     |                                 |  
 |Li   |   Li      Li       Li           |  
 |   Li|      Li      Li       Li        |  
 |     |                                 |  
 |     |                                 |  
 |     |                                 |  
 |     .---------------------------------.  
 |    /                                 /   
 |   /                                 /    
 |  /                                 /     
 | /                                 /      
 |/                                 /       
 *---------------------------------*        

Atomic positions and initial magnetic moments

Positions:
   0 Li     0.000000    2.467803    8.000000    ( 0.0000,  0.0000,  0.0000)
   1 Li     3.490000    2.467803    8.000000    ( 0.0000,  0.0000,  0.0000)
   2 Li     6.980000    2.467803    8.000000    ( 0.0000,  0.0000,  0.0000)
   3 Li    10.470000    2.467803    8.000000    ( 0.0000,  0.0000,  0.0000)
   4 Li     1.745000    4.935605    8.000000    ( 0.0000,  0.0000,  0.0000)
   5 Li     5.235000    4.935605    8.000000    ( 0.0000,  0.0000,  0.0000)
   6 Li     8.725000    4.935605    8.000000    ( 0.0000,  0.0000,  0.0000)
   7 Li    12.215000    4.935605    8.000000    ( 0.0000,  0.0000,  0.0000)
   8 Li     0.000000    7.403408    8.000000    ( 0.0000,  0.0000,  0.0000)
   9 Li     3.490000    7.403408    8.000000    ( 0.0000,  0.0000,  0.0000)
  10 Li     6.980000    7.403408    8.000000    ( 0.0000,  0.0000,  0.0000)
  11 Li    10.470000    7.403408    8.000000    ( 0.0000,  0.0000,  0.0000)
  12 Li     1.745000    9.871211    8.000000    ( 0.0000,  0.0000,  0.0000)
  13 Li     5.235000    9.871211    8.000000    ( 0.0000,  0.0000,  0.0000)
  14 Li     8.725000    9.871211    8.000000    ( 0.0000,  0.0000,  0.0000)
  15 Li    12.215000    9.871211    8.000000    ( 0.0000,  0.0000,  0.0000)
  16 Li     0.000000    0.000000   10.467803    ( 0.0000,  0.0000,  0.0000)
  17 Li     3.490000    0.000000   10.467803    ( 0.0000,  0.0000,  0.0000)
  18 Li     6.980000    0.000000   10.467803    ( 0.0000,  0.0000,  0.0000)
  19 Li    10.470000    0.000000   10.467803    ( 0.0000,  0.0000,  0.0000)
  20 Li     1.745000    2.467803   10.467803    ( 0.0000,  0.0000,  0.0000)
  21 Li     5.235000    2.467803   10.467803    ( 0.0000,  0.0000,  0.0000)
  22 Li     8.725000    2.467803   10.467803    ( 0.0000,  0.0000,  0.0000)
  23 Li    12.215000    2.467803   10.467803    ( 0.0000,  0.0000,  0.0000)
  24 Li     0.000000    4.935605   10.467803    ( 0.0000,  0.0000,  0.0000)
  25 Li     3.490000    4.935605   10.467803    ( 0.0000,  0.0000,  0.0000)
  26 Li     6.980000    4.935605   10.467803    ( 0.0000,  0.0000,  0.0000)
  27 Li    10.470000    4.935605   10.467803    ( 0.0000,  0.0000,  0.0000)
  28 Li     1.745000    7.403408   10.467803    ( 0.0000,  0.0000,  0.0000)
  29 Li     5.235000    7.403408   10.467803    ( 0.0000,  0.0000,  0.0000)
  30 Li     8.725000    7.403408   10.467803    ( 0.0000,  0.0000,  0.0000)
  31 Li    12.215000    7.403408   10.467803    ( 0.0000,  0.0000,  0.0000)
  32 Li     0.000000    2.467803   12.935605    ( 0.0000,  0.0000,  0.0000)
  33 Li     3.490000    2.467803   12.935605    ( 0.0000,  0.0000,  0.0000)
  34 Li     6.980000    2.467803   12.935605    ( 0.0000,  0.0000,  0.0000)
  35 Li    10.470000    2.467803   12.935605    ( 0.0000,  0.0000,  0.0000)
  36 Li     1.745000    4.935605   12.935605    ( 0.0000,  0.0000,  0.0000)
  37 Li     5.235000    4.935605   12.935605    ( 0.0000,  0.0000,  0.0000)
  38 Li     8.725000    4.935605   12.935605    ( 0.0000,  0.0000,  0.0000)
  39 Li    12.215000    4.935605   12.935605    ( 0.0000,  0.0000,  0.0000)
  40 Li     0.000000    7.403408   12.935605    ( 0.0000,  0.0000,  0.0000)
  41 Li     3.490000    7.403408   12.935605    ( 0.0000,  0.0000,  0.0000)
  42 Li     6.980000    7.403408   12.935605    ( 0.0000,  0.0000,  0.0000)
  43 Li    10.470000    7.403408   12.935605    ( 0.0000,  0.0000,  0.0000)
  44 Li     1.745000    9.871211   12.935605    ( 0.0000,  0.0000,  0.0000)
  45 Li     5.235000    9.871211   12.935605    ( 0.0000,  0.0000,  0.0000)
  46 Li     8.725000    9.871211   12.935605    ( 0.0000,  0.0000,  0.0000)
  47 Li    12.215000    9.871211   12.935605    ( 0.0000,  0.0000,  0.0000)
  48 Li     0.007394    0.005477   15.792887    ( 0.0000,  0.0000,  0.0000)
  49 Li     3.483699    0.003633   15.755419    ( 0.0000,  0.0000,  0.0000)
  50 Li     6.985030    0.003910   15.754399    ( 0.0000,  0.0000,  0.0000)
  51 Li    10.453041    0.003145   15.811388    ( 0.0000,  0.0000,  0.0000)
  52 Li     1.736899    2.457047   15.728281    ( 0.0000,  0.0000,  0.0000)
  53 Li     5.229431    2.449233   15.677907    ( 0.0000,  0.0000,  0.0000)
  54 Li     8.737301    2.451325   15.721937    ( 0.0000,  0.0000,  0.0000)
  55 Li    12.208595    2.452098   15.748392    ( 0.0000,  0.0000,  0.0000)
  56 Li     0.004695    4.937426   15.627535    ( 0.0000,  0.0000,  0.0000)
  57 Li     3.475102    4.931904   15.608384    ( 0.0000,  0.0000,  0.0000)
  58 Li     6.983902    4.930794   15.599618    ( 0.0000,  0.0000,  0.0000)
  59 Li    10.473510    4.939918   15.602900    ( 0.0000,  0.0000,  0.0000)
  60 Li     1.742774    7.402355   15.645479    ( 0.0000,  0.0000,  0.0000)
  61 Li     5.229704    7.407431   15.610929    ( 0.0000,  0.0000,  0.0000)
  62 Li     8.730394    7.404113   15.630949    ( 0.0000,  0.0000,  0.0000)
  63 Li    12.207218    7.400147   15.669291    ( 0.0000,  0.0000,  0.0000)
  64 Li    -0.005912    2.488706   18.499681    ( 0.0000,  0.0000,  0.0000)
  65 Li     3.488096    2.520113   18.453440    ( 0.0000,  0.0000,  0.0000)
  66 Li     6.973707    2.508685   18.419772    ( 0.0000,  0.0000,  0.0000)
  67 Li    10.461556    2.495506   18.537664    ( 0.0000,  0.0000,  0.0000)
  68 Li     1.748112    4.977788   18.314875    ( 0.0000,  0.0000,  0.0000)
  69 Li     5.233256    4.935059   18.269678    ( 0.0000,  0.0000,  0.0000)
  70 Li     8.744341    4.968057   18.236317    ( 0.0000,  0.0000,  0.0000)
  71 Li    12.208948    4.984844   18.293650    ( 0.0000,  0.0000,  0.0000)
  72 Li     0.013288    7.382737   18.365669    ( 0.0000,  0.0000,  0.0000)
  73 Li     3.501699    7.351421   18.321576    ( 0.0000,  0.0000,  0.0000)
  74 Li     6.980731    7.359600   18.304023    ( 0.0000,  0.0000,  0.0000)
  75 Li    10.429666    7.374406   18.398928    ( 0.0000,  0.0000,  0.0000)
  76 Li     1.795659    9.862933   18.596459    ( 0.0000,  0.0000,  0.0000)
  77 Li     5.225843    9.842260   18.518281    ( 0.0000,  0.0000,  0.0000)
  78 Li     8.668050    9.858362   18.628152    ( 0.0000,  0.0000,  0.0000)
  79 Li    12.208323    9.843504   18.564373    ( 0.0000,  0.0000,  0.0000)
  80 Li     0.025740    4.799582   20.918891    ( 0.0000,  0.0000,  0.0000)
  81 Li     3.594269    4.758169   20.986495    ( 0.0000,  0.0000,  0.0000)
  82 Li     7.012464    4.761513   20.832831    ( 0.0000,  0.0000,  0.0000)
  83 Li    10.421153    4.826480   20.949522    ( 0.0000,  0.0000,  0.0000)
  84 Li     1.809937    7.609771   20.991046    ( 0.0000,  0.0000,  0.0000)
  85 Li     5.249886    7.641630   20.952250    ( 0.0000,  0.0000,  0.0000)
  86 Li     8.615784    7.594290   21.081751    ( 0.0000,  0.0000,  0.0000)
  87 Li    12.214033    7.620608   20.994355    ( 0.0000,  0.0000,  0.0000)
  88 Li     5.706380    3.705471   22.286424    ( 0.0000,  0.0000,  0.0000)

Unit cell:
           periodic     x           y           z      points  spacing
  1. axis:    yes   13.960000    0.000000    0.000000    68     0.2053
  2. axis:    yes    0.000000    9.871211    0.000000    48     0.2057
  3. axis:    no     0.000000    0.000000   28.339013   140     0.2024

  Lengths:  13.960000   9.871211  28.339013
  Angles:   90.000000  90.000000  90.000000

Effective grid spacing dv^(1/3) = 0.2045

     iter     time        total  log10-change:
                         energy   eigst   dens
iter:   1 20:23:22  -142.638250        c
iter:   2 20:23:25  -142.636260        c -2.67
iter:   3 20:23:28  -142.637638c       c -2.74
iter:   4 20:23:31  -142.636664c       c -2.85
iter:   5 20:23:33  -142.636748c       c -3.19
iter:   6 20:23:36  -142.636705c       c -3.42
iter:   7 20:23:39  -142.636694c       c -3.56
iter:   8 20:23:42  -142.636704c       c -3.64
iter:   9 20:23:44  -142.636696c       c -3.83
iter:  10 20:23:47  -142.636724c       c -3.95
iter:  11 20:23:50  -142.636667c       c -4.05c

Converged after 11 iterations.

Dipole moment: (-10.531942, -12.810843, 0.881376) |e|*Ang

Energy contributions relative to reference atoms: (reference = -18048.116001)

Kinetic:       +234.068465
Potential:     -197.933496
External:        +0.000000
XC:            -177.413193
Entropy (-ST):   -1.626084
Local:           -0.545400
SIC:             +0.000000
--------------------------
Free energy:   -143.449709
Extrapolated:  -142.636667

Showing all kpts
 Kpt  Band  Eigenvalues  Occupancy
  0    42     -2.74352    1.24065
  0    43     -2.67309    0.89373
  0    44     -2.65245    0.79314
  0    45     -2.63189    0.69712

  1    42     -2.73880    1.21829
  1    43     -2.68115    0.93370
  1    44     -2.64933    0.77825
  1    45     -2.63226    0.69880


Fermi level: -2.69443

Gap: 0.058 eV
Transition (v -> c):
  (s=0, k=1, n=42, [0.25, 0.25, 0.00]) -> (s=0, k=1, n=43, [0.25, 0.25, 0.00])
No difference between direct/indirect transitions

Forces in eV/Ang:
  0 Li    0.00012   -0.00118   -0.17129
  1 Li    0.00014   -0.00440   -0.17331
  2 Li   -0.00002   -0.00545   -0.17347
  3 Li   -0.00047   -0.00188   -0.17246
  4 Li    0.00026   -0.00492   -0.16523
  5 Li   -0.00061   -0.00300   -0.16593
  6 Li    0.00091   -0.00418   -0.16515
  7 Li   -0.00061   -0.00801   -0.16579
  8 Li    0.00371    0.00174   -0.16321
  9 Li    0.00048    0.00421   -0.16668
 10 Li   -0.00003    0.00475   -0.16696
 11 Li   -0.00415    0.00263   -0.16314
 12 Li    0.00310    0.00413   -0.16998
 13 Li    0.00023    0.00401   -0.17212
 14 Li   -0.00198    0.00388   -0.17067
 15 Li   -0.00109    0.00753   -0.16993
 16 Li    0.00023   -0.00162   -0.09144
 17 Li   -0.00069   -0.00034   -0.09548
 18 Li    0.00123   -0.00059   -0.09344
 19 Li   -0.00060   -0.00089   -0.09839
 20 Li   -0.00019   -0.00044   -0.09000
 21 Li   -0.00015    0.00105   -0.09041
 22 Li   -0.00013   -0.00055   -0.09054
 23 Li    0.00020    0.00213   -0.08740
 24 Li   -0.00100   -0.00432   -0.09008
 25 Li   -0.00059   -0.00300   -0.08527
 26 Li    0.00098   -0.00351   -0.08327
 27 Li    0.00072   -0.00371   -0.08588
 28 Li    0.00081    0.00352   -0.08669
 29 Li    0.00011    0.00363   -0.08287
 30 Li   -0.00107    0.00357   -0.08380
 31 Li    0.00001    0.00487   -0.08959
 32 Li   -0.00214   -0.00217    0.29180
 33 Li   -0.01100   -0.01199    0.26780
 34 Li    0.00909   -0.01575    0.27000
 35 Li    0.00244   -0.00969    0.28337
 36 Li   -0.00408   -0.01065    0.20623
 37 Li   -0.00494   -0.00947    0.20241
 38 Li    0.00242   -0.01087    0.20471
 39 Li    0.00744   -0.01073    0.22008
 40 Li   -0.00463    0.01192    0.24516
 41 Li   -0.01413    0.01469    0.22166
 42 Li    0.00872    0.01474    0.22389
 43 Li    0.00769    0.01941    0.22993
 44 Li   -0.00014    0.00263    0.30497
 45 Li    0.00049    0.00918    0.27751
 46 Li    0.00680    0.00513    0.30094
 47 Li   -0.00800   -0.00030    0.33769
 48 Li   -0.00210   -0.00330    0.00099
 49 Li    0.00249    0.00432    0.02101
 50 Li   -0.00194    0.00021    0.02055
 51 Li    0.00329   -0.00456    0.00605
 52 Li    0.00548   -0.00511    0.00754
 53 Li   -0.00177   -0.00556    0.02247
 54 Li   -0.00286   -0.00060   -0.00013
 55 Li   -0.00478    0.00403    0.00062
 56 Li   -0.00569    0.00369   -0.00316
 57 Li    0.01139   -0.00080    0.00790
 58 Li   -0.01315   -0.00363    0.01008
 59 Li    0.01098   -0.00176    0.00060
 60 Li   -0.00821    0.00623   -0.00932
 61 Li    0.00223    0.00387    0.00418
 62 Li    0.00765    0.01034   -0.01212
 63 Li   -0.00213    0.00629   -0.00148
 64 Li   -0.00123    0.01091   -0.00324
 65 Li    0.03162   -0.00661    0.09639
 66 Li   -0.02590   -0.00736    0.12326
 67 Li   -0.00073    0.01150    0.00172
 68 Li   -0.00812    0.00794   -0.01389
 69 Li   -0.00119    0.02356    0.03615
 70 Li    0.01399    0.00024   -0.01084
 71 Li    0.00287   -0.00328    0.01326
 72 Li    0.00015    0.00311    0.00656
 73 Li   -0.01283    0.01685   -0.02370
 74 Li    0.00939    0.02067   -0.02027
 75 Li   -0.00064    0.00997    0.01519
 76 Li   -0.03801   -0.02038   -0.02078
 77 Li    0.00383    0.01711    0.02893
 78 Li    0.02788   -0.01970   -0.00283
 79 Li    0.00617    0.00506   -0.01875
 80 Li   -0.01324   -0.01512    0.01434
 81 Li   -0.39647    0.22987   -0.27155
 82 Li    0.75844    0.73901   -0.90243
 83 Li    0.00032   -0.04212    0.01806
 84 Li   -0.03791   -0.01419   -0.01192
 85 Li    0.00898   -0.16708    0.10101
 86 Li    0.05597   -0.01143   -0.03987
 87 Li   -0.00353    0.00180   -0.00011
 88 Li   -0.37620   -0.80363    0.84643

System changes: positions 

Initializing position-dependent things.

Density initialized from wave functions
       .---------------------------------.  
      /|                                 |  
     / |                                 |  
    /  |                                 |  
   /   |                                 |  
  /    |                                 |  
 *     |                                 |  
 |     |                                 |  
 |     |                                 |  
 |     |                                 |  
 |     |  Li      Li       Li      Li    |  
 |     |         Li                      |  
 |  Li |   LiLi     LLi     LLi      Li  |  
 |     |                                 |  
 |    Li      Li      Li       Li        |  
 |     |Li       Li      Li       Li     |  
 |     |                                 |  
 |     |  LLi     LiLi     LLi     LLi   |  
 |     |                                 |  
 |  Li |    Li       Li       Li         |  
 |     Li      Li       Li      Li       |  
 Li   Li      Li       Li Li   Li        |  
 |     |LLi      LLi     Li       Li     |  
 |     |                                 |  
 |Li   |  LLi     LLi      LLi     Li    |  
 |  LLi|     LLi     LLi      LLi        |  
 |     |                                 |  
 |    LLi     LLi      LLi     LLi       |  
 Li    |LLi      LLi     LiLi     Li     |  
 |     |                                 |  
 |Li   |   Li      Li       Li           |  
 |   Li|      Li      Li       Li        |  
 |     |                                 |  
 |     |                                 |  
 |     |                                 |  
 |     .---------------------------------.  
 |    /                                 /   
 |   /                                 /    
 |  /                                 /     
 | /                                 /      
 |/                                 /       
 *---------------------------------*        

Atomic positions and initial magnetic moments

Positions:
   0 Li     0.000000    2.467803    8.000000    ( 0.0000,  0.0000,  0.0000)
   1 Li     3.490000    2.467803    8.000000    ( 0.0000,  0.0000,  0.0000)
   2 Li     6.980000    2.467803    8.000000    ( 0.0000,  0.0000,  0.0000)
   3 Li    10.470000    2.467803    8.000000    ( 0.0000,  0.0000,  0.0000)
   4 Li     1.745000    4.935605    8.000000    ( 0.0000,  0.0000,  0.0000)
   5 Li     5.235000    4.935605    8.000000    ( 0.0000,  0.0000,  0.0000)
   6 Li     8.725000    4.935605    8.000000    ( 0.0000,  0.0000,  0.0000)
   7 Li    12.215000    4.935605    8.000000    ( 0.0000,  0.0000,  0.0000)
   8 Li     0.000000    7.403408    8.000000    ( 0.0000,  0.0000,  0.0000)
   9 Li     3.490000    7.403408    8.000000    ( 0.0000,  0.0000,  0.0000)
  10 Li     6.980000    7.403408    8.000000    ( 0.0000,  0.0000,  0.0000)
  11 Li    10.470000    7.403408    8.000000    ( 0.0000,  0.0000,  0.0000)
  12 Li     1.745000    9.871211    8.000000    ( 0.0000,  0.0000,  0.0000)
  13 Li     5.235000    9.871211    8.000000    ( 0.0000,  0.0000,  0.0000)
  14 Li     8.725000    9.871211    8.000000    ( 0.0000,  0.0000,  0.0000)
  15 Li    12.215000    9.871211    8.000000    ( 0.0000,  0.0000,  0.0000)
  16 Li     0.000000    0.000000   10.467803    ( 0.0000,  0.0000,  0.0000)
  17 Li     3.490000    0.000000   10.467803    ( 0.0000,  0.0000,  0.0000)
  18 Li     6.980000    0.000000   10.467803    ( 0.0000,  0.0000,  0.0000)
  19 Li    10.470000    0.000000   10.467803    ( 0.0000,  0.0000,  0.0000)
  20 Li     1.745000    2.467803   10.467803    ( 0.0000,  0.0000,  0.0000)
  21 Li     5.235000    2.467803   10.467803    ( 0.0000,  0.0000,  0.0000)
  22 Li     8.725000    2.467803   10.467803    ( 0.0000,  0.0000,  0.0000)
  23 Li    12.215000    2.467803   10.467803    ( 0.0000,  0.0000,  0.0000)
  24 Li     0.000000    4.935605   10.467803    ( 0.0000,  0.0000,  0.0000)
  25 Li     3.490000    4.935605   10.467803    ( 0.0000,  0.0000,  0.0000)
  26 Li     6.980000    4.935605   10.467803    ( 0.0000,  0.0000,  0.0000)
  27 Li    10.470000    4.935605   10.467803    ( 0.0000,  0.0000,  0.0000)
  28 Li     1.745000    7.403408   10.467803    ( 0.0000,  0.0000,  0.0000)
  29 Li     5.235000    7.403408   10.467803    ( 0.0000,  0.0000,  0.0000)
  30 Li     8.725000    7.403408   10.467803    ( 0.0000,  0.0000,  0.0000)
  31 Li    12.215000    7.403408   10.467803    ( 0.0000,  0.0000,  0.0000)
  32 Li     0.000000    2.467803   12.935605    ( 0.0000,  0.0000,  0.0000)
  33 Li     3.490000    2.467803   12.935605    ( 0.0000,  0.0000,  0.0000)
  34 Li     6.980000    2.467803   12.935605    ( 0.0000,  0.0000,  0.0000)
  35 Li    10.470000    2.467803   12.935605    ( 0.0000,  0.0000,  0.0000)
  36 Li     1.745000    4.935605   12.935605    ( 0.0000,  0.0000,  0.0000)
  37 Li     5.235000    4.935605   12.935605    ( 0.0000,  0.0000,  0.0000)
  38 Li     8.725000    4.935605   12.935605    ( 0.0000,  0.0000,  0.0000)
  39 Li    12.215000    4.935605   12.935605    ( 0.0000,  0.0000,  0.0000)
  40 Li     0.000000    7.403408   12.935605    ( 0.0000,  0.0000,  0.0000)
  41 Li     3.490000    7.403408   12.935605    ( 0.0000,  0.0000,  0.0000)
  42 Li     6.980000    7.403408   12.935605    ( 0.0000,  0.0000,  0.0000)
  43 Li    10.470000    7.403408   12.935605    ( 0.0000,  0.0000,  0.0000)
  44 Li     1.745000    9.871211   12.935605    ( 0.0000,  0.0000,  0.0000)
  45 Li     5.235000    9.871211   12.935605    ( 0.0000,  0.0000,  0.0000)
  46 Li     8.725000    9.871211   12.935605    ( 0.0000,  0.0000,  0.0000)
  47 Li    12.215000    9.871211   12.935605    ( 0.0000,  0.0000,  0.0000)
  48 Li     0.007409    0.005331   15.792815    ( 0.0000,  0.0000,  0.0000)
  49 Li     3.483962    0.003766   15.756708    ( 0.0000,  0.0000,  0.0000)
  50 Li     6.984775    0.003911   15.755666    ( 0.0000,  0.0000,  0.0000)
  51 Li    10.452982    0.002950   15.811617    ( 0.0000,  0.0000,  0.0000)
  52 Li     1.737048    2.456769   15.728439    ( 0.0000,  0.0000,  0.0000)
  53 Li     5.229330    2.449041   15.678404    ( 0.0000,  0.0000,  0.0000)
  54 Li     8.737274    2.451140   15.721796    ( 0.0000,  0.0000,  0.0000)
  55 Li    12.208388    2.452130   15.748423    ( 0.0000,  0.0000,  0.0000)
  56 Li     0.004532    4.937505   15.627804    ( 0.0000,  0.0000,  0.0000)
  57 Li     3.475284    4.931895   15.608439    ( 0.0000,  0.0000,  0.0000)
  58 Li     6.983582    4.930691   15.599645    ( 0.0000,  0.0000,  0.0000)
  59 Li    10.473899    4.939845   15.603103    ( 0.0000,  0.0000,  0.0000)
  60 Li     1.742443    7.402506   15.645396    ( 0.0000,  0.0000,  0.0000)
  61 Li     5.229733    7.407366   15.610961    ( 0.0000,  0.0000,  0.0000)
  62 Li     8.730729    7.404407   15.630674    ( 0.0000,  0.0000,  0.0000)
  63 Li    12.207094    7.400293   15.669578    ( 0.0000,  0.0000,  0.0000)
  64 Li    -0.005900    2.488930   18.499339    ( 0.0000,  0.0000,  0.0000)
  65 Li     3.489279    2.519532   18.456211    ( 0.0000,  0.0000,  0.0000)
  66 Li     6.972679    2.508005   18.423097    ( 0.0000,  0.0000,  0.0000)
  67 Li    10.461378    2.495789   18.537773    ( 0.0000,  0.0000,  0.0000)
  68 Li     1.748296    4.977914   18.315044    ( 0.0000,  0.0000,  0.0000)
  69 Li     5.233272    4.935853   18.270224    ( 0.0000,  0.0000,  0.0000)
  70 Li     8.744345    4.967826   18.236218    ( 0.0000,  0.0000,  0.0000)
  71 Li    12.209000    4.984531   18.294410    ( 0.0000,  0.0000,  0.0000)
  72 Li     0.013256    7.382388   18.366279    ( 0.0000,  0.0000,  0.0000)
  73 Li     3.501424    7.351887   18.320818    ( 0.0000,  0.0000,  0.0000)
  74 Li     6.980987    7.360172   18.303301    ( 0.0000,  0.0000,  0.0000)
  75 Li    10.429513    7.374249   18.400031    ( 0.0000,  0.0000,  0.0000)
  76 Li     1.793936    9.861972   18.596067    ( 0.0000,  0.0000,  0.0000)
  77 Li     5.225894    9.842633   18.520832    ( 0.0000,  0.0000,  0.0000)
  78 Li     8.669408    9.857388   18.628563    ( 0.0000,  0.0000,  0.0000)
  79 Li    12.208454    9.843548   18.563206    ( 0.0000,  0.0000,  0.0000)
  80 Li     0.025262    4.798652   20.919613    ( 0.0000,  0.0000,  0.0000)
  81 Li     3.581998    4.764424   20.978508    ( 0.0000,  0.0000,  0.0000)
  82 Li     7.038805    4.785023   20.801868    ( 0.0000,  0.0000,  0.0000)
  83 Li    10.420880    4.824928   20.950631    ( 0.0000,  0.0000,  0.0000)
  84 Li     1.809286    7.608118   20.991009    ( 0.0000,  0.0000,  0.0000)
  85 Li     5.250303    7.634274   20.956047    ( 0.0000,  0.0000,  0.0000)
  86 Li     8.616524    7.592421   21.081599    ( 0.0000,  0.0000,  0.0000)
  87 Li    12.213925    7.620914   20.994552    ( 0.0000,  0.0000,  0.0000)
  88 Li     5.696983    3.695451   22.325121    ( 0.0000,  0.0000,  0.0000)

Unit cell:
           periodic     x           y           z      points  spacing
  1. axis:    yes   13.960000    0.000000    0.000000    68     0.2053
  2. axis:    yes    0.000000    9.871211    0.000000    48     0.2057
  3. axis:    no     0.000000    0.000000   28.339013   140     0.2024

  Lengths:  13.960000   9.871211  28.339013
  Angles:   90.000000  90.000000  90.000000

Effective grid spacing dv^(1/3) = 0.2045

     iter     time        total  log10-change:
                         energy   eigst   dens
iter:   1 20:25:03  -142.753672        c
iter:   2 20:25:06  -142.749697        c -2.28
iter:   3 20:25:08  -142.747705c       c -2.06
iter:   4 20:25:11  -142.747057c       c -2.81
iter:   5 20:25:14  -142.747025c       c -3.10
iter:   6 20:25:17  -142.746936c       c -3.28
iter:   7 20:25:20  -142.746918c       c -3.41
iter:   8 20:25:23  -142.746853c       c -3.50
iter:   9 20:25:26  -142.747005c       c -3.62
iter:  10 20:25:28  -142.746901c       c -3.63
iter:  11 20:25:31  -142.746929c       c -3.83
iter:  12 20:25:34  -142.746920c       c -3.99
iter:  13 20:25:37  -142.746912c       c -4.12c

Converged after 13 iterations.

Dipole moment: (-10.523476, -12.804965, 0.912094) |e|*Ang

Energy contributions relative to reference atoms: (reference = -18048.116001)

Kinetic:       +233.871951
Potential:     -197.883599
External:        +0.000000
XC:            -177.377197
Entropy (-ST):   -1.625172
Local:           -0.545481
SIC:             +0.000000
--------------------------
Free energy:   -143.559498
Extrapolated:  -142.746912

Showing all kpts
 Kpt  Band  Eigenvalues  Occupancy
  0    42     -2.73532    1.24219
  0    43     -2.66499    0.89582
  0    44     -2.64349    0.79105
  0    45     -2.62363    0.69834

  1    42     -2.73052    1.21945
  1    43     -2.67179    0.92954
  1    44     -2.64132    0.78070
  1    45     -2.62424    0.70109


Fermi level: -2.68590

Gap: 0.059 eV
Transition (v -> c):
  (s=0, k=1, n=42, [0.25, 0.25, 0.00]) -> (s=0, k=1, n=43, [0.25, 0.25, 0.00])
No difference between direct/indirect transitions

Forces in eV/Ang:
  0 Li    0.00010   -0.00115   -0.17147
  1 Li    0.00020   -0.00444   -0.17351
  2 Li   -0.00014   -0.00549   -0.17368
  3 Li   -0.00037   -0.00186   -0.17273
  4 Li    0.00033   -0.00491   -0.16541
  5 Li   -0.00068   -0.00297   -0.16609
  6 Li    0.00080   -0.00417   -0.16528
  7 Li   -0.00055   -0.00811   -0.16585
  8 Li    0.00384    0.00173   -0.16332
  9 Li    0.00052    0.00423   -0.16678
 10 Li   -0.00015    0.00475   -0.16709
 11 Li   -0.00416    0.00262   -0.16325
 12 Li    0.00317    0.00414   -0.17013
 13 Li    0.00015    0.00401   -0.17226
 14 Li   -0.00203    0.00386   -0.17084
 15 Li   -0.00102    0.00763   -0.17020
 16 Li    0.00025   -0.00165   -0.09142
 17 Li   -0.00066   -0.00037   -0.09562
 18 Li    0.00114   -0.00066   -0.09354
 19 Li   -0.00054   -0.00089   -0.09836
 20 Li   -0.00010   -0.00038   -0.08993
 21 Li   -0.00018    0.00117   -0.09062
 22 Li   -0.00022   -0.00046   -0.09042
 23 Li    0.00026    0.00211   -0.08742
 24 Li   -0.00090   -0.00424   -0.09017
 25 Li   -0.00058   -0.00293   -0.08531
 26 Li    0.00087   -0.00350   -0.08330
 27 Li    0.00066   -0.00367   -0.08579
 28 Li    0.00082    0.00342   -0.08663
 29 Li    0.00005    0.00356   -0.08276
 30 Li   -0.00112    0.00344   -0.08380
 31 Li    0.00013    0.00487   -0.08957
 32 Li   -0.00230   -0.00205    0.29179
 33 Li   -0.01071   -0.01222    0.26825
 34 Li    0.00877   -0.01601    0.27056
 35 Li    0.00260   -0.00976    0.28347
 36 Li   -0.00427   -0.01055    0.20650
 37 Li   -0.00502   -0.00950    0.20257
 38 Li    0.00242   -0.01071    0.20530
 39 Li    0.00766   -0.01070    0.21979
 40 Li   -0.00481    0.01189    0.24521
 41 Li   -0.01418    0.01461    0.22154
 42 Li    0.00878    0.01461    0.22388
 43 Li    0.00782    0.01943    0.22973
 44 Li    0.00027    0.00263    0.30522
 45 Li    0.00053    0.00959    0.27806
 46 Li    0.00648    0.00518    0.30158
 47 Li   -0.00805   -0.00037    0.33792
 48 Li   -0.00220   -0.00271    0.00031
 49 Li    0.00256    0.00346    0.02069
 50 Li   -0.00193   -0.00001    0.02033
 51 Li    0.00341   -0.00446    0.00538
 52 Li    0.00541   -0.00466    0.00780
 53 Li   -0.00153   -0.00509    0.02418
 54 Li   -0.00337   -0.00045    0.00112
 55 Li   -0.00413    0.00364    0.00038
 56 Li   -0.00588    0.00337   -0.00348
 57 Li    0.01037   -0.00132    0.00883
 58 Li   -0.01227   -0.00401    0.01258
 59 Li    0.01101   -0.00150   -0.00065
 60 Li   -0.00787    0.00640   -0.00933
 61 Li    0.00205    0.00521    0.00286
 62 Li    0.00760    0.01024   -0.01230
 63 Li   -0.00226    0.00591   -0.00147
 64 Li    0.00029    0.01111   -0.00236
 65 Li    0.02429   -0.00890    0.08930
 66 Li   -0.02169   -0.01029    0.11603
 67 Li   -0.00268    0.01220    0.00265
 68 Li   -0.01099    0.00759   -0.01844
 69 Li   -0.00528    0.02540    0.02583
 70 Li    0.02735    0.00228   -0.03273
 71 Li    0.00220   -0.00313    0.01296
 72 Li   -0.00052    0.00219    0.00592
 73 Li   -0.01124    0.01759   -0.02185
 74 Li    0.00839    0.02635   -0.02364
 75 Li   -0.00281    0.00604    0.01611
 76 Li   -0.03672   -0.01812   -0.02060
 77 Li    0.00326    0.01170    0.02955
 78 Li    0.02707   -0.01761   -0.00360
 79 Li    0.00624    0.00528   -0.01797
 80 Li   -0.01479   -0.01501    0.01442
 81 Li   -0.33994    0.20660   -0.24957
 82 Li    0.58605    0.60397   -0.73054
 83 Li    0.01197   -0.04097    0.01713
 84 Li   -0.03902   -0.01002   -0.01159
 85 Li    0.00733   -0.16042    0.09645
 86 Li    0.06291    0.00298   -0.03857
 87 Li   -0.00360    0.00154    0.00043
 88 Li   -0.27883   -0.67202    0.69802

System changes: positions 

Initializing position-dependent things.

Density initialized from wave functions
       .---------------------------------.  
      /|                                 |  
     / |                                 |  
    /  |                                 |  
   /   |                                 |  
  /    |                                 |  
 *     |                                 |  
 |     |                                 |  
 |     |                                 |  
 |     |                                 |  
 |     |  Li      Li       Li      Li    |  
 |     |         Li                      |  
 |  Li |   LiLi     LLi     LLi      Li  |  
 |     |                                 |  
 |    Li      Li      Li       Li        |  
 |     |Li       Li      Li       Li     |  
 |     |                                 |  
 |     |  LLi     LiLi     LLi     LLi   |  
 |     |                                 |  
 |  Li |    Li       Li       Li         |  
 |     Li      Li       Li      Li       |  
 Li   Li      Li       Li Li   Li        |  
 |     |LLi      LLi     Li       Li     |  
 |     |                                 |  
 |Li   |  LLi     LLi      LLi     Li    |  
 |  LLi|     LLi     LLi      LLi        |  
 |     |                                 |  
 |    LLi     LLi      LLi     LLi       |  
 Li    |LLi      LLi     LiLi     Li     |  
 |     |                                 |  
 |Li   |   Li      Li       Li           |  
 |   Li|      Li      Li       Li        |  
 |     |                                 |  
 |     |                                 |  
 |     |                                 |  
 |     .---------------------------------.  
 |    /                                 /   
 |   /                                 /    
 |  /                                 /     
 | /                                 /      
 |/                                 /       
 *---------------------------------*        

Atomic positions and initial magnetic moments

Positions:
   0 Li     0.000000    2.467803    8.000000    ( 0.0000,  0.0000,  0.0000)
   1 Li     3.490000    2.467803    8.000000    ( 0.0000,  0.0000,  0.0000)
   2 Li     6.980000    2.467803    8.000000    ( 0.0000,  0.0000,  0.0000)
   3 Li    10.470000    2.467803    8.000000    ( 0.0000,  0.0000,  0.0000)
   4 Li     1.745000    4.935605    8.000000    ( 0.0000,  0.0000,  0.0000)
   5 Li     5.235000    4.935605    8.000000    ( 0.0000,  0.0000,  0.0000)
   6 Li     8.725000    4.935605    8.000000    ( 0.0000,  0.0000,  0.0000)
   7 Li    12.215000    4.935605    8.000000    ( 0.0000,  0.0000,  0.0000)
   8 Li     0.000000    7.403408    8.000000    ( 0.0000,  0.0000,  0.0000)
   9 Li     3.490000    7.403408    8.000000    ( 0.0000,  0.0000,  0.0000)
  10 Li     6.980000    7.403408    8.000000    ( 0.0000,  0.0000,  0.0000)
  11 Li    10.470000    7.403408    8.000000    ( 0.0000,  0.0000,  0.0000)
  12 Li     1.745000    9.871211    8.000000    ( 0.0000,  0.0000,  0.0000)
  13 Li     5.235000    9.871211    8.000000    ( 0.0000,  0.0000,  0.0000)
  14 Li     8.725000    9.871211    8.000000    ( 0.0000,  0.0000,  0.0000)
  15 Li    12.215000    9.871211    8.000000    ( 0.0000,  0.0000,  0.0000)
  16 Li     0.000000    0.000000   10.467803    ( 0.0000,  0.0000,  0.0000)
  17 Li     3.490000    0.000000   10.467803    ( 0.0000,  0.0000,  0.0000)
  18 Li     6.980000    0.000000   10.467803    ( 0.0000,  0.0000,  0.0000)
  19 Li    10.470000    0.000000   10.467803    ( 0.0000,  0.0000,  0.0000)
  20 Li     1.745000    2.467803   10.467803    ( 0.0000,  0.0000,  0.0000)
  21 Li     5.235000    2.467803   10.467803    ( 0.0000,  0.0000,  0.0000)
  22 Li     8.725000    2.467803   10.467803    ( 0.0000,  0.0000,  0.0000)
  23 Li    12.215000    2.467803   10.467803    ( 0.0000,  0.0000,  0.0000)
  24 Li     0.000000    4.935605   10.467803    ( 0.0000,  0.0000,  0.0000)
  25 Li     3.490000    4.935605   10.467803    ( 0.0000,  0.0000,  0.0000)
  26 Li     6.980000    4.935605   10.467803    ( 0.0000,  0.0000,  0.0000)
  27 Li    10.470000    4.935605   10.467803    ( 0.0000,  0.0000,  0.0000)
  28 Li     1.745000    7.403408   10.467803    ( 0.0000,  0.0000,  0.0000)
  29 Li     5.235000    7.403408   10.467803    ( 0.0000,  0.0000,  0.0000)
  30 Li     8.725000    7.403408   10.467803    ( 0.0000,  0.0000,  0.0000)
  31 Li    12.215000    7.403408   10.467803    ( 0.0000,  0.0000,  0.0000)
  32 Li     0.000000    2.467803   12.935605    ( 0.0000,  0.0000,  0.0000)
  33 Li     3.490000    2.467803   12.935605    ( 0.0000,  0.0000,  0.0000)
  34 Li     6.980000    2.467803   12.935605    ( 0.0000,  0.0000,  0.0000)
  35 Li    10.470000    2.467803   12.935605    ( 0.0000,  0.0000,  0.0000)
  36 Li     1.745000    4.935605   12.935605    ( 0.0000,  0.0000,  0.0000)
  37 Li     5.235000    4.935605   12.935605    ( 0.0000,  0.0000,  0.0000)
  38 Li     8.725000    4.935605   12.935605    ( 0.0000,  0.0000,  0.0000)
  39 Li    12.215000    4.935605   12.935605    ( 0.0000,  0.0000,  0.0000)
  40 Li     0.000000    7.403408   12.935605    ( 0.0000,  0.0000,  0.0000)
  41 Li     3.490000    7.403408   12.935605    ( 0.0000,  0.0000,  0.0000)
  42 Li     6.980000    7.403408   12.935605    ( 0.0000,  0.0000,  0.0000)
  43 Li    10.470000    7.403408   12.935605    ( 0.0000,  0.0000,  0.0000)
  44 Li     1.745000    9.871211   12.935605    ( 0.0000,  0.0000,  0.0000)
  45 Li     5.235000    9.871211   12.935605    ( 0.0000,  0.0000,  0.0000)
  46 Li     8.725000    9.871211   12.935605    ( 0.0000,  0.0000,  0.0000)
  47 Li    12.215000    9.871211   12.935605    ( 0.0000,  0.0000,  0.0000)
  48 Li     0.007416    0.005149   15.792720    ( 0.0000,  0.0000,  0.0000)
  49 Li     3.484294    0.003929   15.758359    ( 0.0000,  0.0000,  0.0000)
  50 Li     6.984456    0.003906   15.757289    ( 0.0000,  0.0000,  0.0000)
  51 Li    10.452929    0.002694   15.811909    ( 0.0000,  0.0000,  0.0000)
  52 Li     1.737251    2.456419   15.728669    ( 0.0000,  0.0000,  0.0000)
  53 Li     5.229203    2.448793   15.679140    ( 0.0000,  0.0000,  0.0000)
  54 Li     8.737221    2.450917   15.721649    ( 0.0000,  0.0000,  0.0000)
  55 Li    12.208128    2.452179   15.748457    ( 0.0000,  0.0000,  0.0000)
  56 Li     0.004306    4.937610   15.628110    ( 0.0000,  0.0000,  0.0000)
  57 Li     3.475536    4.931871   15.608560    ( 0.0000,  0.0000,  0.0000)
  58 Li     6.983153    4.930541   15.599771    ( 0.0000,  0.0000,  0.0000)
  59 Li    10.474422    4.939751   15.603327    ( 0.0000,  0.0000,  0.0000)
  60 Li     1.742012    7.402721   15.645255    ( 0.0000,  0.0000,  0.0000)
  61 Li     5.229774    7.407332   15.610994    ( 0.0000,  0.0000,  0.0000)
  62 Li     8.731168    7.404809   15.630282    ( 0.0000,  0.0000,  0.0000)
  63 Li    12.206930    7.400492   15.669919    ( 0.0000,  0.0000,  0.0000)
  64 Li    -0.005862    2.489256   18.498928    ( 0.0000,  0.0000,  0.0000)
  65 Li     3.490707    2.518758   18.459855    ( 0.0000,  0.0000,  0.0000)
  66 Li     6.971400    2.507092   18.427534    ( 0.0000,  0.0000,  0.0000)
  67 Li    10.461123    2.496201   18.537931    ( 0.0000,  0.0000,  0.0000)
  68 Li     1.748431    4.978092   18.315104    ( 0.0000,  0.0000,  0.0000)
  69 Li     5.233208    4.936958   18.270844    ( 0.0000,  0.0000,  0.0000)
  70 Li     8.744665    4.967586   18.235637    ( 0.0000,  0.0000,  0.0000)
  71 Li    12.209062    4.984139   18.295386    ( 0.0000,  0.0000,  0.0000)
  72 Li     0.013203    7.381963   18.367034    ( 0.0000,  0.0000,  0.0000)
  73 Li     3.501063    7.352544   18.319824    ( 0.0000,  0.0000,  0.0000)
  74 Li     6.981324    7.361067   18.302271    ( 0.0000,  0.0000,  0.0000)
  75 Li    10.429284    7.374032   18.401453    ( 0.0000,  0.0000,  0.0000)
  76 Li     1.791706    9.860756   18.595505    ( 0.0000,  0.0000,  0.0000)
  77 Li     5.225962    9.843048   18.524058    ( 0.0000,  0.0000,  0.0000)
  78 Li     8.671162    9.856155   18.629038    ( 0.0000,  0.0000,  0.0000)
  79 Li    12.208641    9.843625   18.561723    ( 0.0000,  0.0000,  0.0000)
  80 Li     0.024596    4.797459   20.920555    ( 0.0000,  0.0000,  0.0000)
  81 Li     3.566419    4.772565   20.968005    ( 0.0000,  0.0000,  0.0000)
  82 Li     7.070811    4.814166   20.763538    ( 0.0000,  0.0000,  0.0000)
  83 Li    10.420769    4.822882   20.952039    ( 0.0000,  0.0000,  0.0000)
  84 Li     1.808310    7.606128   20.990920    ( 0.0000,  0.0000,  0.0000)
  85 Li     5.250819    7.624730   20.961021    ( 0.0000,  0.0000,  0.0000)
  86 Li     8.617796    7.590366   21.081262    ( 0.0000,  0.0000,  0.0000)
  87 Li    12.213775    7.621289   20.994802    ( 0.0000,  0.0000,  0.0000)
  88 Li     5.685838    3.682379   22.373106    ( 0.0000,  0.0000,  0.0000)

Unit cell:
           periodic     x           y           z      points  spacing
  1. axis:    yes   13.960000    0.000000    0.000000    68     0.2053
  2. axis:    yes    0.000000    9.871211    0.000000    48     0.2057
  3. axis:    no     0.000000    0.000000   28.339013   140     0.2024

  Lengths:  13.960000   9.871211  28.339013
  Angles:   90.000000  90.000000  90.000000

Effective grid spacing dv^(1/3) = 0.2045

     iter     time        total  log10-change:
                         energy   eigst   dens
iter:   1 20:27:01  -142.861372        c
iter:   2 20:27:04  -142.855537        c -2.28
iter:   3 20:27:06  -142.856943c       c -2.21
iter:   4 20:27:09  -142.855061c       c -2.59
iter:   5 20:27:12  -142.855070c       c -2.98
iter:   6 20:27:15  -142.854942c       c -3.20
iter:   7 20:27:18  -142.854905c       c -3.33
iter:   8 20:27:21  -142.854854c       c -3.43
iter:   9 20:27:23  -142.854950c       c -3.58
iter:  10 20:27:26  -142.854849c       c -3.67
iter:  11 20:27:29  -142.854915c       c -3.76
iter:  12 20:27:32  -142.854893c       c -3.90
iter:  13 20:27:35  -142.854885c       c -4.06c

Converged after 13 iterations.

Dipole moment: (-10.511417, -12.794681, 0.946856) |e|*Ang

Energy contributions relative to reference atoms: (reference = -18048.116001)

Kinetic:       +233.633899
Potential:     -197.799280
External:        +0.000000
XC:            -177.331811
Entropy (-ST):   -1.624286
Local:           -0.545550
SIC:             +0.000000
--------------------------
Free energy:   -143.667028
Extrapolated:  -142.854885

Showing all kpts
 Kpt  Band  Eigenvalues  Occupancy
  0    42     -2.72572    1.24329
  0    43     -2.65580    0.89901
  0    44     -2.63308    0.78830
  0    45     -2.61414    0.69989

  1    42     -2.72074    1.21972
  1    43     -2.66107    0.92513
  1    44     -2.63211    0.78367
  1    45     -2.61504    0.70395


Fermi level: -2.67607

Gap: 0.060 eV
Transition (v -> c):
  (s=0, k=1, n=42, [0.25, 0.25, 0.00]) -> (s=0, k=1, n=43, [0.25, 0.25, 0.00])
No difference between direct/indirect transitions

Forces in eV/Ang:
  0 Li   -0.00003   -0.00114   -0.17158
  1 Li    0.00031   -0.00450   -0.17370
  2 Li   -0.00022   -0.00557   -0.17383
  3 Li   -0.00026   -0.00187   -0.17291
  4 Li    0.00037   -0.00487   -0.16559
  5 Li   -0.00071   -0.00293   -0.16628
  6 Li    0.00068   -0.00417   -0.16536
  7 Li   -0.00054   -0.00825   -0.16579
  8 Li    0.00392    0.00174   -0.16338
  9 Li    0.00059    0.00426   -0.16688
 10 Li   -0.00022    0.00478   -0.16719
 11 Li   -0.00419    0.00264   -0.16330
 12 Li    0.00320    0.00414   -0.17024
 13 Li    0.00014    0.00403   -0.17235
 14 Li   -0.00207    0.00385   -0.17090
 15 Li   -0.00100    0.00775   -0.17040
 16 Li    0.00020   -0.00162   -0.09129
 17 Li   -0.00062   -0.00038   -0.09569
 18 Li    0.00112   -0.00069   -0.09357
 19 Li   -0.00049   -0.00085   -0.09826
 20 Li   -0.00006   -0.00037   -0.08968
 21 Li   -0.00014    0.00129   -0.09077
 22 Li   -0.00029   -0.00041   -0.09018
 23 Li    0.00028    0.00201   -0.08733
 24 Li   -0.00082   -0.00420   -0.09017
 25 Li   -0.00056   -0.00289   -0.08524
 26 Li    0.00080   -0.00353   -0.08324
 27 Li    0.00055   -0.00368   -0.08561
 28 Li    0.00078    0.00334   -0.08643
 29 Li    0.00005    0.00351   -0.08255
 30 Li   -0.00112    0.00334   -0.08372
 31 Li    0.00021    0.00493   -0.08953
 32 Li   -0.00251   -0.00191    0.29187
 33 Li   -0.01031   -0.01246    0.26889
 34 Li    0.00835   -0.01623    0.27124
 35 Li    0.00281   -0.00983    0.28357
 36 Li   -0.00448   -0.01044    0.20708
 37 Li   -0.00509   -0.00956    0.20299
 38 Li    0.00240   -0.01055    0.20615
 39 Li    0.00790   -0.01071    0.21951
 40 Li   -0.00503    0.01186    0.24540
 41 Li   -0.01423    0.01449    0.22163
 42 Li    0.00886    0.01440    0.22394
 43 Li    0.00800    0.01941    0.22953
 44 Li    0.00076    0.00265    0.30562
 45 Li    0.00057    0.01010    0.27885
 46 Li    0.00609    0.00526    0.30228
 47 Li   -0.00808   -0.00039    0.33819
 48 Li   -0.00235   -0.00215   -0.00052
 49 Li    0.00270    0.00238    0.02033
 50 Li   -0.00207   -0.00014    0.02014
 51 Li    0.00364   -0.00428    0.00471
 52 Li    0.00539   -0.00404    0.00814
 53 Li   -0.00129   -0.00454    0.02638
 54 Li   -0.00402   -0.00027    0.00280
 55 Li   -0.00336    0.00328    0.00022
 56 Li   -0.00623    0.00312   -0.00389
 57 Li    0.00912   -0.00178    0.00994
 58 Li   -0.01126   -0.00424    0.01585
 59 Li    0.01122   -0.00115   -0.00216
 60 Li   -0.00740    0.00650   -0.00935
 61 Li    0.00173    0.00663    0.00130
 62 Li    0.00745    0.00987   -0.01227
 63 Li   -0.00230    0.00530   -0.00113
 64 Li    0.00190    0.01128   -0.00115
 65 Li    0.01586   -0.01160    0.08113
 66 Li   -0.01663   -0.01361    0.10741
 67 Li   -0.00486    0.01285    0.00380
 68 Li   -0.01465    0.00718   -0.02460
 69 Li   -0.01039    0.02717    0.01296
 70 Li    0.04439    0.00431   -0.06092
 71 Li    0.00118   -0.00280    0.01243
 72 Li   -0.00146    0.00096    0.00494
 73 Li   -0.00908    0.01859   -0.01986
 74 Li    0.00687    0.03390   -0.02839
 75 Li   -0.00544    0.00111    0.01729
 76 Li   -0.03501   -0.01521   -0.02033
 77 Li    0.00260    0.00522    0.03064
 78 Li    0.02612   -0.01500   -0.00438
 79 Li    0.00609    0.00554   -0.01694
 80 Li   -0.01669   -0.01497    0.01477
 81 Li   -0.27107    0.17586   -0.21815
 82 Li    0.40492    0.45863   -0.53719
 83 Li    0.02581   -0.03996    0.01632
 84 Li   -0.04040   -0.00460   -0.01067
 85 Li    0.00517   -0.15158    0.09018
 86 Li    0.07140    0.02143   -0.03622
 87 Li   -0.00375    0.00137    0.00099
 88 Li   -0.17908   -0.53293    0.52816

System changes: positions 

Initializing position-dependent things.

Density initialized from wave functions
       .---------------------------------.  
      /|                                 |  
     / |                                 |  
    /  |                                 |  
   /   |                                 |  
  /    |                                 |  
 *     |                                 |  
 |     |                                 |  
 |     |                                 |  
 |     |                                 |  
 |     |  Li      Li       Li      Li    |  
 |     |         Li                      |  
 |  Li |   LiLi     LLi     LLi      Li  |  
 |     |                                 |  
 |    Li      Li      Li       Li        |  
 |     |Li       Li      Li       Li     |  
 |     |                                 |  
 |     |  LLi     LLi      LLi     LLi   |  
 |     |                                 |  
 |  Li |    Li       Li       Li         |  
 |     Li      Li       Li      Li       |  
 Li   Li      Li       Li Li   Li        |  
 |     |LLi      LLi     Li       Li     |  
 |     |                                 |  
 |Li   |  LLi     LLi      LLi     Li    |  
 |  LLi|     LLi     LLi      LLi        |  
 |     |                                 |  
 |    LLi     LLi      LLi     LLi       |  
 Li    |LLi      LLi     LiLi     Li     |  
 |     |                                 |  
 |Li   |   Li      Li       Li           |  
 |   Li|      Li      Li       Li        |  
 |     |                                 |  
 |     |                                 |  
 |     |                                 |  
 |     .---------------------------------.  
 |    /                                 /   
 |   /                                 /    
 |  /                                 /     
 | /                                 /      
 |/                                 /       
 *---------------------------------*        

Atomic positions and initial magnetic moments

Positions:
   0 Li     0.000000    2.467803    8.000000    ( 0.0000,  0.0000,  0.0000)
   1 Li     3.490000    2.467803    8.000000    ( 0.0000,  0.0000,  0.0000)
   2 Li     6.980000    2.467803    8.000000    ( 0.0000,  0.0000,  0.0000)
   3 Li    10.470000    2.467803    8.000000    ( 0.0000,  0.0000,  0.0000)
   4 Li     1.745000    4.935605    8.000000    ( 0.0000,  0.0000,  0.0000)
   5 Li     5.235000    4.935605    8.000000    ( 0.0000,  0.0000,  0.0000)
   6 Li     8.725000    4.935605    8.000000    ( 0.0000,  0.0000,  0.0000)
   7 Li    12.215000    4.935605    8.000000    ( 0.0000,  0.0000,  0.0000)
   8 Li     0.000000    7.403408    8.000000    ( 0.0000,  0.0000,  0.0000)
   9 Li     3.490000    7.403408    8.000000    ( 0.0000,  0.0000,  0.0000)
  10 Li     6.980000    7.403408    8.000000    ( 0.0000,  0.0000,  0.0000)
[...]
  42 Li     6.980000    7.403408   12.935605    ( 0.0000,  0.0000,  0.0000)
  43 Li    10.470000    7.403408   12.935605    ( 0.0000,  0.0000,  0.0000)
  44 Li     1.745000    9.871211   12.935605    ( 0.0000,  0.0000,  0.0000)
  45 Li     5.235000    9.871211   12.935605    ( 0.0000,  0.0000,  0.0000)
  46 Li     8.725000    9.871211   12.935605    ( 0.0000,  0.0000,  0.0000)
  47 Li    12.215000    9.871211   12.935605    ( 0.0000,  0.0000,  0.0000)
  48 Li     0.005987    0.004689   15.786985    ( 0.0000,  0.0000,  0.0000)
  49 Li     3.489603    0.003806   15.781961    ( 0.0000,  0.0000,  0.0000)
  50 Li     6.979935    0.005881   15.780379    ( 0.0000,  0.0000,  0.0000)
  51 Li    10.454047   -0.000230   15.813748    ( 0.0000,  0.0000,  0.0000)
  52 Li     1.741432    2.452993   15.735854    ( 0.0000,  0.0000,  0.0000)
  53 Li     5.228621    2.445116   15.707430    ( 0.0000,  0.0000,  0.0000)
  54 Li     8.732487    2.447099   15.726085    ( 0.0000,  0.0000,  0.0000)
  55 Li    12.205268    2.453295   15.750684    ( 0.0000,  0.0000,  0.0000)
  56 Li    -0.002316    4.939000   15.624332    ( 0.0000,  0.0000,  0.0000)
  57 Li     3.476562    4.930702   15.612707    ( 0.0000,  0.0000,  0.0000)
  58 Li     6.975903    4.928216   15.611447    ( 0.0000,  0.0000,  0.0000)
  59 Li    10.491196    4.939127   15.588710    ( 0.0000,  0.0000,  0.0000)
  60 Li     1.736218    7.407402   15.638466    ( 0.0000,  0.0000,  0.0000)
  61 Li     5.229159    7.413401   15.603462    ( 0.0000,  0.0000,  0.0000)
  62 Li     8.738579    7.411895   15.617948    ( 0.0000,  0.0000,  0.0000)
  63 Li    12.203345    7.402180   15.676752    ( 0.0000,  0.0000,  0.0000)
  64 Li    -0.001947    2.498485   18.500118    ( 0.0000,  0.0000,  0.0000)
  65 Li     3.488535    2.499997   18.509561    ( 0.0000,  0.0000,  0.0000)
  66 Li     6.967994    2.493403   18.499863    ( 0.0000,  0.0000,  0.0000)
  67 Li    10.454526    2.503689   18.544819    ( 0.0000,  0.0000,  0.0000)
  68 Li     1.731278    4.981751   18.281913    ( 0.0000,  0.0000,  0.0000)
  69 Li     5.219419    4.961921   18.240088    ( 0.0000,  0.0000,  0.0000)
  70 Li     8.802977    4.964271   18.126961    ( 0.0000,  0.0000,  0.0000)
  71 Li    12.209644    4.979740   18.308086    ( 0.0000,  0.0000,  0.0000)
  72 Li     0.008538    7.373437   18.373481    ( 0.0000,  0.0000,  0.0000)
  73 Li     3.498691    7.371506   18.310358    ( 0.0000,  0.0000,  0.0000)
  74 Li     6.983206    7.402405   18.268819    ( 0.0000,  0.0000,  0.0000)
  75 Li    10.420108    7.360409   18.425771    ( 0.0000,  0.0000,  0.0000)
  76 Li     1.756861    9.850902   18.579633    ( 0.0000,  0.0000,  0.0000)
  77 Li     5.224637    9.827614   18.578975    ( 0.0000,  0.0000,  0.0000)
  78 Li     8.701582    9.847695   18.626165    ( 0.0000,  0.0000,  0.0000)
  79 Li    12.210321    9.846211   18.545683    ( 0.0000,  0.0000,  0.0000)
  80 Li     0.005241    4.779464   20.936199    ( 0.0000,  0.0000,  0.0000)
  81 Li     3.468600    4.835591   20.871300    ( 0.0000,  0.0000,  0.0000)
  82 Li     7.197642    4.989467   20.570498    ( 0.0000,  0.0000,  0.0000)
  83 Li    10.457833    4.788556   20.968728    ( 0.0000,  0.0000,  0.0000)
  84 Li     1.776129    7.605752   20.987930    ( 0.0000,  0.0000,  0.0000)
  85 Li     5.256246    7.483658   21.036217    ( 0.0000,  0.0000,  0.0000)
  86 Li     8.684137    7.636066   21.075237    ( 0.0000,  0.0000,  0.0000)
  87 Li    12.212054    7.625379   20.999098    ( 0.0000,  0.0000,  0.0000)
  88 Li     5.653199    3.635660   22.725101    ( 0.0000,  0.0000,  0.0000)

Unit cell:
           periodic     x           y           z      points  spacing
  1. axis:    yes   13.960000    0.000000    0.000000    68     0.2053
  2. axis:    yes    0.000000    9.871211    0.000000    48     0.2057
  3. axis:    no     0.000000    0.000000   28.339013   140     0.2024

  Lengths:  13.960000   9.871211  28.339013
  Angles:   90.000000  90.000000  90.000000

Effective grid spacing dv^(1/3) = 0.2045

     iter     time        total  log10-change:
                         energy   eigst   dens
iter:   1 20:52:36  -143.088584        c
iter:   2 20:52:38  -143.092050        c -2.68
iter:   3 20:52:41  -143.088993c       c -2.48
iter:   4 20:52:44  -143.089216c       c -3.11
iter:   5 20:52:46  -143.089148c       c -3.41
iter:   6 20:52:49  -143.089159c       c -3.59
iter:   7 20:52:52  -143.089166c       c -3.79
iter:   8 20:52:54  -143.089127c       c -3.87
iter:   9 20:52:57  -143.089176c       c -4.07c

Converged after 9 iterations.

Dipole moment: (-10.111702, -12.439287, 1.128931) |e|*Ang

Energy contributions relative to reference atoms: (reference = -18048.116001)

Kinetic:       +231.902927
Potential:     -196.693586
External:        +0.000000
XC:            -176.940852
Entropy (-ST):   -1.620473
Local:           -0.547427
SIC:             +0.000000
--------------------------
Free energy:   -143.899412
Extrapolated:  -143.089176

Showing all kpts
 Kpt  Band  Eigenvalues  Occupancy
  0    42     -2.67710    1.25545
  0    43     -2.60806    0.91626
  0    44     -2.57719    0.76609
  0    45     -2.56584    0.71323

  1    42     -2.67170    1.23005
  1    43     -2.60761    0.91401
  1    44     -2.58154    0.78678
  1    45     -2.56726    0.71976


Fermi level: -2.62485

Gap: 0.064 eV
Transition (v -> c):
  (s=0, k=1, n=42, [0.25, 0.25, 0.00]) -> (s=0, k=0, n=43, [0.25, -0.25, 0.00])
Direct/indirect transitions are different
Direct gap: 0.064 eV
Transition at: (s=0, k=1, n=42, [0.25, 0.25, 0.00])

Forces in eV/Ang:
  0 Li   -0.00070   -0.00093   -0.17158
  1 Li    0.00072   -0.00415   -0.17461
  2 Li   -0.00040   -0.00522   -0.17440
  3 Li    0.00022   -0.00198   -0.17362
  4 Li    0.00076   -0.00461   -0.16661
  5 Li   -0.00063   -0.00268   -0.16773
  6 Li    0.00006   -0.00398   -0.16575
  7 Li   -0.00057   -0.00893   -0.16541
  8 Li    0.00429    0.00152   -0.16369
  9 Li    0.00094    0.00396   -0.16691
 10 Li   -0.00039    0.00432   -0.16769
 11 Li   -0.00470    0.00256   -0.16360
 12 Li    0.00337    0.00396   -0.16996
 13 Li    0.00008    0.00396   -0.17290
 14 Li   -0.00184    0.00366   -0.17089
 15 Li   -0.00126    0.00840   -0.17167
 16 Li    0.00021   -0.00136   -0.09030
 17 Li   -0.00031   -0.00041   -0.09656
 18 Li    0.00099   -0.00064   -0.09467
 19 Li   -0.00048   -0.00089   -0.09842
 20 Li    0.00035   -0.00046   -0.08757
 21 Li    0.00025    0.00198   -0.09201
 22 Li   -0.00118    0.00009   -0.08766
 23 Li    0.00040    0.00169   -0.08684
 24 Li   -0.00022   -0.00425   -0.09077
 25 Li    0.00036   -0.00305   -0.08448
 26 Li    0.00012   -0.00401   -0.08279
 27 Li   -0.00048   -0.00409   -0.08404
 28 Li    0.00034    0.00341   -0.08424
 29 Li   -0.00017    0.00357   -0.07951
 30 Li   -0.00094    0.00313   -0.08160
 31 Li    0.00066    0.00516   -0.09141
 32 Li   -0.00466   -0.00023    0.29438
 33 Li   -0.00372   -0.01525    0.28272
 34 Li    0.00094   -0.01820    0.28277
 35 Li    0.00439   -0.01228    0.28376
 36 Li   -0.00503   -0.00998    0.21009
 37 Li   -0.00550   -0.01218    0.21156
 38 Li   -0.00087   -0.01012    0.21685
 39 Li    0.01370   -0.00923    0.20471
 40 Li   -0.01219    0.01086    0.24525
 41 Li   -0.01622    0.01467    0.21824
 42 Li    0.00911    0.01405    0.22048
 43 Li    0.01561    0.02018    0.22066
 44 Li    0.00820    0.00326    0.31056
 45 Li    0.00126    0.01612    0.29166
 46 Li    0.00080    0.00706    0.30842
 47 Li   -0.00995   -0.00199    0.34018
 48 Li   -0.00266    0.00314   -0.00923
 49 Li    0.00305   -0.00120    0.00910
 50 Li   -0.00239    0.00479    0.00866
 51 Li    0.00133    0.00044   -0.00382
 52 Li    0.00122   -0.00019    0.00560
 53 Li    0.00174   -0.00201    0.03188
 54 Li   -0.00439   -0.00348    0.00513
 55 Li   -0.00230    0.00087    0.00893
 56 Li   -0.00605   -0.00049   -0.01669
 57 Li   -0.00405    0.00127   -0.00967
 58 Li   -0.00566    0.00152   -0.01153
 59 Li    0.02313   -0.00067   -0.04054
 60 Li   -0.00192    0.00286   -0.00720
 61 Li   -0.00281    0.00669   -0.01396
 62 Li    0.00474    0.00473   -0.01714
 63 Li   -0.00449   -0.00086    0.00986
 64 Li   -0.00233    0.00589    0.01027
 65 Li   -0.01087   -0.00770    0.02488
 66 Li    0.00642    0.00878    0.05007
 67 Li    0.00648   -0.00242    0.00737
 68 Li   -0.01000    0.00275   -0.02837
 69 Li   -0.00008    0.01180   -0.04020
 70 Li    0.00065   -0.00533   -0.04260
 71 Li    0.00480   -0.00328   -0.00229
 72 Li   -0.00776   -0.00333   -0.00329
 73 Li   -0.00367    0.00985    0.00961
 74 Li    0.00857    0.00619   -0.00112
 75 Li    0.00308   -0.00477    0.00563
 76 Li   -0.02320    0.00270   -0.01980
 77 Li   -0.00238   -0.01367    0.04732
 78 Li    0.02296    0.01445   -0.02084
 79 Li   -0.00436   -0.00144    0.00507
 80 Li   -0.00401   -0.00470    0.00286
 81 Li    0.04359   -0.01822    0.00486
 82 Li   -0.09584   -0.03720    0.10180
 83 Li    0.01012   -0.00819   -0.01078
 84 Li   -0.02093    0.02317   -0.00593
 85 Li    0.00680   -0.06013    0.04119
 86 Li    0.05000    0.06861   -0.01008
 87 Li    0.00422    0.00191    0.00289
 88 Li    0.02299    0.00026   -0.10983

System changes: positions 

Initializing position-dependent things.

Density initialized from wave functions
       .---------------------------------.  
      /|                                 |  
     / |                                 |  
    /  |                                 |  
   /   |                                 |  
  /    |                                 |  
 *     |                                 |  
 |     |                                 |  
 |     |                                 |  
 |     |                                 |  
 |     |  Li      Li       Li      Li    |  
 |     |         Li                      |  
 |  Li |   LLi      Li      LLi      Li  |  
 |     |              Li                 |  
 |    Li      Li       Li      Li        |  
 |     |Li       Li             LiLi     |  
 |     |                 Li              |  
 |     |  LLi     LLi      LLi     LiLi  |  
 |     |                                 |  
 |     |    Li       Li       Li      Li |  
 |     Li      Li       Li      Li       |  
 |    Li      Li       Li      Li        |  
 Li    |LiLi     LLi     Li       Li     |  
 |     |                                 |  
 |Li   |  LLi     LLi      LLi     Li    |  
 |  LLi|     LLi     LLi      LLi        |  
 |     |                                 |  
 |    LLi     LLi      LLi     LLi       |  
 Li    |LLi      LLi     LiLi     Li     |  
 |     |                                 |  
 |Li   |   Li      Li       Li           |  
 |   Li|      Li      Li       Li        |  
 |     |                                 |  
 |     |                                 |  
 |     |                                 |  
 |     .---------------------------------.  
 |    /                                 /   
 |   /                                 /    
 |  /                                 /     
 | /                                 /      
 |/                                 /       
 *---------------------------------*        

Atomic positions and initial magnetic moments

Positions:
   0 Li     0.000000    2.467803    8.000000    ( 0.0000,  0.0000,  0.0000)
   1 Li     3.490000    2.467803    8.000000    ( 0.0000,  0.0000,  0.0000)
   2 Li     6.980000    2.467803    8.000000    ( 0.0000,  0.0000,  0.0000)
   3 Li    10.470000    2.467803    8.000000    ( 0.0000,  0.0000,  0.0000)
   4 Li     1.745000    4.935605    8.000000    ( 0.0000,  0.0000,  0.0000)
   5 Li     5.235000    4.935605    8.000000    ( 0.0000,  0.0000,  0.0000)
   6 Li     8.725000    4.935605    8.000000    ( 0.0000,  0.0000,  0.0000)
   7 Li    12.215000    4.935605    8.000000    ( 0.0000,  0.0000,  0.0000)
   8 Li     0.000000    7.403408    8.000000    ( 0.0000,  0.0000,  0.0000)
   9 Li     3.490000    7.403408    8.000000    ( 0.0000,  0.0000,  0.0000)
  10 Li     6.980000    7.403408    8.000000    ( 0.0000,  0.0000,  0.0000)
  11 Li    10.470000    7.403408    8.000000    ( 0.0000,  0.0000,  0.0000)
  12 Li     1.745000    9.871211    8.000000    ( 0.0000,  0.0000,  0.0000)
  13 Li     5.235000    9.871211    8.000000    ( 0.0000,  0.0000,  0.0000)
  14 Li     8.725000    9.871211    8.000000    ( 0.0000,  0.0000,  0.0000)
  15 Li    12.215000    9.871211    8.000000    ( 0.0000,  0.0000,  0.0000)
  16 Li     0.000000    0.000000   10.467803    ( 0.0000,  0.0000,  0.0000)
  17 Li     3.490000    0.000000   10.467803    ( 0.0000,  0.0000,  0.0000)
  18 Li     6.980000    0.000000   10.467803    ( 0.0000,  0.0000,  0.0000)
  19 Li    10.470000    0.000000   10.467803    ( 0.0000,  0.0000,  0.0000)
  20 Li     1.745000    2.467803   10.467803    ( 0.0000,  0.0000,  0.0000)
  21 Li     5.235000    2.467803   10.467803    ( 0.0000,  0.0000,  0.0000)
  22 Li     8.725000    2.467803   10.467803    ( 0.0000,  0.0000,  0.0000)
  23 Li    12.215000    2.467803   10.467803    ( 0.0000,  0.0000,  0.0000)
  24 Li     0.000000    4.935605   10.467803    ( 0.0000,  0.0000,  0.0000)
  25 Li     3.490000    4.935605   10.467803    ( 0.0000,  0.0000,  0.0000)
  26 Li     6.980000    4.935605   10.467803    ( 0.0000,  0.0000,  0.0000)
  27 Li    10.470000    4.935605   10.467803    ( 0.0000,  0.0000,  0.0000)
  28 Li     1.745000    7.403408   10.467803    ( 0.0000,  0.0000,  0.0000)
  29 Li     5.235000    7.403408   10.467803    ( 0.0000,  0.0000,  0.0000)
  30 Li     8.725000    7.403408   10.467803    ( 0.0000,  0.0000,  0.0000)
  31 Li    12.215000    7.403408   10.467803    ( 0.0000,  0.0000,  0.0000)
  32 Li     0.000000    2.467803   12.935605    ( 0.0000,  0.0000,  0.0000)
  33 Li     3.490000    2.467803   12.935605    ( 0.0000,  0.0000,  0.0000)
  34 Li     6.980000    2.467803   12.935605    ( 0.0000,  0.0000,  0.0000)
  35 Li    10.470000    2.467803   12.935605    ( 0.0000,  0.0000,  0.0000)
  36 Li     1.745000    4.935605   12.935605    ( 0.0000,  0.0000,  0.0000)
  37 Li     5.235000    4.935605   12.935605    ( 0.0000,  0.0000,  0.0000)
  38 Li     8.725000    4.935605   12.935605    ( 0.0000,  0.0000,  0.0000)
  39 Li    12.215000    4.935605   12.935605    ( 0.0000,  0.0000,  0.0000)
  40 Li     0.000000    7.403408   12.935605    ( 0.0000,  0.0000,  0.0000)
  41 Li     3.490000    7.403408   12.935605    ( 0.0000,  0.0000,  0.0000)
  42 Li     6.980000    7.403408   12.935605    ( 0.0000,  0.0000,  0.0000)
  43 Li    10.470000    7.403408   12.935605    ( 0.0000,  0.0000,  0.0000)
  44 Li     1.745000    9.871211   12.935605    ( 0.0000,  0.0000,  0.0000)
  45 Li     5.235000    9.871211   12.935605    ( 0.0000,  0.0000,  0.0000)
  46 Li     8.725000    9.871211   12.935605    ( 0.0000,  0.0000,  0.0000)
  47 Li    12.215000    9.871211   12.935605    ( 0.0000,  0.0000,  0.0000)
  48 Li     0.005801    0.004948   15.786096    ( 0.0000,  0.0000,  0.0000)
  49 Li     3.489962    0.003619   15.783033    ( 0.0000,  0.0000,  0.0000)
  50 Li     6.979669    0.006338   15.781372    ( 0.0000,  0.0000,  0.0000)
  51 Li    10.454121   -0.000215   15.813473    ( 0.0000,  0.0000,  0.0000)
  52 Li     1.741589    2.452946   15.736392    ( 0.0000,  0.0000,  0.0000)
  53 Li     5.228751    2.444894   15.710384    ( 0.0000,  0.0000,  0.0000)
  54 Li     8.732017    2.446649   15.726632    ( 0.0000,  0.0000,  0.0000)
  55 Li    12.205075    2.453363   15.751346    ( 0.0000,  0.0000,  0.0000)
  56 Li    -0.002928    4.938968   15.623055    ( 0.0000,  0.0000,  0.0000)
  57 Li     3.476088    4.930770   15.612148    ( 0.0000,  0.0000,  0.0000)
  58 Li     6.975432    4.928318   15.611242    ( 0.0000,  0.0000,  0.0000)
  59 Li    10.493423    4.939105   15.585108    ( 0.0000,  0.0000,  0.0000)
  60 Li     1.736036    7.407657   15.637798    ( 0.0000,  0.0000,  0.0000)
  61 Li     5.228884    7.414071   15.602002    ( 0.0000,  0.0000,  0.0000)
  62 Li     8.739054    7.412319   15.616435    ( 0.0000,  0.0000,  0.0000)
  63 Li    12.202922    7.402030   15.677729    ( 0.0000,  0.0000,  0.0000)
  64 Li    -0.001875    2.499137   18.500993    ( 0.0000,  0.0000,  0.0000)
  65 Li     3.486898    2.498804   18.511272    ( 0.0000,  0.0000,  0.0000)
  66 Li     6.968994    2.493664   18.503800    ( 0.0000,  0.0000,  0.0000)
  67 Li    10.454660    2.503569   18.545591    ( 0.0000,  0.0000,  0.0000)
  68 Li     1.729658    4.981957   18.278305    ( 0.0000,  0.0000,  0.0000)
  69 Li     5.218777    4.963369   18.234905    ( 0.0000,  0.0000,  0.0000)
  70 Li     8.805877    4.963569   18.118347    ( 0.0000,  0.0000,  0.0000)
  71 Li    12.209976    4.979472   18.308241    ( 0.0000,  0.0000,  0.0000)
  72 Li     0.007814    7.372774   18.373361    ( 0.0000,  0.0000,  0.0000)
  73 Li     3.498597    7.372820   18.311025    ( 0.0000,  0.0000,  0.0000)
  74 Li     6.983549    7.404567   18.267336    ( 0.0000,  0.0000,  0.0000)
  75 Li    10.419900    7.359342   18.426910    ( 0.0000,  0.0000,  0.0000)
  76 Li     1.754675    9.851119   18.578065    ( 0.0000,  0.0000,  0.0000)
  77 Li     5.224280    9.825328   18.583566    ( 0.0000,  0.0000,  0.0000)
  78 Li     8.703878    9.848679   18.624743    ( 0.0000,  0.0000,  0.0000)
  79 Li    12.209959    9.846159   18.545797    ( 0.0000,  0.0000,  0.0000)
  80 Li     0.004221    4.778689   20.936794    ( 0.0000,  0.0000,  0.0000)
  81 Li     3.474999    4.832046   20.873316    ( 0.0000,  0.0000,  0.0000)
  82 Li     7.183907    4.981038   20.584892    ( 0.0000,  0.0000,  0.0000)
  83 Li    10.460296    4.787236   20.968405    ( 0.0000,  0.0000,  0.0000)
  84 Li     1.773869    7.607939   20.987663    ( 0.0000,  0.0000,  0.0000)
  85 Li     5.256847    7.476647   21.040258    ( 0.0000,  0.0000,  0.0000)
  86 Li     8.689503    7.643239   21.075272    ( 0.0000,  0.0000,  0.0000)
  87 Li    12.212309    7.625600   20.999422    ( 0.0000,  0.0000,  0.0000)
  88 Li     5.657956    3.647550   22.718701    ( 0.0000,  0.0000,  0.0000)

Unit cell:
           periodic     x           y           z      points  spacing
  1. axis:    yes   13.960000    0.000000    0.000000    68     0.2053
  2. axis:    yes    0.000000    9.871211    0.000000    48     0.2057
  3. axis:    no     0.000000    0.000000   28.339013   140     0.2024

  Lengths:  13.960000   9.871211  28.339013
  Angles:   90.000000  90.000000  90.000000

Effective grid spacing dv^(1/3) = 0.2045

     iter     time        total  log10-change:
                         energy   eigst   dens
iter:   1 20:54:02  -143.095357        c
iter:   2 20:54:05  -143.105282        c -2.37
iter:   3 20:54:07  -143.095805c       c -2.12
iter:   4 20:54:10  -143.095896c       c -3.13
iter:   5 20:54:13  -143.095841c       c -3.36
iter:   6 20:54:15  -143.095836c       c -3.54
iter:   7 20:54:18  -143.095851c       c -3.73
iter:   8 20:54:21  -143.095786c       c -3.80
iter:   9 20:54:23  -143.095883c       c -3.87
iter:  10 20:54:26  -143.095821c       c -3.87
iter:  11 20:54:29  -143.095819c       c -4.16c

Converged after 11 iterations.

Dipole moment: (-10.075920, -12.426405, 1.124274) |e|*Ang

Energy contributions relative to reference atoms: (reference = -18048.116001)

Kinetic:       +231.853588
Potential:     -196.659124
External:        +0.000000
XC:            -176.933146
Entropy (-ST):   -1.620282
Local:           -0.546996
SIC:             +0.000000
--------------------------
Free energy:   -143.905960
Extrapolated:  -143.095819

Showing all kpts
 Kpt  Band  Eigenvalues  Occupancy
  0    42     -2.67888    1.25790
  0    43     -2.60864    0.91284
  0    44     -2.57819    0.76486
  0    45     -2.56714    0.71342

  1    42     -2.67375    1.23378
  1    43     -2.60871    0.91322
  1    44     -2.58202    0.78306
  1    45     -2.56842    0.71928


Fermi level: -2.62611

Gap: 0.065 eV
Transition (v -> c):
  (s=0, k=1, n=42, [0.25, 0.25, 0.00]) -> (s=0, k=1, n=43, [0.25, 0.25, 0.00])
No difference between direct/indirect transitions
