
  ___ ___ ___ _ _ _  
 |   |   |_  | | | | 
 | | | | | . | | | | 
 |__ |  _|___|_____|  25.7.0
 |___|_|             

User:   tew@Mathuss-MacBook-Air-357.local
Date:   Tue Nov 25 22:02:49 2025
Arch:   arm64
Pid:    88448
CWD:    /Users/tew/Documents/Project/GitHub/chem-com
Python: 3.13.5
gpaw:   /Users/tew/Documents/Project/GitHub/chem-com/.venv/lib/python3.13/site-packages/gpaw
_gpaw:  /Users/tew/Documents/Project/GitHub/chem-com/.venv/lib/python3.13/site-packages/
        _gpaw.cpython-313-darwin.so
ase:    /Users/tew/Documents/Project/GitHub/chem-com/.venv/lib/python3.13/site-packages/ase (version 3.26.0)
numpy:  /Users/tew/Documents/Project/GitHub/chem-com/.venv/lib/python3.13/site-packages/numpy (version 2.3.5)
scipy:  /Users/tew/Documents/Project/GitHub/chem-com/.venv/lib/python3.13/site-packages/scipy (version 1.16.3)
libxc:  2.x.y
units:  Angstrom and eV
cores: 1
OpenMP: False
OMP_NUM_THREADS: 1

Input parameters:
  basis: dzp
  convergence: {density: 0.0001,
                eigenstates: 5e-06}
  kpts: [1 1 1]
  mode: {interpolation: 3,
         name: lcao}
  occupations: {fixmagmom: False,
                name: fermi-dirac,
                width: 0.15}
  xc: PBE

System changes: positions, numbers, cell, pbc, initial_charges, initial_magmoms 

Initialize ...

species:
  K:
    name: Potassium
    id: 04190408da443a44668134082ce1c192
    Z: 19.0
    valence: 9
    core: 10
    charge: 0.0
    file: /Users/tew/Documents/Project/GitHub/chem-com/.venv/lib/python3.13/site-packages/gpaw_data/setups/K.PBE.gz
    compensation charges: {type: gauss,
                           rc: 0.35,
                           lmax: 2}
    cutoffs: {filter: 1.91,
              core: 1.27}
    projectors:
      #              energy  rcut
      - 3s(2.00)   -35.338   1.122
      - 4s(1.00)    -2.319   1.122
      - 3p(6.00)   -18.813   1.106
      -  p           8.398   1.106
      -  d           0.000   0.937
  
    # LCAO basis set for K:
    #   Name: dzp
    #   File: /Users/tew/Documents/Project/GitHub/chem-com/.venv/lib/python3.13/site-packages/gpaw_data/setups/K.dzp.basis.gz
    #   Number of radial functions: 9
    #   Number of spherical harmonics: 19
    #     l=0, rc=4.2656 Bohr: 3s-sz confined orbital
    #     l=0, rc=13.1094 Bohr: 4s-sz confined orbital
    #     l=1, rc=5.0312 Bohr: 3p-sz confined orbital
    #     l=1, rc=16.0000 Bohr: 4p-sz confined orbital
    #     l=0, rc=2.3594 Bohr: 3s-dz split-valence wave
    #     l=0, rc=8.1719 Bohr: 4s-dz split-valence wave
    #     l=1, rc=2.8906 Bohr: 3p-dz split-valence wave
    #     l=1, rc=10.2812 Bohr: 4p-dz split-valence wave
    #     l=1, rc=13.1094 Bohr: p-type Gaussian polarization
    #   Number of RI-basis functions 0

Reference energy: -1195904.484944  # eV

Spin-paired calculation

Convergence criteria:
 Maximum [total energy] change in last 3 cyles: 0.0005 eV / valence electron
 Maximum integral of absolute [dens]ity change: 0.0001 electrons / valence electron
 Maximum integral of absolute [eigenst]ate change: 5e-06 eV^2 / valence electron
 Maximum number of scf [iter]ations: 333
 (Square brackets indicate name in SCF output, whereas a 'c' in
 the SCF output indicates the quantity has converged.)

Symmetries present (total): 1

  ( 1  0  0)
  ( 0  1  0)
  ( 0  0  1)

1 k-point (Gamma)
1 k-point in the irreducible part of the Brillouin zone
       k-points in crystal coordinates                weights
   0:     0.00000000    0.00000000    0.00000000          1/1

Wave functions: LCAO
  Diagonalizer: Serial LAPACK
  Atomic Correction: dense with blas
  Data-type: float
 

Occupation numbers: Fermi-Dirac:
  width: 0.1500  # eV
 

Eigensolver
   LCAO using direct dense diagonalizer 

Densities:
  Coarse grid: 112*80*156 grid
  Fine grid: 224*160*312 grid
  Total Charge: 0.000000 

Density mixing:
  Method: separate
  Backend: pulay
  Linear mixing parameter: 0.05
  old densities: 5
  Damping of long wavelength oscillations: 50 

Hamiltonian:
  XC and Coulomb potentials evaluated on a 224*160*312 grid
  Using the PBE Exchange-Correlation functional
  Interpolation: tri-quintic (5. degree polynomial)
  Poisson solver: FastPoissonSolver using
    Stencil: 6*3+1=19 point O(h^6) finite-difference Laplacian
    FFT axes: [np.int64(0), np.int64(1)]
    FST axes: [np.int64(2)]
 

XC parameters: PBE with 2 nearest neighbor stencil

Memory estimate:
  Process memory now: 1394.36 MiB
  Calculator: 2004.64 MiB
    Density: 627.85 MiB
      Arrays: 276.31 MiB
      Localized functions: 245.59 MiB
      Mixer: 105.96 MiB
    Hamiltonian: 197.33 MiB
      Arrays: 180.67 MiB
      XC: 0.00 MiB
      Poisson: 0.00 MiB
      vbar: 16.66 MiB
    Wavefunctions: 1179.45 MiB
      C [qnM]: 3.86 MiB
      S, T [2 x qmm]: 29.35 MiB
      P [aqMi]: 1.26 MiB
      BasisFunctions: 1144.98 MiB
      Eigensolver: 0.00 MiB

Total number of cores used: 1

Number of atoms: 73
Number of atomic orbitals: 1387
Number of bands in calculation: 365
Number of valence electrons: 657
Bands to converge: occupied

... initialized

Initializing position-dependent things.

Density initialized from atomic densities
           .------------------------------------------------------.  
          /|                                                      |  
         / |                                                      |  
        /  |                                                      |  
       /   |                                                      |  
      /    |                                                      |  
     /     |                                                      |  
    /      |                                                      |  
   /       |                                                      |  
  /        |                                                      |  
 *         |                                                      |  
 |         |                                                      |  
 |         |                                                      |  
 |         |                                                      |  
 |       K |                K                 K                   |  
 |         |     K                 K                  K           |  
 |         |                                                      |  
 |    K    |         K  K    K             K    K                 K  
 |         |      K                  K                 K          |  
 |         |  K                 K                 K               |  
 | K       |              K            K    K                  K  |  
 |         |                                                      |  
 |        K|   K     K      K     K            K    K             |  
 |       K |                K            K    K            K      |  
 |         |           K                                          |  
 |         |K    K            K    K             K   K            |  
 |    K    |            K                  K                      |  
 |         |       K                 K                 K          |  
 |         | K                  K                 K               |  
 |      K  |              K                 K                     |  
 | K       |         K                 K                          |  
 |        K|   K             K   K             K    K             |  
 |  K      |           K                 K                        |  
 |         |                                                      |  
 |         |K                 K                  K                |  
 |         |                                                      |  
 K         |       K                  K                           |  
 |         |                                                      |  
 |         .------------------------------------------------------.  
 |        /                                                      /   
 |       /                                                      /    
 |      /                                                      /     
 |     /                                                      /      
 |    /                                                      /       
 |   /                                                      /        
 |  /                                                      /         
 | /                                                      /          
 |/                                                      /           
 *------------------------------------------------------*            

Atomic positions and initial magnetic moments

Positions:
   0 K      0.000000    0.000000   10.000000    ( 0.0000,  0.0000,  0.0000)
   1 K      3.698168    2.615000   10.000000    ( 0.0000,  0.0000,  0.0000)
   2 K      3.698168    0.000000   13.698168    ( 0.0000,  0.0000,  0.0000)
   3 K      0.000000    2.615000   13.698168    ( 0.0000,  0.0000,  0.0000)
   4 K     -0.001355   -0.001914   17.409968    ( 0.0000,  0.0000,  0.0000)
   5 K      3.623365    2.620883   17.369886    ( 0.0000,  0.0000,  0.0000)
   6 K      3.768151    0.050878   21.241357    ( 0.0000,  0.0000,  0.0000)
   7 K      0.003398    2.606965   21.173965    ( 0.0000,  0.0000,  0.0000)
   8 K      0.000000    5.230000   10.000000    ( 0.0000,  0.0000,  0.0000)
   9 K      3.698168    7.845000   10.000000    ( 0.0000,  0.0000,  0.0000)
  10 K      3.698168    5.230000   13.698168    ( 0.0000,  0.0000,  0.0000)
  11 K      0.000000    7.845000   13.698168    ( 0.0000,  0.0000,  0.0000)
  12 K     -0.002379    5.234650   17.417316    ( 0.0000,  0.0000,  0.0000)
  13 K      3.699314    7.837097   17.421226    ( 0.0000,  0.0000,  0.0000)
  14 K      3.760960    5.172946   21.233743    ( 0.0000,  0.0000,  0.0000)
  15 K      0.003694    7.840462   21.151436    ( 0.0000,  0.0000,  0.0000)
  16 K      0.000000   10.460000   10.000000    ( 0.0000,  0.0000,  0.0000)
  17 K      3.698168   13.075000   10.000000    ( 0.0000,  0.0000,  0.0000)
  18 K      3.698168   10.460000   13.698168    ( 0.0000,  0.0000,  0.0000)
  19 K      0.000000   13.075000   13.698168    ( 0.0000,  0.0000,  0.0000)
  20 K     -0.000739   10.457343   17.411274    ( 0.0000,  0.0000,  0.0000)
  21 K      3.676031   13.072062   17.430806    ( 0.0000,  0.0000,  0.0000)
  22 K      3.698134   10.459358   21.161803    ( 0.0000,  0.0000,  0.0000)
  23 K      0.003520   13.086416   21.173598    ( 0.0000,  0.0000,  0.0000)
  24 K      7.396337    0.000000   10.000000    ( 0.0000,  0.0000,  0.0000)
  25 K     11.094505    2.615000   10.000000    ( 0.0000,  0.0000,  0.0000)
  26 K     11.094505    0.000000   13.698168    ( 0.0000,  0.0000,  0.0000)
  27 K      7.396337    2.615000   13.698168    ( 0.0000,  0.0000,  0.0000)
  28 K      7.389822   -0.257721   17.154322    ( 0.0000,  0.0000,  0.0000)
  29 K     11.169144    2.612420   17.365105    ( 0.0000,  0.0000,  0.0000)
  30 K     11.029779    0.058542   21.232106    ( 0.0000,  0.0000,  0.0000)
  31 K      7.411005    2.626562   20.243343    ( 0.0000,  0.0000,  0.0000)
  32 K      7.396337    5.230000   10.000000    ( 0.0000,  0.0000,  0.0000)
  33 K     11.094505    7.845000   10.000000    ( 0.0000,  0.0000,  0.0000)
  34 K     11.094505    5.230000   13.698168    ( 0.0000,  0.0000,  0.0000)
  35 K      7.396337    7.845000   13.698168    ( 0.0000,  0.0000,  0.0000)
  36 K      7.400313    5.479221   17.149593    ( 0.0000,  0.0000,  0.0000)
  37 K     11.104672    7.839398   17.415747    ( 0.0000,  0.0000,  0.0000)
  38 K     11.032125    5.191603   21.239076    ( 0.0000,  0.0000,  0.0000)
  39 K      7.388657    7.791774   21.217394    ( 0.0000,  0.0000,  0.0000)
  40 K      7.396337   10.460000   10.000000    ( 0.0000,  0.0000,  0.0000)
  41 K     11.094505   13.075000   10.000000    ( 0.0000,  0.0000,  0.0000)
  42 K     11.094505   10.460000   13.698168    ( 0.0000,  0.0000,  0.0000)
  43 K      7.396337   13.075000   13.698168    ( 0.0000,  0.0000,  0.0000)
  44 K      7.406478   10.469352   17.435088    ( 0.0000,  0.0000,  0.0000)
  45 K     11.108565   13.084891   17.423102    ( 0.0000,  0.0000,  0.0000)
  46 K     11.092616   10.452347   21.174907    ( 0.0000,  0.0000,  0.0000)
  47 K      7.396349   13.128285   21.212679    ( 0.0000,  0.0000,  0.0000)
  48 K     14.792674    0.000000   10.000000    ( 0.0000,  0.0000,  0.0000)
  49 K     18.490842    2.615000   10.000000    ( 0.0000,  0.0000,  0.0000)
  50 K     18.490842    0.000000   13.698168    ( 0.0000,  0.0000,  0.0000)
  51 K     14.792674    2.615000   13.698168    ( 0.0000,  0.0000,  0.0000)
  52 K     14.807541   -0.002789   17.414632    ( 0.0000,  0.0000,  0.0000)
  53 K     18.500411    2.624653   17.423171    ( 0.0000,  0.0000,  0.0000)
  54 K     18.480111    0.001110   21.170482    ( 0.0000,  0.0000,  0.0000)
  55 K     14.788417    2.614623   21.161167    ( 0.0000,  0.0000,  0.0000)
  56 K     14.792674    5.230000   10.000000    ( 0.0000,  0.0000,  0.0000)
  57 K     18.490842    7.845000   10.000000    ( 0.0000,  0.0000,  0.0000)
  58 K     18.490842    5.230000   13.698168    ( 0.0000,  0.0000,  0.0000)
  59 K     14.792674    7.845000   13.698168    ( 0.0000,  0.0000,  0.0000)
  60 K     14.784702    5.222169   17.425833    ( 0.0000,  0.0000,  0.0000)
  61 K     18.478013    7.846075   17.407086    ( 0.0000,  0.0000,  0.0000)
  62 K     18.491807    5.229456   21.162897    ( 0.0000,  0.0000,  0.0000)
  63 K     14.800423    7.841134   21.168652    ( 0.0000,  0.0000,  0.0000)
  64 K     14.792674   10.460000   10.000000    ( 0.0000,  0.0000,  0.0000)
  65 K     18.490842   13.075000   10.000000    ( 0.0000,  0.0000,  0.0000)
  66 K     18.490842   10.460000   13.698168    ( 0.0000,  0.0000,  0.0000)
  67 K     14.792674   13.075000   13.698168    ( 0.0000,  0.0000,  0.0000)
  68 K     14.783624   10.469971   17.419434    ( 0.0000,  0.0000,  0.0000)
  69 K     18.501046   13.063999   17.417314    ( 0.0000,  0.0000,  0.0000)
  70 K     18.491857   10.459587   21.164578    ( 0.0000,  0.0000,  0.0000)
  71 K     14.788294   13.079517   21.161330    ( 0.0000,  0.0000,  0.0000)
  72 K      7.404092    2.624256   24.338664    ( 0.0000,  0.0000,  0.0000)

Unit cell:
           periodic     x           y           z      points  spacing
  1. axis:    yes   22.189011    0.000000    0.000000   112     0.1981
  2. axis:    yes    0.000000   15.690000    0.000000    80     0.1961
  3. axis:    no     0.000000    0.000000   31.094505   156     0.1993

  Lengths:  22.189011  15.690000  31.094505
  Angles:   90.000000  90.000000  90.000000

Effective grid spacing dv^(1/3) = 0.1979

     iter     time        total  log10-change:
                         energy   eigst   dens
iter:   1 22:03:37   -65.466332        c
iter:   2 22:04:28   -64.384503        c -1.50
iter:   3 22:05:12   -62.769418        c -1.57
iter:   4 22:05:56   -61.558737        c -1.74
iter:   5 22:06:44   -61.546520        c -2.05
iter:   6 22:07:34   -61.527176c       c -2.11
iter:   7 22:08:22   -61.515651c       c -2.24
iter:   8 22:09:07   -61.510663c       c -2.47
iter:   9 22:09:53   -61.496865c       c -2.52
iter:  10 22:10:53   -61.492640c       c -2.74
iter:  11 22:11:44   -61.491680c       c -2.95
iter:  12 22:12:32   -61.491524c       c -3.25
iter:  13 22:13:21   -61.491086c       c -3.32
iter:  14 22:14:11   -61.490389c       c -3.34
iter:  15 22:15:02   -61.490246c       c -3.40
iter:  16 22:15:49   -61.490785c       c -3.51
iter:  17 22:16:37   -61.491165c       c -3.68
iter:  18 22:17:28   -61.491216c       c -3.75
iter:  19 22:18:19   -61.491164c       c -3.83
iter:  20 22:19:55   -61.491063c       c -3.91
iter:  21 22:21:41   -61.491069c       c -4.02c

Converged after 21 iterations.

Dipole moment: (-88.838522, -47.857830, 0.442885) |e|*Ang

Energy contributions relative to reference atoms: (reference = -1195904.484944)

Kinetic:       +124.882060
Potential:     -107.657047
External:        +0.000000
XC:             -79.004561
Entropy (-ST):   -3.804162
Local:           +2.190560
SIC:             +0.000000
--------------------------
Free energy:    -63.393150
Extrapolated:   -61.491069

 Band  Eigenvalues  Occupancy
    0    -35.24730    2.00000
    1    -34.76232    2.00000
    2    -34.76016    2.00000
    3    -34.75950    2.00000
    4    -34.75927    2.00000
    5    -34.75820    2.00000
    6    -34.75577    2.00000
    7    -34.75543    2.00000
    8    -34.75507    2.00000
    9    -34.75501    2.00000
   10    -34.75498    2.00000
   11    -34.75483    2.00000
   12    -34.75478    2.00000
   13    -34.75418    2.00000
   14    -34.75390    2.00000
   15    -34.75309    2.00000
   16    -34.75302    2.00000
   17    -34.75221    2.00000
   18    -34.75190    2.00000
   19    -34.75157    2.00000
   20    -34.75149    2.00000
   21    -34.75109    2.00000
   22    -34.75102    2.00000
   23    -34.75090    2.00000
   24    -34.75037    2.00000
   25    -34.75031    2.00000
   26    -34.74993    2.00000
   27    -34.74987    2.00000
   28    -34.74724    2.00000
   29    -34.74681    2.00000
   30    -34.74341    2.00000
   31    -34.74279    2.00000
   32    -34.73487    2.00000
   33    -34.73411    2.00000
   34    -34.73335    2.00000
   35    -34.73243    2.00000
   36    -34.64598    2.00000
   37    -34.62164    2.00000
   38    -34.62015    2.00000
   39    -34.60902    2.00000
   40    -34.60818    2.00000
   41    -34.60748    2.00000
   42    -34.60690    2.00000
   43    -34.60425    2.00000
   44    -34.60366    2.00000
   45    -34.60285    2.00000
   46    -34.60249    2.00000
   47    -34.60235    2.00000
   48    -34.60206    2.00000
   49    -34.60179    2.00000
   50    -34.60104    2.00000
   51    -34.60062    2.00000
   52    -34.59981    2.00000
   53    -34.59891    2.00000
   54    -34.59818    2.00000
   55    -34.59588    2.00000
   56    -34.59529    2.00000
   57    -34.59506    2.00000
   58    -34.59460    2.00000
   59    -34.59443    2.00000
   60    -34.59403    2.00000
   61    -34.59356    2.00000
   62    -34.59313    2.00000
   63    -34.59256    2.00000
   64    -34.59212    2.00000
   65    -34.59108    2.00000
   66    -34.59065    2.00000
   67    -34.59060    2.00000
   68    -34.58999    2.00000
   69    -34.58948    2.00000
   70    -34.58930    2.00000
   71    -34.58217    2.00000
   72    -34.58077    2.00000
   73    -18.73909    2.00000
   74    -18.71421    2.00000
   75    -18.71113    2.00000
   76    -18.26790    2.00000
   77    -18.26730    2.00000
   78    -18.26227    2.00000
   79    -18.26129    2.00000
   80    -18.25996    2.00000
   81    -18.25941    2.00000
   82    -18.25931    2.00000
   83    -18.25819    2.00000
   84    -18.25723    2.00000
   85    -18.25702    2.00000
   86    -18.25685    2.00000
   87    -18.25658    2.00000
   88    -18.25545    2.00000
   89    -18.25502    2.00000
   90    -18.25474    2.00000
   91    -18.25453    2.00000
   92    -18.25436    2.00000
   93    -18.25343    2.00000
   94    -18.25329    2.00000
   95    -18.25241    2.00000
   96    -18.25222    2.00000
   97    -18.25215    2.00000
   98    -18.25196    2.00000
   99    -18.25169    2.00000
  100    -18.25143    2.00000
  101    -18.25096    2.00000
  102    -18.25081    2.00000
  103    -18.25081    2.00000
  104    -18.25063    2.00000
  105    -18.25062    2.00000
  106    -18.24971    2.00000
  107    -18.24949    2.00000
  108    -18.24931    2.00000
  109    -18.24865    2.00000
  110    -18.24815    2.00000
  111    -18.24800    2.00000
  112    -18.24780    2.00000
  113    -18.24777    2.00000
  114    -18.24754    2.00000
  115    -18.24740    2.00000
  116    -18.24730    2.00000
  117    -18.24693    2.00000
  118    -18.24684    2.00000
  119    -18.24669    2.00000
  120    -18.24634    2.00000
  121    -18.24607    2.00000
  122    -18.24508    2.00000
  123    -18.24492    2.00000
  124    -18.24449    2.00000
  125    -18.24425    2.00000
  126    -18.24417    2.00000
  127    -18.24350    2.00000
  128    -18.24286    2.00000
  129    -18.24048    2.00000
  130    -18.24009    2.00000
  131    -18.23970    2.00000
  132    -18.23939    2.00000
  133    -18.23711    2.00000
  134    -18.23542    2.00000
  135    -18.23462    2.00000
  136    -18.23402    2.00000
  137    -18.23051    2.00000
  138    -18.23025    2.00000
  139    -18.22792    2.00000
  140    -18.22720    2.00000
  141    -18.22716    2.00000
  142    -18.22612    2.00000
  143    -18.22533    2.00000
  144    -18.22527    2.00000
  145    -18.22511    2.00000
  146    -18.22485    2.00000
  147    -18.22454    2.00000
  148    -18.22335    2.00000
  149    -18.22278    2.00000
  150    -18.22227    2.00000
  151    -18.22050    2.00000
  152    -18.21964    2.00000
  153    -18.21937    2.00000
  154    -18.21915    2.00000
  155    -18.21872    2.00000
  156    -18.21819    2.00000
  157    -18.21815    2.00000
  158    -18.21792    2.00000
  159    -18.21666    2.00000
  160    -18.21653    2.00000
  161    -18.21627    2.00000
  162    -18.21584    2.00000
  163    -18.21573    2.00000
  164    -18.21388    2.00000
  165    -18.21358    2.00000
  166    -18.21338    2.00000
  167    -18.20886    2.00000
  168    -18.20817    2.00000
  169    -18.20592    2.00000
  170    -18.20590    2.00000
  171    -18.20548    2.00000
  172    -18.20531    2.00000
  173    -18.20467    2.00000
  174    -18.20465    2.00000
  175    -18.20461    2.00000
  176    -18.20455    2.00000
  177    -18.20340    2.00000
  178    -18.20222    2.00000
  179    -18.20098    2.00000
  180    -18.20014    2.00000
  181    -18.17002    2.00000
  182    -18.15948    2.00000
  183    -18.13086    2.00000
  184    -18.13025    2.00000
  185    -18.12558    2.00000
  186    -18.12371    2.00000
  187    -18.12289    2.00000
  188    -18.12199    2.00000
  189    -18.11999    2.00000
  190    -18.11862    2.00000
  191    -18.11762    2.00000
  192    -18.11711    2.00000
  193    -18.11477    2.00000
  194    -18.11456    2.00000
  195    -18.11436    2.00000
  196    -18.11244    2.00000
  197    -18.11231    2.00000
  198    -18.11176    2.00000
  199    -18.11141    2.00000
  200    -18.10790    2.00000
  201    -18.10754    2.00000
  202    -18.10665    2.00000
  203    -18.10609    2.00000
  204    -18.10590    2.00000
  205    -18.10541    2.00000
  206    -18.10523    2.00000
  207    -18.10456    2.00000
  208    -18.10387    2.00000
  209    -18.10360    2.00000
  210    -18.10042    2.00000
  211    -18.10036    2.00000
  212    -18.10012    2.00000
  213    -18.09933    2.00000
  214    -18.09860    2.00000
  215    -18.09819    2.00000
  216    -18.09808    2.00000
  217    -18.09730    2.00000
  218    -18.09729    2.00000
  219    -18.09697    2.00000
  220    -18.09515    2.00000
  221    -18.09355    2.00000
  222    -18.09346    2.00000
  223    -18.09267    2.00000
  224    -18.09147    2.00000
  225    -18.09008    2.00000
  226    -18.08957    2.00000
  227    -18.08664    2.00000
  228    -18.08569    2.00000
  229    -18.08557    2.00000
  230    -18.08521    2.00000
  231    -18.08494    2.00000
  232    -18.08411    2.00000
  233    -18.08323    2.00000
  234    -18.08290    2.00000
  235    -18.08223    2.00000
  236    -18.08204    2.00000
  237    -18.08179    2.00000
  238    -18.08124    2.00000
  239    -18.08030    2.00000
  240    -18.07963    2.00000
  241    -18.07945    2.00000
  242    -18.07851    2.00000
  243    -18.07827    2.00000
  244    -18.07745    2.00000
  245    -18.07628    2.00000
  246    -18.07609    2.00000
  247    -18.07590    2.00000
  248    -18.07534    2.00000
  249    -18.07491    2.00000
  250    -18.07462    2.00000
  251    -18.07396    2.00000
  252    -18.07386    2.00000
  253    -18.07272    2.00000
  254    -18.07238    2.00000
  255    -18.07195    2.00000
  256    -18.07192    2.00000
  257    -18.07034    2.00000
  258    -18.06996    2.00000
  259    -18.06984    2.00000
  260    -18.06885    2.00000
  261    -18.06830    2.00000
  262    -18.06809    2.00000
  263    -18.06725    2.00000
  264    -18.06715    2.00000
  265    -18.06699    2.00000
  266    -18.06686    2.00000
  267    -18.06581    2.00000
  268    -18.06529    2.00000
  269    -18.06508    2.00000
  270    -18.06464    2.00000
  271    -18.06435    2.00000
  272    -18.06366    2.00000
  273    -18.06336    2.00000
  274    -18.06328    2.00000
  275    -18.06318    2.00000
  276    -18.06264    2.00000
  277    -18.06188    2.00000
  278    -18.06160    2.00000
  279    -18.06063    2.00000
  280    -18.05954    2.00000
  281    -18.05914    2.00000
  282    -18.05859    2.00000
  283    -18.05858    2.00000
  284    -18.05840    2.00000
  285    -18.05826    2.00000
  286    -18.05738    2.00000
  287    -18.05655    2.00000
  288    -18.05573    2.00000
  289    -18.05430    2.00000
  290    -18.05345    2.00000
  291    -18.05272    2.00000
  292     -4.54002    2.00000
  293     -4.19739    1.99999
  294     -4.18465    1.99999
  295     -4.14780    1.99998
  296     -3.85289    1.99989
  297     -3.84963    1.99989
  298     -3.81259    1.99986
  299     -3.79805    1.99984
  300     -3.53311    1.99907
  301     -3.52635    1.99902
  302     -3.51165    1.99892
  303     -3.50986    1.99891
  304     -3.50751    1.99889
  305     -3.47167    1.99860
  306     -3.46253    1.99851
  307     -3.21095    1.99204
  308     -3.19295    1.99103
  309     -3.18549    1.99058
  310     -3.17279    1.98975
  311     -3.14517    1.98769
  312     -3.14043    1.98729
  313     -3.13745    1.98704
  314     -3.12940    1.98633
  315     -2.87565    1.92798
  316     -2.84828    1.91419
  317     -2.81940    1.89691
  318     -2.81691    1.89527
  319     -2.72677    1.81689
  320     -2.56268    1.53735
  321     -2.55157    1.51048
  322     -2.54405    1.49172
  323     -2.54282    1.48862
  324     -2.54063    1.48303
  325     -2.53301    1.46331
  326     -2.52386    1.43904
  327     -2.51592    1.41742
  328     -2.41952    1.12260
  329     -2.36072    0.92736
  330     -2.22527    0.51901
  331     -2.21322    0.48874
  332     -2.18829    0.42998
  333     -2.18723    0.42761
  334     -2.18389    0.42017
  335     -2.18364    0.41961
  336     -2.10703    0.27486
  337     -2.05001    0.19647
  338     -1.94520    0.10277
  339     -1.94433    0.10221
  340     -1.92075    0.08799
  341     -1.75701    0.03042
  342     -1.75361    0.02975
  343     -1.73975    0.02716
  344     -1.71321    0.02281
  345     -1.67044    0.01720
  346     -1.65350    0.01538
  347     -1.64852    0.01488
  348     -1.64215    0.01426
  349     -1.64106    0.01416
  350     -1.62802    0.01299
  351     -1.61887    0.01223
  352     -1.61197    0.01168
  353     -1.60823    0.01139
  354     -1.60347    0.01104
  355     -1.58813    0.00997
  356     -1.58808    0.00997
  357     -1.58154    0.00955
  358     -1.53362    0.00694
  359     -1.41800    0.00322
  360     -1.41226    0.00310
  361     -1.36992    0.00234
  362     -1.34925    0.00204
  363     -1.31316    0.00160
  364     -1.27133    0.00121

Fermi level: -2.38255

Gap: 0.059 eV
Transition (v -> c):
  (s=0, k=0, n=328, [0.00, 0.00, 0.00]) -> (s=0, k=0, n=329, [0.00, 0.00, 0.00])
No difference between direct/indirect transitions

Forces in eV/Ang:
  0 K    -0.00091   -0.00079   -0.02535
  1 K    -0.00587    0.00525   -0.03068
  2 K    -0.00279   -0.00493   -0.01172
  3 K    -0.00251    0.00053   -0.00302
  4 K    -0.00713   -0.00353    0.01280
  5 K     0.03928    0.00053    0.01745
  6 K     0.00722    0.01760    0.02291
  7 K     0.00681    0.00027    0.02341
  8 K    -0.00093    0.00084   -0.02660
  9 K     0.00210   -0.00126   -0.02251
 10 K    -0.01832   -0.00675   -0.02099
 11 K    -0.00066   -0.00091    0.00563
 12 K    -0.00668    0.00453    0.02218
 13 K    -0.01615    0.00120    0.03227
 14 K     0.00890   -0.01967    0.03389
 15 K     0.00838   -0.00545    0.03130
 16 K    -0.00259   -0.00007   -0.02750
 17 K    -0.00765   -0.00402   -0.02909
 18 K    -0.00793    0.01120    0.00252
 19 K    -0.00064    0.00039   -0.00052
 20 K    -0.00130   -0.00093    0.01668
 21 K    -0.01948    0.00295    0.02880
 22 K     0.00247    0.00530    0.02706
 23 K     0.01105    0.00449    0.02396
 24 K    -0.00393    0.00113   -0.02078
 25 K     0.00013   -0.00005   -0.02636
 26 K     0.00718   -0.00461   -0.00956
 27 K     0.01069    0.01019   -0.00769
 28 K    -0.00256    0.05003    0.04935
 29 K    -0.03510   -0.00064    0.02002
 30 K    -0.00755    0.01116    0.03873
 31 K    -0.00205   -0.00629    0.01902
 32 K     0.00576   -0.00644   -0.02726
 33 K     0.00183   -0.00126   -0.02352
 34 K     0.00746    0.00406   -0.01568
 35 K    -0.00482    0.04782   -0.06836
 36 K    -0.00561   -0.04410    0.04269
 37 K     0.01625    0.00185    0.02539
 38 K    -0.00389   -0.01172    0.02621
 39 K     0.00193   -0.01147    0.02325
 40 K     0.00580    0.00535   -0.02772
 41 K     0.00186    0.00131   -0.02474
 42 K    -0.00250    0.00057    0.00701
 43 K     0.01047   -0.05796   -0.07591
 44 K    -0.00013   -0.00308    0.02495
 45 K     0.01748   -0.00157    0.03284
 46 K    -0.00971    0.00112    0.02528
 47 K    -0.00225    0.00654    0.03180
 48 K     0.00486   -0.00079   -0.02428
 49 K     0.00576    0.00527   -0.03014
 50 K    -0.00465   -0.00045    0.00313
 51 K    -0.00773    0.01142   -0.00786
 52 K     0.00453   -0.00560    0.01540
 53 K    -0.00133   -0.00424    0.01367
 54 K     0.00109    0.00004    0.02837
 55 K    -0.00980    0.00378    0.02748
 56 K    -0.00485   -0.00450   -0.03094
 57 K    -0.00393    0.00130   -0.02622
 58 K     0.01041   -0.01103   -0.00624
 59 K     0.00529   -0.00097    0.00428
 60 K     0.00889    0.00768    0.01341
 61 K     0.00181    0.00008    0.01067
 62 K     0.00668   -0.00507    0.02550
 63 K    -0.00795   -0.00672    0.02989
 64 K    -0.00317    0.00526   -0.03183
 65 K     0.00576   -0.00657   -0.03289
 66 K     0.01042    0.01147   -0.00666
 67 K    -0.00969   -0.01055   -0.00532
 68 K     0.00319   -0.00514    0.01315
 69 K    -0.00177    0.00575    0.01389
 70 K     0.00811    0.00665    0.02485
 71 K    -0.01614    0.00095    0.02626
 72 K    -0.00065   -0.00315   -0.02360

System changes: positions 

Initializing position-dependent things.

Density initialized from wave functions
           .------------------------------------------------------.  
          /|                                                      |  
         / |                                                      |  
        /  |                                                      |  
       /   |                                                      |  
      /    |                                                      |  
     /     |                                                      |  
    /      |                                                      |  
   /       |                                                      |  
  /        |                                                      |  
 *         |                                                      |  
 |         |                                                      |  
 |         |                                                      |  
 |         |                                                      |  
 |       K |                K                 K                   |  
 |         |     K                 K                  K           |  
 |         |                                                      |  
 |    K    |         K  K    K             K    K                 K  
 |         |      K                  K                 K          |  
 |         |  K                 K                 K               |  
 | K       |              K            K    K                  K  |  
 |         |                                                      |  
 |        K|   K     K      K     K            K    K             |  
 |       K |                K            K    K            K      |  
 |         |           K                                          |  
 |         |K    K            K    K             K   K            |  
 |    K    |            K                  K                      |  
 |         |       K                 K                 K          |  
 |         | K                  K                 K               |  
 |      K  |              K                 K                     |  
 | K       |         K                 K                          |  
 |        K|   K             K   K             K    K             |  
 |  K      |           K                 K                        |  
 |         |                                                      |  
 |         |K                 K                  K                |  
 |         |                                                      |  
 K         |       K                  K                           |  
 |         |                                                      |  
 |         .------------------------------------------------------.  
 |        /                                                      /   
 |       /                                                      /    
 |      /                                                      /     
 |     /                                                      /      
 |    /                                                      /       
 |   /                                                      /        
 |  /                                                      /         
 | /                                                      /          
 |/                                                      /           
 *------------------------------------------------------*            

Atomic positions and initial magnetic moments

Positions:
   0 K      0.000000    0.000000   10.000000    ( 0.0000,  0.0000,  0.0000)
   1 K      3.698168    2.615000   10.000000    ( 0.0000,  0.0000,  0.0000)
   2 K      3.698168    0.000000   13.698168    ( 0.0000,  0.0000,  0.0000)
   3 K      0.000000    2.615000   13.698168    ( 0.0000,  0.0000,  0.0000)
   4 K     -0.001457   -0.001964   17.410151    ( 0.0000,  0.0000,  0.0000)
   5 K      3.623926    2.620891   17.370136    ( 0.0000,  0.0000,  0.0000)
   6 K      3.768254    0.051129   21.241684    ( 0.0000,  0.0000,  0.0000)
   7 K      0.003495    2.606969   21.174299    ( 0.0000,  0.0000,  0.0000)
   8 K      0.000000    5.230000   10.000000    ( 0.0000,  0.0000,  0.0000)
   9 K      3.698168    7.845000   10.000000    ( 0.0000,  0.0000,  0.0000)
  10 K      3.698168    5.230000   13.698168    ( 0.0000,  0.0000,  0.0000)
  11 K      0.000000    7.845000   13.698168    ( 0.0000,  0.0000,  0.0000)
  12 K     -0.002474    5.234714   17.417633    ( 0.0000,  0.0000,  0.0000)
  13 K      3.699084    7.837114   17.421687    ( 0.0000,  0.0000,  0.0000)
  14 K      3.761087    5.172665   21.234227    ( 0.0000,  0.0000,  0.0000)
  15 K      0.003813    7.840385   21.151883    ( 0.0000,  0.0000,  0.0000)
  16 K      0.000000   10.460000   10.000000    ( 0.0000,  0.0000,  0.0000)
  17 K      3.698168   13.075000   10.000000    ( 0.0000,  0.0000,  0.0000)
  18 K      3.698168   10.460000   13.698168    ( 0.0000,  0.0000,  0.0000)
  19 K      0.000000   13.075000   13.698168    ( 0.0000,  0.0000,  0.0000)
  20 K     -0.000757   10.457330   17.411513    ( 0.0000,  0.0000,  0.0000)
  21 K      3.675753   13.072104   17.431218    ( 0.0000,  0.0000,  0.0000)
  22 K      3.698169   10.459433   21.162190    ( 0.0000,  0.0000,  0.0000)
  23 K      0.003677   13.086480   21.173941    ( 0.0000,  0.0000,  0.0000)
  24 K      7.396337    0.000000   10.000000    ( 0.0000,  0.0000,  0.0000)
  25 K     11.094505    2.615000   10.000000    ( 0.0000,  0.0000,  0.0000)
  26 K     11.094505    0.000000   13.698168    ( 0.0000,  0.0000,  0.0000)
  27 K      7.396337    2.615000   13.698168    ( 0.0000,  0.0000,  0.0000)
  28 K      7.389785   -0.257006   17.155027    ( 0.0000,  0.0000,  0.0000)
  29 K     11.168642    2.612411   17.365391    ( 0.0000,  0.0000,  0.0000)
  30 K     11.029671    0.058701   21.232659    ( 0.0000,  0.0000,  0.0000)
  31 K      7.410975    2.626472   20.243615    ( 0.0000,  0.0000,  0.0000)
  32 K      7.396337    5.230000   10.000000    ( 0.0000,  0.0000,  0.0000)
  33 K     11.094505    7.845000   10.000000    ( 0.0000,  0.0000,  0.0000)
  34 K     11.094505    5.230000   13.698168    ( 0.0000,  0.0000,  0.0000)
  35 K      7.396337    7.845000   13.698168    ( 0.0000,  0.0000,  0.0000)
  36 K      7.400233    5.478591   17.150203    ( 0.0000,  0.0000,  0.0000)
  37 K     11.104904    7.839424   17.416109    ( 0.0000,  0.0000,  0.0000)
  38 K     11.032069    5.191435   21.239450    ( 0.0000,  0.0000,  0.0000)
  39 K      7.388685    7.791610   21.217726    ( 0.0000,  0.0000,  0.0000)
  40 K      7.396337   10.460000   10.000000    ( 0.0000,  0.0000,  0.0000)
  41 K     11.094505   13.075000   10.000000    ( 0.0000,  0.0000,  0.0000)
  42 K     11.094505   10.460000   13.698168    ( 0.0000,  0.0000,  0.0000)
  43 K      7.396337   13.075000   13.698168    ( 0.0000,  0.0000,  0.0000)
  44 K      7.406477   10.469308   17.435444    ( 0.0000,  0.0000,  0.0000)
  45 K     11.108815   13.084869   17.423571    ( 0.0000,  0.0000,  0.0000)
  46 K     11.092478   10.452363   21.175268    ( 0.0000,  0.0000,  0.0000)
  47 K      7.396317   13.128378   21.213134    ( 0.0000,  0.0000,  0.0000)
  48 K     14.792674    0.000000   10.000000    ( 0.0000,  0.0000,  0.0000)
  49 K     18.490842    2.615000   10.000000    ( 0.0000,  0.0000,  0.0000)
  50 K     18.490842    0.000000   13.698168    ( 0.0000,  0.0000,  0.0000)
  51 K     14.792674    2.615000   13.698168    ( 0.0000,  0.0000,  0.0000)
  52 K     14.807605   -0.002869   17.414852    ( 0.0000,  0.0000,  0.0000)
  53 K     18.500392    2.624592   17.423366    ( 0.0000,  0.0000,  0.0000)
  54 K     18.480127    0.001111   21.170888    ( 0.0000,  0.0000,  0.0000)
  55 K     14.788277    2.614677   21.161560    ( 0.0000,  0.0000,  0.0000)
  56 K     14.792674    5.230000   10.000000    ( 0.0000,  0.0000,  0.0000)
  57 K     18.490842    7.845000   10.000000    ( 0.0000,  0.0000,  0.0000)
  58 K     18.490842    5.230000   13.698168    ( 0.0000,  0.0000,  0.0000)
  59 K     14.792674    7.845000   13.698168    ( 0.0000,  0.0000,  0.0000)
  60 K     14.784829    5.222279   17.426024    ( 0.0000,  0.0000,  0.0000)
  61 K     18.478039    7.846077   17.407238    ( 0.0000,  0.0000,  0.0000)
  62 K     18.491903    5.229383   21.163261    ( 0.0000,  0.0000,  0.0000)
  63 K     14.800309    7.841038   21.169079    ( 0.0000,  0.0000,  0.0000)
  64 K     14.792674   10.460000   10.000000    ( 0.0000,  0.0000,  0.0000)
  65 K     18.490842   13.075000   10.000000    ( 0.0000,  0.0000,  0.0000)
  66 K     18.490842   10.460000   13.698168    ( 0.0000,  0.0000,  0.0000)
  67 K     14.792674   13.075000   13.698168    ( 0.0000,  0.0000,  0.0000)
  68 K     14.783669   10.469898   17.419622    ( 0.0000,  0.0000,  0.0000)
  69 K     18.501021   13.064081   17.417512    ( 0.0000,  0.0000,  0.0000)
  70 K     18.491973   10.459682   21.164933    ( 0.0000,  0.0000,  0.0000)
  71 K     14.788064   13.079531   21.161705    ( 0.0000,  0.0000,  0.0000)
  72 K      7.404082    2.624211   24.338327    ( 0.0000,  0.0000,  0.0000)

Unit cell:
           periodic     x           y           z      points  spacing
  1. axis:    yes   22.189011    0.000000    0.000000   112     0.1981
  2. axis:    yes    0.000000   15.690000    0.000000    80     0.1961
  3. axis:    no     0.000000    0.000000   31.094505   156     0.1993

  Lengths:  22.189011  15.690000  31.094505
  Angles:   90.000000  90.000000  90.000000

Effective grid spacing dv^(1/3) = 0.1979

     iter     time        total  log10-change:
                         energy   eigst   dens
iter:   1 22:25:04   -61.491461        c
iter:   2 22:25:51   -61.491389        c -3.94
iter:   3 22:26:39   -61.491335c       c -4.06c

Converged after 3 iterations.

Dipole moment: (-88.863239, -47.923695, 0.447013) |e|*Ang

Energy contributions relative to reference atoms: (reference = -1195904.484944)

Kinetic:       +119.674985
Potential:     -102.972938
External:        +0.000000
XC:             -78.590768
Entropy (-ST):   -3.804663
Local:           +2.299717
SIC:             +0.000000
--------------------------
Free energy:    -63.393667
Extrapolated:   -61.491335

 Band  Eigenvalues  Occupancy
    0    -35.25046    2.00000
    1    -34.76493    2.00000
    2    -34.76471    2.00000
    3    -34.76410    2.00000
    4    -34.76369    2.00000
    5    -34.76303    2.00000
    6    -34.75949    2.00000
    7    -34.75908    2.00000
    8    -34.75877    2.00000
    9    -34.75866    2.00000
   10    -34.75830    2.00000
   11    -34.75821    2.00000
   12    -34.75807    2.00000
   13    -34.75801    2.00000
   14    -34.75783    2.00000
   15    -34.75616    2.00000
   16    -34.75606    2.00000
   17    -34.75590    2.00000
   18    -34.75560    2.00000
   19    -34.75538    2.00000
   20    -34.75483    2.00000
   21    -34.75480    2.00000
   22    -34.75474    2.00000
   23    -34.75428    2.00000
   24    -34.75425    2.00000
   25    -34.75413    2.00000
   26    -34.75375    2.00000
   27    -34.75359    2.00000
   28    -34.75164    2.00000
   29    -34.75122    2.00000
   30    -34.74820    2.00000
   31    -34.74757    2.00000
   32    -34.73966    2.00000
   33    -34.73887    2.00000
   34    -34.73813    2.00000
   35    -34.73721    2.00000
   36    -34.65246    2.00000
   37    -34.62365    2.00000
   38    -34.62218    2.00000
   39    -34.61271    2.00000
   40    -34.61188    2.00000
   41    -34.61116    2.00000
   42    -34.61061    2.00000
   43    -34.60771    2.00000
   44    -34.60717    2.00000
   45    -34.60705    2.00000
   46    -34.60620    2.00000
   47    -34.60598    2.00000
   48    -34.60557    2.00000
   49    -34.60539    2.00000
   50    -34.60453    2.00000
   51    -34.60415    2.00000
   52    -34.60312    2.00000
   53    -34.60267    2.00000
   54    -34.60140    2.00000
   55    -34.59931    2.00000
   56    -34.59869    2.00000
   57    -34.59841    2.00000
   58    -34.59800    2.00000
   59    -34.59781    2.00000
   60    -34.59750    2.00000
   61    -34.59696    2.00000
   62    -34.59670    2.00000
   63    -34.59640    2.00000
   64    -34.59535    2.00000
   65    -34.59509    2.00000
   66    -34.59484    2.00000
   67    -34.59472    2.00000
   68    -34.59435    2.00000
   69    -34.59380    2.00000
   70    -34.59358    2.00000
   71    -34.58502    2.00000
   72    -34.58357    2.00000
   73    -18.74209    2.00000
   74    -18.71711    2.00000
   75    -18.71404    2.00000
   76    -18.27196    2.00000
   77    -18.27037    2.00000
   78    -18.26556    2.00000
   79    -18.26471    2.00000
   80    -18.26393    2.00000
   81    -18.26245    2.00000
   82    -18.26227    2.00000
   83    -18.26213    2.00000
   84    -18.26114    2.00000
   85    -18.26092    2.00000
   86    -18.25991    2.00000
   87    -18.25977    2.00000
   88    -18.25882    2.00000
   89    -18.25847    2.00000
   90    -18.25824    2.00000
   91    -18.25779    2.00000
   92    -18.25727    2.00000
   93    -18.25704    2.00000
   94    -18.25643    2.00000
   95    -18.25624    2.00000
   96    -18.25575    2.00000
   97    -18.25559    2.00000
   98    -18.25547    2.00000
   99    -18.25540    2.00000
  100    -18.25502    2.00000
  101    -18.25462    2.00000
  102    -18.25439    2.00000
  103    -18.25424    2.00000
  104    -18.25417    2.00000
  105    -18.25403    2.00000
  106    -18.25377    2.00000
  107    -18.25271    2.00000
  108    -18.25251    2.00000
  109    -18.25237    2.00000
  110    -18.25165    2.00000
  111    -18.25144    2.00000
  112    -18.25138    2.00000
  113    -18.25133    2.00000
  114    -18.25114    2.00000
  115    -18.25083    2.00000
  116    -18.25076    2.00000
  117    -18.25030    2.00000
  118    -18.25025    2.00000
  119    -18.25016    2.00000
  120    -18.25005    2.00000
  121    -18.24961    2.00000
  122    -18.24853    2.00000
  123    -18.24847    2.00000
  124    -18.24845    2.00000
  125    -18.24823    2.00000
  126    -18.24772    2.00000
  127    -18.24715    2.00000
  128    -18.24665    2.00000
  129    -18.24487    2.00000
  130    -18.24420    2.00000
  131    -18.24402    2.00000
  132    -18.24348    2.00000
  133    -18.24026    2.00000
  134    -18.23879    2.00000
  135    -18.23851    2.00000
  136    -18.23705    2.00000
  137    -18.23489    2.00000
  138    -18.23393    2.00000
  139    -18.23194    2.00000
  140    -18.23151    2.00000
  141    -18.23045    2.00000
  142    -18.23040    2.00000
  143    -18.22957    2.00000
  144    -18.22906    2.00000
  145    -18.22881    2.00000
  146    -18.22877    2.00000
  147    -18.22780    2.00000
  148    -18.22672    2.00000
  149    -18.22626    2.00000
  150    -18.22580    2.00000
  151    -18.22424    2.00000
  152    -18.22329    2.00000
  153    -18.22316    2.00000
  154    -18.22306    2.00000
  155    -18.22209    2.00000
  156    -18.22205    2.00000
  157    -18.22162    2.00000
  158    -18.22125    2.00000
  159    -18.22014    2.00000
  160    -18.22001    2.00000
  161    -18.21975    2.00000
  162    -18.21956    2.00000
  163    -18.21914    2.00000
  164    -18.21738    2.00000
  165    -18.21701    2.00000
  166    -18.21686    2.00000
  167    -18.21231    2.00000
  168    -18.21164    2.00000
  169    -18.21023    2.00000
  170    -18.21007    2.00000
  171    -18.20977    2.00000
  172    -18.20948    2.00000
  173    -18.20890    2.00000
  174    -18.20853    2.00000
  175    -18.20851    2.00000
  176    -18.20848    2.00000
  177    -18.20754    2.00000
  178    -18.20595    2.00000
  179    -18.20538    2.00000
  180    -18.20457    2.00000
  181    -18.17434    2.00000
  182    -18.16308    2.00000
  183    -18.13546    2.00000
  184    -18.13406    2.00000
  185    -18.12975    2.00000
  186    -18.12726    2.00000
  187    -18.12624    2.00000
  188    -18.12525    2.00000
  189    -18.12296    2.00000
  190    -18.12182    2.00000
  191    -18.12095    2.00000
  192    -18.12041    2.00000
  193    -18.11808    2.00000
  194    -18.11769    2.00000
  195    -18.11746    2.00000
  196    -18.11597    2.00000
  197    -18.11537    2.00000
  198    -18.11472    2.00000
  199    -18.11455    2.00000
  200    -18.11104    2.00000
  201    -18.11081    2.00000
  202    -18.10981    2.00000
  203    -18.10941    2.00000
  204    -18.10924    2.00000
  205    -18.10877    2.00000
  206    -18.10868    2.00000
  207    -18.10803    2.00000
  208    -18.10714    2.00000
  209    -18.10680    2.00000
  210    -18.10376    2.00000
  211    -18.10370    2.00000
  212    -18.10328    2.00000
  213    -18.10262    2.00000
  214    -18.10177    2.00000
  215    -18.10161    2.00000
  216    -18.10146    2.00000
  217    -18.10065    2.00000
  218    -18.10063    2.00000
  219    -18.10033    2.00000
  220    -18.09828    2.00000
  221    -18.09681    2.00000
  222    -18.09674    2.00000
  223    -18.09602    2.00000
  224    -18.09481    2.00000
  225    -18.09337    2.00000
  226    -18.09283    2.00000
  227    -18.08997    2.00000
  228    -18.08902    2.00000
  229    -18.08881    2.00000
  230    -18.08826    2.00000
  231    -18.08818    2.00000
  232    -18.08742    2.00000
  233    -18.08647    2.00000
  234    -18.08618    2.00000
  235    -18.08541    2.00000
  236    -18.08523    2.00000
  237    -18.08499    2.00000
  238    -18.08453    2.00000
  239    -18.08378    2.00000
  240    -18.08290    2.00000
  241    -18.08261    2.00000
  242    -18.08163    2.00000
  243    -18.08142    2.00000
  244    -18.08049    2.00000
  245    -18.07955    2.00000
  246    -18.07945    2.00000
  247    -18.07906    2.00000
  248    -18.07869    2.00000
  249    -18.07836    2.00000
  250    -18.07810    2.00000
  251    -18.07737    2.00000
  252    -18.07728    2.00000
  253    -18.07609    2.00000
  254    -18.07581    2.00000
  255    -18.07533    2.00000
  256    -18.07520    2.00000
  257    -18.07352    2.00000
  258    -18.07318    2.00000
  259    -18.07299    2.00000
  260    -18.07237    2.00000
  261    -18.07169    2.00000
  262    -18.07154    2.00000
  263    -18.07063    2.00000
  264    -18.07056    2.00000
  265    -18.07046    2.00000
  266    -18.07010    2.00000
  267    -18.06906    2.00000
  268    -18.06866    2.00000
  269    -18.06847    2.00000
  270    -18.06788    2.00000
  271    -18.06760    2.00000
  272    -18.06681    2.00000
  273    -18.06664    2.00000
  274    -18.06653    2.00000
  275    -18.06645    2.00000
  276    -18.06598    2.00000
  277    -18.06543    2.00000
  278    -18.06504    2.00000
  279    -18.06387    2.00000
  280    -18.06272    2.00000
  281    -18.06266    2.00000
  282    -18.06207    2.00000
  283    -18.06199    2.00000
  284    -18.06179    2.00000
  285    -18.06138    2.00000
  286    -18.06046    2.00000
  287    -18.05956    2.00000
  288    -18.05865    2.00000
  289    -18.05743    2.00000
  290    -18.05649    2.00000
  291    -18.05632    2.00000
  292     -4.54171    2.00000
  293     -4.19908    1.99999
  294     -4.18635    1.99999
  295     -4.14998    1.99998
  296     -3.85453    1.99989
  297     -3.85140    1.99989
  298     -3.81484    1.99986
  299     -3.80022    1.99984
  300     -3.53484    1.99907
  301     -3.52797    1.99902
  302     -3.51337    1.99892
  303     -3.51143    1.99891
  304     -3.50921    1.99889
  305     -3.47379    1.99860
  306     -3.46473    1.99851
  307     -3.21262    1.99204
  308     -3.19465    1.99103
  309     -3.18720    1.99058
  310     -3.17425    1.98973
  311     -3.14727    1.98772
  312     -3.14267    1.98734
  313     -3.13964    1.98708
  314     -3.13157    1.98638
  315     -2.87715    1.92790
  316     -2.84970    1.91404
  317     -2.82163    1.89725
  318     -2.81904    1.89556
  319     -2.72833    1.81674
  320     -2.56423    1.53703
  321     -2.55317    1.51028
  322     -2.54570    1.49162
  323     -2.54455    1.48871
  324     -2.54236    1.48313
  325     -2.53451    1.46282
  326     -2.52534    1.43847
  327     -2.51735    1.41671
  328     -2.42108    1.12220
  329     -2.36229    0.92697
  330     -2.22676    0.51849
  331     -2.21480    0.48846
  332     -2.19030    0.43072
  333     -2.18932    0.42850
  334     -2.18611    0.42134
  335     -2.18586    0.42079
  336     -2.10860    0.27467
  337     -2.05155    0.19630
  338     -1.94688    0.10276
  339     -1.94602    0.10220
  340     -1.92225    0.08788
  341     -1.75863    0.03041
  342     -1.75518    0.02973
  343     -1.74137    0.02715
  344     -1.71473    0.02278
  345     -1.67210    0.01720
  346     -1.65518    0.01538
  347     -1.65019    0.01488
  348     -1.64385    0.01426
  349     -1.64278    0.01416
  350     -1.62946    0.01297
  351     -1.62028    0.01220
  352     -1.61346    0.01166
  353     -1.60988    0.01139
  354     -1.60489    0.01102
  355     -1.59024    0.01000
  356     -1.58982    0.00997
  357     -1.58355    0.00957
  358     -1.53512    0.00694
  359     -1.41931    0.00321
  360     -1.41369    0.00309
  361     -1.37215    0.00235
  362     -1.35074    0.00203
  363     -1.31461    0.00160
  364     -1.27351    0.00122

Fermi level: -2.38424

Gap: 0.059 eV
Transition (v -> c):
  (s=0, k=0, n=328, [0.00, 0.00, 0.00]) -> (s=0, k=0, n=329, [0.00, 0.00, 0.00])
No difference between direct/indirect transitions

Forces in eV/Ang:
  0 K    -0.00037   -0.00033   -0.02790
  1 K    -0.00546    0.00525   -0.03443
  2 K    -0.00285   -0.00579   -0.00790
  3 K    -0.00299    0.00059    0.00054
  4 K    -0.00630   -0.00310    0.00974
  5 K     0.03780    0.00060    0.01424
  6 K     0.00603    0.01679    0.02429
  7 K     0.00650    0.00022    0.02493
  8 K    -0.00038    0.00039   -0.02914
  9 K     0.00291   -0.00120   -0.02532
 10 K    -0.01842   -0.00588   -0.01713
 11 K    -0.00112   -0.00031    0.00964
 12 K    -0.00581    0.00407    0.01908
 13 K    -0.01507    0.00001    0.02891
 14 K     0.00759   -0.01881    0.03476
 15 K     0.00837   -0.00549    0.03347
 16 K    -0.00158   -0.00008   -0.02935
 17 K    -0.00682   -0.00408   -0.03190
 18 K    -0.00825    0.01120    0.00566
 19 K    -0.00112   -0.00026    0.00350
 20 K    -0.00238   -0.00087    0.01266
 21 K    -0.01819    0.00423    0.02503
 22 K     0.00191    0.00534    0.02914
 23 K     0.01119    0.00468    0.02594
 24 K    -0.00392    0.00102   -0.02450
 25 K    -0.00029   -0.00006   -0.03011
 26 K     0.00720   -0.00551   -0.00569
 27 K     0.01072    0.01017   -0.00348
 28 K    -0.00219    0.04735    0.04402
 29 K    -0.03391   -0.00043    0.01675
 30 K    -0.00644    0.01065    0.03993
 31 K    -0.00183   -0.00604    0.02019
 32 K     0.00576   -0.00634   -0.03101
 33 K     0.00102   -0.00121   -0.02634
 34 K     0.00749    0.00491   -0.01180
 35 K    -0.00482    0.04763   -0.06426
 36 K    -0.00503   -0.04225    0.03776
 37 K     0.01517    0.00040    0.02201
 38 K    -0.00293   -0.01123    0.02729
 39 K     0.00175   -0.01050    0.02431
 40 K     0.00580    0.00535   -0.03069
 41 K     0.00105    0.00125   -0.02756
 42 K    -0.00219    0.00062    0.01012
 43 K     0.01049   -0.05770   -0.07160
 44 K    -0.00016   -0.00273    0.02160
 45 K     0.01598   -0.00028    0.02917
 46 K    -0.00935    0.00105    0.02712
 47 K    -0.00232    0.00584    0.03301
 48 K     0.00431   -0.00033   -0.02681
 49 K     0.00576    0.00527   -0.03238
 50 K    -0.00465   -0.00089    0.00677
 51 K    -0.00726    0.01143   -0.00435
 52 K     0.00373   -0.00518    0.01258
 53 K    -0.00130   -0.00401    0.01019
 54 K     0.00092    0.00008    0.03069
 55 K    -0.00935    0.00374    0.02918
 56 K    -0.00539   -0.00495   -0.03348
 57 K    -0.00394    0.00071   -0.02803
 58 K     0.01045   -0.01062   -0.00253
 59 K     0.00575   -0.00034    0.00815
 60 K     0.00805    0.00700    0.01036
 61 K     0.00181    0.00093    0.00655
 62 K     0.00660   -0.00510    0.02811
 63 K    -0.00770   -0.00677    0.03184
 64 K    -0.00417    0.00526   -0.03367
 65 K     0.00575   -0.00598   -0.03472
 66 K     0.01044    0.01151   -0.00158
 67 K    -0.00924   -0.01120   -0.00132
 68 K     0.00423   -0.00492    0.00909
 69 K    -0.00175    0.00466    0.00958
 70 K     0.00797    0.00657    0.02706
 71 K    -0.01602    0.00108    0.02854
 72 K    -0.00062   -0.00310   -0.02259

System changes: positions 

Initializing position-dependent things.

Density initialized from wave functions
           .------------------------------------------------------.  
          /|                                                      |  
         / |                                                      |  
        /  |                                                      |  
       /   |                                                      |  
      /    |                                                      |  
     /     |                                                      |  
    /      |                                                      |  
   /       |                                                      |  
  /        |                                                      |  
 *         |                                                      |  
 |         |                                                      |  
 |         |                                                      |  
 |         |                                                      |  
 |       K |                K                 K                   |  
 |         |     K                 K                  K           |  
 |         |                                                      |  
 |    K    |         K  K    K             K    K                 K  
 |         |      K                  K                 K          |  
 |         |  K                 K                 K               |  
 | K       |              K            K    K                  K  |  
 |         |                                                      |  
 |        K|   K     K      K     K            K    K             |  
 |       K |                K            K    K            K      |  
 |         |           K                                          |  
 |         |K    K            K    K             K   K            |  
 |    K    |            K                  K                      |  
 |         |       K                 K                 K          |  
 |         | K                  K                 K               |  
 |      K  |              K                 K                     |  
 | K       |         K                 K                          |  
 |        K|   K             K   K             K    K             |  
 |  K      |           K                 K                        |  
 |         |                                                      |  
 |         |K                 K                  K                |  
 |         |                                                      |  
 K         |       K                  K                           |  
 |         |                                                      |  
 |         .------------------------------------------------------.  
 |        /                                                      /   
 |       /                                                      /    
 |      /                                                      /     
 |     /                                                      /      
 |    /                                                      /       
 |   /                                                      /        
 |  /                                                      /         
 | /                                                      /          
 |/                                                      /           
 *------------------------------------------------------*            

Atomic positions and initial magnetic moments

Positions:
   0 K      0.000000    0.000000   10.000000    ( 0.0000,  0.0000,  0.0000)
   1 K      3.698168    2.615000   10.000000    ( 0.0000,  0.0000,  0.0000)
   2 K      3.698168    0.000000   13.698168    ( 0.0000,  0.0000,  0.0000)
   3 K      0.000000    2.615000   13.698168    ( 0.0000,  0.0000,  0.0000)
   4 K     -0.004638   -0.003532   17.415233    ( 0.0000,  0.0000,  0.0000)
   5 K      3.642679    2.621181   17.377447    ( 0.0000,  0.0000,  0.0000)
   6 K      3.771333    0.059471   21.253516    ( 0.0000,  0.0000,  0.0000)
   7 K      0.006723    2.607081   21.186431    ( 0.0000,  0.0000,  0.0000)
   8 K      0.000000    5.230000   10.000000    ( 0.0000,  0.0000,  0.0000)
   9 K      3.698168    7.845000   10.000000    ( 0.0000,  0.0000,  0.0000)
  10 K      3.698168    5.230000   13.698168    ( 0.0000,  0.0000,  0.0000)
  11 K      0.000000    7.845000   13.698168    ( 0.0000,  0.0000,  0.0000)
  12 K     -0.005416    5.236763   17.427319    ( 0.0000,  0.0000,  0.0000)
  13 K      3.691563    7.837231   17.436236    ( 0.0000,  0.0000,  0.0000)
  14 K      3.764946    5.163324   21.251262    ( 0.0000,  0.0000,  0.0000)
  15 K      0.007934    7.837685   21.168161    ( 0.0000,  0.0000,  0.0000)
  16 K      0.000000   10.460000   10.000000    ( 0.0000,  0.0000,  0.0000)
  17 K      3.698168   13.075000   10.000000    ( 0.0000,  0.0000,  0.0000)
  18 K      3.698168   10.460000   13.698168    ( 0.0000,  0.0000,  0.0000)
  19 K      0.000000   13.075000   13.698168    ( 0.0000,  0.0000,  0.0000)
  20 K     -0.001827   10.456896   17.418124    ( 0.0000,  0.0000,  0.0000)
  21 K      3.666677   13.074068   17.443896    ( 0.0000,  0.0000,  0.0000)
  22 K      3.699163   10.462058   21.176342    ( 0.0000,  0.0000,  0.0000)
  23 K      0.009176   13.088768   21.186527    ( 0.0000,  0.0000,  0.0000)
  24 K      7.396337    0.000000   10.000000    ( 0.0000,  0.0000,  0.0000)
  25 K     11.094505    2.615000   10.000000    ( 0.0000,  0.0000,  0.0000)
  26 K     11.094505    0.000000   13.698168    ( 0.0000,  0.0000,  0.0000)
  27 K      7.396337    2.615000   13.698168    ( 0.0000,  0.0000,  0.0000)
  28 K      7.388673   -0.233441   17.177202    ( 0.0000,  0.0000,  0.0000)
  29 K     11.151834    2.612180   17.373944    ( 0.0000,  0.0000,  0.0000)
  30 K     11.026398    0.063992   21.252210    ( 0.0000,  0.0000,  0.0000)
  31 K      7.410053    2.623476   20.253446    ( 0.0000,  0.0000,  0.0000)
  32 K      7.396337    5.230000   10.000000    ( 0.0000,  0.0000,  0.0000)
  33 K     11.094505    7.845000   10.000000    ( 0.0000,  0.0000,  0.0000)
  34 K     11.094505    5.230000   13.698168    ( 0.0000,  0.0000,  0.0000)
  35 K      7.396337    7.845000   13.698168    ( 0.0000,  0.0000,  0.0000)
  36 K      7.397700    5.457613   17.169258    ( 0.0000,  0.0000,  0.0000)
  37 K     11.112476    7.839754   17.427261    ( 0.0000,  0.0000,  0.0000)
  38 K     11.030538    5.185859   21.252788    ( 0.0000,  0.0000,  0.0000)
  39 K      7.389563    7.786350   21.229597    ( 0.0000,  0.0000,  0.0000)
  40 K      7.396337   10.460000   10.000000    ( 0.0000,  0.0000,  0.0000)
  41 K     11.094505   13.075000   10.000000    ( 0.0000,  0.0000,  0.0000)
  42 K     11.094505   10.460000   13.698168    ( 0.0000,  0.0000,  0.0000)
  43 K      7.396337   13.075000   13.698168    ( 0.0000,  0.0000,  0.0000)
  44 K      7.406401   10.467933   17.446392    ( 0.0000,  0.0000,  0.0000)
  45 K     11.116825   13.084611   17.438276    ( 0.0000,  0.0000,  0.0000)
  46 K     11.087841   10.452885   21.188452    ( 0.0000,  0.0000,  0.0000)
  47 K      7.395182   13.131319   21.229275    ( 0.0000,  0.0000,  0.0000)
  48 K     14.792674    0.000000   10.000000    ( 0.0000,  0.0000,  0.0000)
  49 K     18.490842    2.615000   10.000000    ( 0.0000,  0.0000,  0.0000)
  50 K     18.490842    0.000000   13.698168    ( 0.0000,  0.0000,  0.0000)
  51 K     14.792674    2.615000   13.698168    ( 0.0000,  0.0000,  0.0000)
  52 K     14.809515   -0.005457   17.421311    ( 0.0000,  0.0000,  0.0000)
  53 K     18.499748    2.622598   17.428708    ( 0.0000,  0.0000,  0.0000)
  54 K     18.480594    0.001147   21.185784    ( 0.0000,  0.0000,  0.0000)
  55 K     14.783631    2.616522   21.175768    ( 0.0000,  0.0000,  0.0000)
  56 K     14.792674    5.230000   10.000000    ( 0.0000,  0.0000,  0.0000)
  57 K     18.490842    7.845000   10.000000    ( 0.0000,  0.0000,  0.0000)
  58 K     18.490842    5.230000   13.698168    ( 0.0000,  0.0000,  0.0000)
  59 K     14.792674    7.845000   13.698168    ( 0.0000,  0.0000,  0.0000)
  60 K     14.788873    5.225788   17.431412    ( 0.0000,  0.0000,  0.0000)
  61 K     18.478931    7.846453   17.410850    ( 0.0000,  0.0000,  0.0000)
  62 K     18.495160    5.226874   21.176856    ( 0.0000,  0.0000,  0.0000)
  63 K     14.796494    7.837711   21.184575    ( 0.0000,  0.0000,  0.0000)
  64 K     14.792674   10.460000   10.000000    ( 0.0000,  0.0000,  0.0000)
  65 K     18.490842   13.075000   10.000000    ( 0.0000,  0.0000,  0.0000)
  66 K     18.490842   10.460000   13.698168    ( 0.0000,  0.0000,  0.0000)
  67 K     14.792674   13.075000   13.698168    ( 0.0000,  0.0000,  0.0000)
  68 K     14.785656   10.467456   17.424476    ( 0.0000,  0.0000,  0.0000)
  69 K     18.500157   13.066476   17.422632    ( 0.0000,  0.0000,  0.0000)
  70 K     18.495910   10.462923   21.178050    ( 0.0000,  0.0000,  0.0000)
  71 K     14.780167   13.080050   21.175547    ( 0.0000,  0.0000,  0.0000)
  72 K      7.403775    2.622681   24.327108    ( 0.0000,  0.0000,  0.0000)

Unit cell:
           periodic     x           y           z      points  spacing
  1. axis:    yes   22.189011    0.000000    0.000000   112     0.1981
  2. axis:    yes    0.000000   15.690000    0.000000    80     0.1961
  3. axis:    no     0.000000    0.000000   31.094505   156     0.1993

  Lengths:  22.189011  15.690000  31.094505
  Angles:   90.000000  90.000000  90.000000

Effective grid spacing dv^(1/3) = 0.1979

     iter     time        total  log10-change:
                         energy   eigst   dens
iter:   1 22:29:25   -61.507052        c
iter:   2 22:30:11   -61.505580        c -3.18
iter:   3 22:30:59   -61.505673c       c -3.50
iter:   4 22:31:47   -61.505948c       c -3.66
iter:   5 22:32:34   -61.505885c       c -3.84
iter:   6 22:33:21   -61.505663c       c -4.07c

Converged after 6 iterations.

Dipole moment: (-89.659249, -50.096373, 0.434838) |e|*Ang

Energy contributions relative to reference atoms: (reference = -1195904.484944)

Kinetic:       +120.926528
Potential:     -104.174623
External:        +0.000000
XC:             -78.625182
Entropy (-ST):   -3.806922
Local:           +2.271074
SIC:             +0.000000
--------------------------
Free energy:    -63.409124
Extrapolated:   -61.505663

 Band  Eigenvalues  Occupancy
    0    -35.24695    2.00000
    1    -34.76389    2.00000
    2    -34.76362    2.00000
    3    -34.76304    2.00000
    4    -34.76240    2.00000
    5    -34.76197    2.00000
    6    -34.75860    2.00000
    7    -34.75795    2.00000
    8    -34.75755    2.00000
    9    -34.75729    2.00000
   10    -34.75722    2.00000
   11    -34.75715    2.00000
   12    -34.75695    2.00000
   13    -34.75645    2.00000
   14    -34.75613    2.00000
   15    -34.75542    2.00000
   16    -34.75538    2.00000
   17    -34.75494    2.00000
   18    -34.75438    2.00000
   19    -34.75416    2.00000
   20    -34.75397    2.00000
   21    -34.75393    2.00000
   22    -34.75352    2.00000
   23    -34.75342    2.00000
   24    -34.75299    2.00000
   25    -34.75289    2.00000
   26    -34.75252    2.00000
   27    -34.75247    2.00000
   28    -34.75029    2.00000
   29    -34.74987    2.00000
   30    -34.74674    2.00000
   31    -34.74611    2.00000
   32    -34.73650    2.00000
   33    -34.73548    2.00000
   34    -34.73512    2.00000
   35    -34.73439    2.00000
   36    -34.64923    2.00000
   37    -34.62026    2.00000
   38    -34.61941    2.00000
   39    -34.61227    2.00000
   40    -34.61093    2.00000
   41    -34.60982    2.00000
   42    -34.60922    2.00000
   43    -34.60779    2.00000
   44    -34.60713    2.00000
   45    -34.60634    2.00000
   46    -34.60601    2.00000
   47    -34.60584    2.00000
   48    -34.60545    2.00000
   49    -34.60461    2.00000
   50    -34.60424    2.00000
   51    -34.60318    2.00000
   52    -34.60246    2.00000
   53    -34.60199    2.00000
   54    -34.60101    2.00000
   55    -34.60023    2.00000
   56    -34.59764    2.00000
   57    -34.59706    2.00000
   58    -34.59649    2.00000
   59    -34.59621    2.00000
   60    -34.59607    2.00000
   61    -34.59572    2.00000
   62    -34.59510    2.00000
   63    -34.59493    2.00000
   64    -34.59458    2.00000
   65    -34.59433    2.00000
   66    -34.59421    2.00000
   67    -34.59405    2.00000
   68    -34.59362    2.00000
   69    -34.59315    2.00000
   70    -34.59290    2.00000
   71    -34.58244    2.00000
   72    -34.58186    2.00000
   73    -18.73994    2.00000
   74    -18.71340    2.00000
   75    -18.71030    2.00000
   76    -18.27072    2.00000
   77    -18.26933    2.00000
   78    -18.26442    2.00000
   79    -18.26354    2.00000
   80    -18.26264    2.00000
   81    -18.26138    2.00000
   82    -18.26131    2.00000
   83    -18.26103    2.00000
   84    -18.25990    2.00000
   85    -18.25951    2.00000
   86    -18.25910    2.00000
   87    -18.25888    2.00000
   88    -18.25753    2.00000
   89    -18.25736    2.00000
   90    -18.25720    2.00000
   91    -18.25681    2.00000
   92    -18.25641    2.00000
   93    -18.25583    2.00000
   94    -18.25546    2.00000
   95    -18.25486    2.00000
   96    -18.25473    2.00000
   97    -18.25435    2.00000
   98    -18.25427    2.00000
   99    -18.25409    2.00000
  100    -18.25383    2.00000
  101    -18.25362    2.00000
  102    -18.25341    2.00000
  103    -18.25325    2.00000
  104    -18.25304    2.00000
  105    -18.25291    2.00000
  106    -18.25253    2.00000
  107    -18.25175    2.00000
  108    -18.25162    2.00000
  109    -18.25129    2.00000
  110    -18.25050    2.00000
  111    -18.25044    2.00000
  112    -18.25019    2.00000
  113    -18.25011    2.00000
  114    -18.25010    2.00000
  115    -18.24995    2.00000
  116    -18.24980    2.00000
  117    -18.24920    2.00000
  118    -18.24910    2.00000
  119    -18.24901    2.00000
  120    -18.24877    2.00000
  121    -18.24854    2.00000
  122    -18.24748    2.00000
  123    -18.24726    2.00000
  124    -18.24725    2.00000
  125    -18.24674    2.00000
  126    -18.24670    2.00000
  127    -18.24612    2.00000
  128    -18.24508    2.00000
  129    -18.24354    2.00000
  130    -18.24280    2.00000
  131    -18.24271    2.00000
  132    -18.24233    2.00000
  133    -18.23914    2.00000
  134    -18.23780    2.00000
  135    -18.23684    2.00000
  136    -18.23621    2.00000
  137    -18.23265    2.00000
  138    -18.23216    2.00000
  139    -18.23028    2.00000
  140    -18.22941    2.00000
  141    -18.22873    2.00000
  142    -18.22823    2.00000
  143    -18.22774    2.00000
  144    -18.22772    2.00000
  145    -18.22762    2.00000
  146    -18.22680    2.00000
  147    -18.22668    2.00000
  148    -18.22567    2.00000
  149    -18.22505    2.00000
  150    -18.22462    2.00000
  151    -18.22311    2.00000
  152    -18.22198    2.00000
  153    -18.22155    2.00000
  154    -18.22151    2.00000
  155    -18.22102    2.00000
  156    -18.22075    2.00000
  157    -18.22052    2.00000
  158    -18.22024    2.00000
  159    -18.21914    2.00000
  160    -18.21887    2.00000
  161    -18.21847    2.00000
  162    -18.21828    2.00000
  163    -18.21793    2.00000
  164    -18.21618    2.00000
  165    -18.21594    2.00000
  166    -18.21584    2.00000
  167    -18.21110    2.00000
  168    -18.21043    2.00000
  169    -18.20803    2.00000
  170    -18.20783    2.00000
  171    -18.20760    2.00000
  172    -18.20740    2.00000
  173    -18.20736    2.00000
  174    -18.20736    2.00000
  175    -18.20733    2.00000
  176    -18.20653    2.00000
  177    -18.20568    2.00000
  178    -18.20484    2.00000
  179    -18.20262    2.00000
  180    -18.20159    2.00000
  181    -18.17322    2.00000
  182    -18.16051    2.00000
  183    -18.13268    2.00000
  184    -18.13069    2.00000
  185    -18.12798    2.00000
  186    -18.12481    2.00000
  187    -18.12414    2.00000
  188    -18.12303    2.00000
  189    -18.12146    2.00000
  190    -18.12111    2.00000
  191    -18.11987    2.00000
  192    -18.11929    2.00000
  193    -18.11705    2.00000
  194    -18.11666    2.00000
  195    -18.11650    2.00000
  196    -18.11454    2.00000
  197    -18.11439    2.00000
  198    -18.11391    2.00000
  199    -18.11295    2.00000
  200    -18.11091    2.00000
  201    -18.11045    2.00000
  202    -18.10930    2.00000
  203    -18.10842    2.00000
  204    -18.10819    2.00000
  205    -18.10786    2.00000
  206    -18.10761    2.00000
  207    -18.10690    2.00000
  208    -18.10583    2.00000
  209    -18.10552    2.00000
  210    -18.10308    2.00000
  211    -18.10300    2.00000
  212    -18.10216    2.00000
  213    -18.10173    2.00000
  214    -18.10091    2.00000
  215    -18.10078    2.00000
  216    -18.10044    2.00000
  217    -18.09981    2.00000
  218    -18.09957    2.00000
  219    -18.09913    2.00000
  220    -18.09699    2.00000
  221    -18.09584    2.00000
  222    -18.09558    2.00000
  223    -18.09457    2.00000
  224    -18.09392    2.00000
  225    -18.09234    2.00000
  226    -18.09188    2.00000
  227    -18.08959    2.00000
  228    -18.08814    2.00000
  229    -18.08794    2.00000
  230    -18.08737    2.00000
  231    -18.08720    2.00000
  232    -18.08687    2.00000
  233    -18.08562    2.00000
  234    -18.08545    2.00000
  235    -18.08456    2.00000
  236    -18.08451    2.00000
  237    -18.08426    2.00000
  238    -18.08306    2.00000
  239    -18.08267    2.00000
  240    -18.08231    2.00000
  241    -18.08146    2.00000
  242    -18.08056    2.00000
  243    -18.08031    2.00000
  244    -18.07942    2.00000
  245    -18.07927    2.00000
  246    -18.07851    2.00000
  247    -18.07841    2.00000
  248    -18.07808    2.00000
  249    -18.07795    2.00000
  250    -18.07705    2.00000
  251    -18.07659    2.00000
  252    -18.07582    2.00000
  253    -18.07577    2.00000
  254    -18.07541    2.00000
  255    -18.07442    2.00000
  256    -18.07410    2.00000
  257    -18.07268    2.00000
  258    -18.07260    2.00000
  259    -18.07206    2.00000
  260    -18.07140    2.00000
  261    -18.07122    2.00000
  262    -18.07109    2.00000
  263    -18.07007    2.00000
  264    -18.06987    2.00000
  265    -18.06979    2.00000
  266    -18.06961    2.00000
  267    -18.06849    2.00000
  268    -18.06828    2.00000
  269    -18.06792    2.00000
  270    -18.06736    2.00000
  271    -18.06695    2.00000
  272    -18.06624    2.00000
  273    -18.06578    2.00000
  274    -18.06566    2.00000
  275    -18.06540    2.00000
  276    -18.06536    2.00000
  277    -18.06471    2.00000
  278    -18.06455    2.00000
  279    -18.06257    2.00000
  280    -18.06191    2.00000
  281    -18.06164    2.00000
  282    -18.06100    2.00000
  283    -18.06081    2.00000
  284    -18.06073    2.00000
  285    -18.06017    2.00000
  286    -18.05907    2.00000
  287    -18.05849    2.00000
  288    -18.05754    2.00000
  289    -18.05577    2.00000
  290    -18.05534    2.00000
  291    -18.05520    2.00000
  292     -4.53892    2.00000
  293     -4.19674    1.99999
  294     -4.18339    1.99999
  295     -4.14924    1.99998
  296     -3.85122    1.99989
  297     -3.84968    1.99989
  298     -3.81393    1.99986
  299     -3.79924    1.99984
  300     -3.53444    1.99907
  301     -3.52432    1.99900
  302     -3.51094    1.99891
  303     -3.51014    1.99891
  304     -3.50667    1.99888
  305     -3.47278    1.99860
  306     -3.46368    1.99851
  307     -3.21313    1.99210
  308     -3.19174    1.99090
  309     -3.18469    1.99046
  310     -3.17418    1.98977
  311     -3.14650    1.98771
  312     -3.14150    1.98730
  313     -3.13850    1.98704
  314     -3.13063    1.98635
  315     -2.87740    1.92830
  316     -2.84916    1.91408
  317     -2.82076    1.89710
  318     -2.81828    1.89547
  319     -2.72976    1.81901
  320     -2.56456    1.53929
  321     -2.54974    1.50333
  322     -2.54254    1.48520
  323     -2.54206    1.48397
  324     -2.54041    1.47975
  325     -2.53441    1.46419
  326     -2.52506    1.43941
  327     -2.51729    1.41826
  328     -2.42191    1.12698
  329     -2.36381    0.93407
  330     -2.22643    0.51925
  331     -2.21492    0.49031
  332     -2.18931    0.42989
  333     -2.18832    0.42766
  334     -2.18505    0.42039
  335     -2.18467    0.41955
  336     -2.10935    0.27685
  337     -2.05256    0.19824
  338     -1.94405    0.10134
  339     -1.94341    0.10093
  340     -1.92250    0.08838
  341     -1.75953    0.03072
  342     -1.75657    0.03013
  343     -1.74300    0.02756
  344     -1.71604    0.02308
  345     -1.66924    0.01694
  346     -1.65267    0.01519
  347     -1.64822    0.01474
  348     -1.64107    0.01406
  349     -1.64009    0.01397
  350     -1.62949    0.01302
  351     -1.62031    0.01226
  352     -1.61312    0.01169
  353     -1.60797    0.01129
  354     -1.60418    0.01101
  355     -1.59009    0.01003
  356     -1.58910    0.00997
  357     -1.58311    0.00958
  358     -1.53676    0.00704
  359     -1.41977    0.00323
  360     -1.41475    0.00313
  361     -1.37104    0.00234
  362     -1.35131    0.00205
  363     -1.31547    0.00161
  364     -1.27281    0.00122

Fermi level: -2.38361

Gap: 0.058 eV
Transition (v -> c):
  (s=0, k=0, n=328, [0.00, 0.00, 0.00]) -> (s=0, k=0, n=329, [0.00, 0.00, 0.00])
No difference between direct/indirect transitions

Forces in eV/Ang:
  0 K    -0.00066   -0.00041   -0.02511
  1 K    -0.00574    0.00521   -0.03132
  2 K    -0.00214   -0.00575   -0.00332
  3 K    -0.00201    0.00124    0.00472
  4 K     0.00016    0.00428    0.01132
  5 K     0.00279   -0.00209    0.01761
  6 K     0.01001    0.00718    0.02925
  7 K     0.00501   -0.00094    0.01258
  8 K    -0.00073    0.00050   -0.02657
  9 K     0.00267   -0.00085   -0.02260
 10 K    -0.01793   -0.00516   -0.01178
 11 K    -0.00067   -0.00029    0.01237
 12 K     0.00278   -0.00368    0.01892
 13 K    -0.00103   -0.00107    0.01953
 14 K     0.00611   -0.00434    0.02615
 15 K     0.00559   -0.00127    0.02793
 16 K    -0.00163   -0.00011   -0.02686
 17 K    -0.00700   -0.00439   -0.02908
 18 K    -0.00954    0.01106    0.01200
 19 K    -0.00091   -0.00095    0.00548
 20 K    -0.00387   -0.00050    0.02064
 21 K     0.00123    0.00706    0.01037
 22 K    -0.00023    0.00727    0.02791
 23 K     0.01148    0.00264    0.01406
 24 K    -0.00389    0.00079   -0.02175
 25 K     0.00006   -0.00019   -0.02703
 26 K     0.00645   -0.00610   -0.00021
 27 K     0.01075    0.00997   -0.00531
 28 K     0.00996    0.00325    0.00956
 29 K     0.00136    0.00887    0.00513
 30 K    -0.00898    0.00835    0.03154
 31 K    -0.00023   -0.00084    0.02962
 32 K     0.00570   -0.00619   -0.02815
 33 K     0.00122   -0.00084   -0.02350
 34 K     0.00668    0.00497   -0.00678
 35 K    -0.00485    0.03942   -0.04755
 36 K     0.00532   -0.00524    0.02270
 37 K     0.00900   -0.00394    0.02440
 38 K    -0.00580   -0.01095    0.03050
 39 K    -0.00200   -0.00713    0.02173
 40 K     0.00578    0.00544   -0.02771
 41 K     0.00123    0.00102   -0.02482
 42 K    -0.00089    0.00106    0.01566
 43 K     0.01058   -0.04851   -0.05260
 44 K    -0.00032    0.00114    0.01412
 45 K    -0.00045    0.00341    0.01826
 46 K    -0.01086   -0.00119    0.01685
 47 K    -0.00430    0.00833    0.02163
 48 K     0.00455   -0.00041   -0.02406
 49 K     0.00575    0.00527   -0.02950
 50 K    -0.00482   -0.00038    0.00731
 51 K    -0.00817    0.01120   -0.00060
 52 K    -0.00288    0.00310    0.01940
 53 K    -0.00006    0.00035    0.01221
 54 K    -0.00092   -0.00020    0.01192
 55 K    -0.00616    0.00131    0.02323
 56 K    -0.00503   -0.00493   -0.03075
 57 K    -0.00389    0.00060   -0.02575
 58 K     0.01061   -0.01141   -0.00086
 59 K     0.00552   -0.00003    0.00856
 60 K     0.00186   -0.00515    0.01077
 61 K     0.00131    0.00079    0.01468
 62 K     0.00525   -0.00361    0.02332
 63 K    -0.00410   -0.00393    0.01407
 64 K    -0.00409    0.00531   -0.03115
 65 K     0.00573   -0.00587   -0.03251
 66 K     0.01055    0.01201   -0.00061
 67 K    -0.00969   -0.01173    0.00080
 68 K     0.00474    0.00001    0.01347
 69 K    -0.00061    0.00020    0.01369
 70 K     0.00452    0.00313    0.02290
 71 K    -0.01253    0.00124    0.02584
 72 K     0.00126   -0.00056   -0.01458

Timing:                                       incl.     excl.
--------------------------------------------------------------------
Basic WFS set positions:                      0.013     0.004   0.0% |
 Redistribute:                                0.010     0.010   0.0% |
Basis functions set positions:                2.977     2.977   0.2% |
Forces:                                     385.232     1.905   0.1% |
 LCAO forces:                               383.327     0.042   0.0% |
  Atomic Hamiltonian force:                   2.816     2.816   0.1% |
  Initial:                                    0.106     0.000   0.0% |
   Get density matrix:                        0.106     0.106   0.0% |
  Paw correction:                             2.659     2.659   0.1% |
  Potential:                                368.826   368.826  18.9% |-------|
  TCI derivative:                             8.878     8.878   0.5% |
  Wait for sum:                               0.000     0.000   0.0% |
LCAO WFS Initialize:                         53.553     1.166   0.1% |
 Density initialized from wave functions:    40.013     0.345   0.0% |
  Calculate density matrix:                   0.056     0.056   0.0% |
  Construct density:                         39.612    39.612   2.0% ||
  Symmetrize density:                         0.000     0.000   0.0% |
 Hamiltonian:                                12.374     0.000   0.0% |
  Atomic:                                     3.374     0.008   0.0% |
   XC Correction:                             3.366     3.366   0.2% |
  Calculate atomic Hamiltonians:              0.214     0.214   0.0% |
  Communicate:                                0.000     0.000   0.0% |
  Hartree integrate/restrict:                 0.144     0.144   0.0% |
  Initialize Hamiltonian:                     0.000     0.000   0.0% |
  Poisson:                                    3.800     0.239   0.0% |
   Communicate from 1D:                       0.481     0.481   0.0% |
   Communicate from 2D:                       0.293     0.293   0.0% |
   Communicate to 1D:                         0.198     0.198   0.0% |
   Communicate to 2D:                         0.838     0.838   0.0% |
   FFT 1D:                                    0.949     0.949   0.0% |
   FFT 2D:                                    0.804     0.804   0.0% |
  XC 3D grid:                                 4.751     4.751   0.2% |
  vbar:                                       0.090     0.090   0.0% |
P tci:                                        2.220     2.220   0.1% |
Redistribute:                                 0.000     0.000   0.0% |
SCF-cycle:                                 1493.478     0.051   0.0% |
 Density:                                   571.332     0.000   0.0% |
  Atomic density matrices:                    0.111     0.111   0.0% |
  Mix:                                        5.922     5.922   0.3% |
  Multipole moments:                          0.016     0.016   0.0% |
  Normalize:                                  0.020     0.020   0.0% |
  Pseudo density:                           565.263     0.259   0.0% |
   Calculate density matrix:                  0.304     0.304   0.0% |
   Construct density:                       564.699   564.699  28.9% |-----------|
   Symmetrize density:                        0.002     0.002   0.0% |
 Hamiltonian:                               115.011     0.006   0.0% |
  Atomic:                                    33.218     0.081   0.0% |
   XC Correction:                            33.136    33.136   1.7% ||
  Calculate atomic Hamiltonians:              1.705     1.705   0.1% |
  Communicate:                                0.000     0.000   0.0% |
  Hartree integrate/restrict:                 1.417     1.417   0.1% |
  Poisson:                                   34.876     2.189   0.1% |
   Communicate from 1D:                       5.076     5.076   0.3% |
   Communicate from 2D:                       2.852     2.852   0.1% |
   Communicate to 1D:                         1.852     1.852   0.1% |
   Communicate to 2D:                         6.544     6.544   0.3% |
   FFT 1D:                                    8.273     8.273   0.4% |
   FFT 2D:                                    8.089     8.089   0.4% |
  XC 3D grid:                                42.667    42.667   2.2% ||
  vbar:                                       1.121     1.121   0.1% |
 LCAO eigensolver:                          807.085     0.130   0.0% |
  Calculate projections:                      0.605     0.605   0.0% |
  DenseAtomicCorrection:                      7.319     7.319   0.4% |
  Distribute overlap matrix:                  0.002     0.002   0.0% |
  Orbital Layouts:                           14.369    14.369   0.7% |
  Potential matrix:                         784.660   784.660  40.2% |---------------|
ST tci:                                       4.773     4.773   0.2% |
Set symmetry:                                 0.001     0.001   0.0% |
TCI: Evaluate splines:                        0.059     0.059   0.0% |
mktci:                                        0.188     0.188   0.0% |
Other:                                        8.684     8.684   0.4% |
--------------------------------------------------------------------
Total:                                               1951.179 100.0%

Memory usage: 3.67 GiB
Date: Tue Nov 25 22:35:20 2025
