73
Lattice="22.189010793633862 0.0 0.0 0.0 15.690000000000001 0.0 0.0 0.0 31.09450539681693" Properties=species:S:1:pos:R:3:move_mask:L:1:tags:I:1:magmoms:R:1:forces:R:3 energy=-61.5056634483858 free_energy=-63.409124322911104 dipole="-89.65924894187734 -50.09637264549473 0.43483784996361624" magmom=0.0 pbc="T T F"
K        0.00000000       0.00000000      10.00000000  F        4       0.00000000      -0.00066161      -0.00041202      -0.02510518
K        3.69816847       2.61500000      10.00000000  F        4       0.00000000      -0.00574010       0.00521429      -0.03132187
K        3.69816847       0.00000000      13.69816847  F        3       0.00000000      -0.00214400      -0.00574972      -0.00331604
K        0.00000000       2.61500000      13.69816847  F        3       0.00000000      -0.00201193       0.00124169       0.00472353
K       -0.00463750      -0.00353188      17.41523313  T        2       0.00000000       0.00016278       0.00428155       0.01132030
K        3.64267927       2.62118067      17.37744685  T        2       0.00000000       0.00279133      -0.00208668       0.01760732
K        3.77133270       0.05947114      21.25351614  T        1       0.00000000       0.01001500       0.00718065       0.02925361
K        0.00672342       2.60708106      21.18643091  T        1       0.00000000       0.00501015      -0.00093548       0.01258382
K        0.00000000       5.23000000      10.00000000  F        4       0.00000000      -0.00073039       0.00050047      -0.02656847
K        3.69816847       7.84500000      10.00000000  F        4       0.00000000       0.00267249      -0.00085077      -0.02260078
K        3.69816847       5.23000000      13.69816847  F        3       0.00000000      -0.01793490      -0.00516363      -0.01177842
K        0.00000000       7.84500000      13.69816847  F        3       0.00000000      -0.00067216      -0.00028908       0.01236969
K       -0.00541634       5.23676323      17.42731904  T        2       0.00000000       0.00277594      -0.00367648       0.01891606
K        3.69156277       7.83723058      17.43623642  T        2       0.00000000      -0.00102953      -0.00107439       0.01952777
K        3.76494580       5.16332392      21.25126219  T        1       0.00000000       0.00611181      -0.00433531       0.02615410
K        0.00793398       7.83768533      21.16816133  T        1       0.00000000       0.00558862      -0.00127392       0.02793385
K        0.00000000      10.46000000      10.00000000  F        4       0.00000000      -0.00162596      -0.00011435      -0.02685554
K        3.69816847      13.07500000      10.00000000  F        4       0.00000000      -0.00700008      -0.00438657      -0.02908366
K        3.69816847      10.46000000      13.69816847  F        3       0.00000000      -0.00954428       0.01105653       0.01199552
K        0.00000000      13.07500000      13.69816847  F        3       0.00000000      -0.00091253      -0.00094821       0.00548124
K       -0.00182690      10.45689559      17.41812356  T        2       0.00000000      -0.00387360      -0.00049562       0.02063802
K        3.66667678      13.07406828      17.44389633  T        2       0.00000000       0.00122672       0.00706182       0.01036750
K        3.69916291      10.46205761      21.17634209  T        1       0.00000000      -0.00023377       0.00726973       0.02790700
K        0.00917555      13.08876847      21.18652709  T        1       0.00000000       0.01147750       0.00264486       0.01406123
K        7.39633693       0.00000000      10.00000000  F        4       0.00000000      -0.00389497       0.00078532      -0.02175009
K       11.09450540       2.61500000      10.00000000  F        4       0.00000000       0.00005739      -0.00019470      -0.02703068
K       11.09450540       0.00000000      13.69816847  F        3       0.00000000       0.00645023      -0.00609565      -0.00021039
K        7.39633693       2.61500000      13.69816847  F        3       0.00000000       0.01075038       0.00997276      -0.00530939
K        7.38867312      -0.23344077      17.17720213  T        2       0.00000000       0.00996097       0.00324539       0.00956442
K       11.15183364       2.61217973      17.37394430  T        2       0.00000000       0.00135734       0.00887006       0.00512931
K       11.02639789       0.06399177      21.25221037  T        1       0.00000000      -0.00898189       0.00835390       0.03153520
K        7.41005307       2.62347627      20.25344594  T        1       0.00000000      -0.00023373      -0.00084473       0.02962029
K        7.39633693       5.23000000      10.00000000  F        4       0.00000000       0.00569555      -0.00618753      -0.02814865
K       11.09450540       7.84500000      10.00000000  F        4       0.00000000       0.00122168      -0.00083729      -0.02350129
K       11.09450540       5.23000000      13.69816847  F        3       0.00000000       0.00667873       0.00496998      -0.00678078
K        7.39633693       7.84500000      13.69816847  F        3       0.00000000      -0.00484557       0.03942381      -0.04754765
K        7.39770044       5.45761289      17.16925834  T        2       0.00000000       0.00532405      -0.00523596       0.02269747
K       11.11247550       7.83975397      17.42726096  T        2       0.00000000       0.00900188      -0.00394337       0.02439688
K       11.03053813       5.18585857      21.25278816  T        1       0.00000000      -0.00579566      -0.01095038       0.03049850
K        7.38956307       7.78634999      21.22959710  T        1       0.00000000      -0.00200454      -0.00712867       0.02173371
K        7.39633693      10.46000000      10.00000000  F        4       0.00000000       0.00578170       0.00543701      -0.02771068
K       11.09450540      13.07500000      10.00000000  F        4       0.00000000       0.00122838       0.00101940      -0.02481698
K       11.09450540      10.46000000      13.69816847  F        3       0.00000000      -0.00089362       0.00105848       0.01565598
K        7.39633693      13.07500000      13.69816847  F        3       0.00000000       0.01058267      -0.04850839      -0.05260117
K        7.40640050      10.46793253      17.44639222  T        2       0.00000000      -0.00031965       0.00113578       0.01411634
K       11.11682470      13.08461112      17.43827566  T        2       0.00000000      -0.00045250       0.00341307       0.01825662
K       11.08784133      10.45288524      21.18845186  T        1       0.00000000      -0.01086360      -0.00119459       0.01685457
K        7.39518223      13.13131883      21.22927505  T        1       0.00000000      -0.00430181       0.00832562       0.02163209
K       14.79267386       0.00000000      10.00000000  F        4       0.00000000       0.00455414      -0.00041462      -0.02405754
K       18.49084233       2.61500000      10.00000000  F        4       0.00000000       0.00574677       0.00526717      -0.02950228
K       18.49084233       0.00000000      13.69816847  F        3       0.00000000      -0.00481763      -0.00038467       0.00730697
K       14.79267386       2.61500000      13.69816847  F        3       0.00000000      -0.00817442       0.01119816      -0.00060281
K       14.80951489      -0.00545678      17.42131138  T        2       0.00000000      -0.00287880       0.00310298       0.01939590
K       18.49974765       2.62259782      17.42870845  T        2       0.00000000      -0.00006493       0.00035184       0.01220552
K       18.48059426       0.00114672      21.18578390  T        1       0.00000000      -0.00092190      -0.00019679       0.01191692
K       14.78363067       2.61652189      21.17576755  T        1       0.00000000      -0.00615647       0.00131366       0.02323304
K       14.79267386       5.23000000      10.00000000  F        4       0.00000000      -0.00502595      -0.00492817      -0.03074540
K       18.49084233       7.84500000      10.00000000  F        4       0.00000000      -0.00388817       0.00060453      -0.02574849
K       18.49084233       5.23000000      13.69816847  F        3       0.00000000       0.01061017      -0.01140626      -0.00085706
K       14.79267386       7.84500000      13.69816847  F        3       0.00000000       0.00552226      -0.00002780       0.00855775
K       14.78887348       5.22578841      17.43141248  T        2       0.00000000       0.00185680      -0.00514722       0.01077036
K       18.47893101       7.84645332      17.41084972  T        2       0.00000000       0.00130946       0.00078883       0.01468014
K       18.49515989       5.22687391      21.17685642  T        1       0.00000000       0.00524523      -0.00360531       0.02332109
K       14.79649353       7.83771087      21.18457487  T        1       0.00000000      -0.00410425      -0.00392802       0.01406990
K       14.79267386      10.46000000      10.00000000  F        4       0.00000000      -0.00408648       0.00531050      -0.03115192
K       18.49084233      13.07500000      10.00000000  F        4       0.00000000       0.00572777      -0.00586933      -0.03251072
K       18.49084233      10.46000000      13.69816847  F        3       0.00000000       0.01055147       0.01201220      -0.00060952
K       14.79267386      13.07500000      13.69816847  F        3       0.00000000      -0.00969487      -0.01172512       0.00080051
K       14.78565623      10.46745636      17.42447585  T        2       0.00000000       0.00474287       0.00001268       0.01346860
K       18.50015727      13.06647612      17.42263228  T        2       0.00000000      -0.00060557       0.00019565       0.01368930
K       18.49591020      10.46292250      21.17805000  T        1       0.00000000       0.00451656       0.00312817       0.02290285
K       14.78016651      13.08005023      21.17554661  T        1       0.00000000      -0.01253329       0.00124007       0.02584045
K        7.40377503       2.62268147      24.32710818  T        0       0.00000000       0.00125650      -0.00055703      -0.01457963
