
  ___ ___ ___ _ _ _  
 |   |   |_  | | | | 
 | | | | | . | | | | 
 |__ |  _|___|_____|  25.7.0
 |___|_|             

User:   tew@Mathuss-MacBook-Air-357.local
Date:   Tue Nov 25 15:57:45 2025
Arch:   arm64
Pid:    59290
CWD:    /Users/tew/Documents/Project/GitHub/chem-com
Python: 3.13.5
gpaw:   /Users/tew/Documents/Project/GitHub/chem-com/.venv/lib/python3.13/site-packages/gpaw
_gpaw:  /Users/tew/Documents/Project/GitHub/chem-com/.venv/lib/python3.13/site-packages/
        _gpaw.cpython-313-darwin.so
ase:    /Users/tew/Documents/Project/GitHub/chem-com/.venv/lib/python3.13/site-packages/ase (version 3.26.0)
numpy:  /Users/tew/Documents/Project/GitHub/chem-com/.venv/lib/python3.13/site-packages/numpy (version 2.3.5)
scipy:  /Users/tew/Documents/Project/GitHub/chem-com/.venv/lib/python3.13/site-packages/scipy (version 1.16.3)
libxc:  2.x.y
units:  Angstrom and eV
cores: 1
OpenMP: False
OMP_NUM_THREADS: 1

Input parameters:
  basis: dzp
  convergence: {density: 0.0001,
                eigenstates: 5e-06}
  kpts: [1 1 1]
  mode: {interpolation: 3,
         name: lcao}
  occupations: {fixmagmom: False,
                name: fermi-dirac,
                width: 0.15}
  xc: PBE

System changes: positions, numbers, cell, pbc, initial_charges, initial_magmoms 

Initialize ...

species:
  K:
    name: Potassium
    id: 04190408da443a44668134082ce1c192
    Z: 19.0
    valence: 9
    core: 10
    charge: 0.0
    file: /Users/tew/Documents/Project/GitHub/chem-com/.venv/lib/python3.13/site-packages/gpaw_data/setups/K.PBE.gz
    compensation charges: {type: gauss,
                           rc: 0.35,
                           lmax: 2}
    cutoffs: {filter: 1.91,
              core: 1.27}
    projectors:
      #              energy  rcut
      - 3s(2.00)   -35.338   1.122
      - 4s(1.00)    -2.319   1.122
      - 3p(6.00)   -18.813   1.106
      -  p           8.398   1.106
      -  d           0.000   0.937
  
    # LCAO basis set for K:
    #   Name: dzp
    #   File: /Users/tew/Documents/Project/GitHub/chem-com/.venv/lib/python3.13/site-packages/gpaw_data/setups/K.dzp.basis.gz
    #   Number of radial functions: 9
    #   Number of spherical harmonics: 19
    #     l=0, rc=4.2656 Bohr: 3s-sz confined orbital
    #     l=0, rc=13.1094 Bohr: 4s-sz confined orbital
    #     l=1, rc=5.0312 Bohr: 3p-sz confined orbital
    #     l=1, rc=16.0000 Bohr: 4p-sz confined orbital
    #     l=0, rc=2.3594 Bohr: 3s-dz split-valence wave
    #     l=0, rc=8.1719 Bohr: 4s-dz split-valence wave
    #     l=1, rc=2.8906 Bohr: 3p-dz split-valence wave
    #     l=1, rc=10.2812 Bohr: 4p-dz split-valence wave
    #     l=1, rc=13.1094 Bohr: p-type Gaussian polarization
    #   Number of RI-basis functions 0

Reference energy: -1195904.484944  # eV

Spin-paired calculation

Convergence criteria:
 Maximum [total energy] change in last 3 cyles: 0.0005 eV / valence electron
 Maximum integral of absolute [dens]ity change: 0.0001 electrons / valence electron
 Maximum integral of absolute [eigenst]ate change: 5e-06 eV^2 / valence electron
 Maximum number of scf [iter]ations: 333
 (Square brackets indicate name in SCF output, whereas a 'c' in
 the SCF output indicates the quantity has converged.)

Symmetries present (total): 2

  ( 1  0  0)  ( 1  0  0)
  ( 0  1  0)  ( 0 -1  0)
  ( 0  0  1)  ( 0  0  1)

1 k-point (Gamma)
1 k-point in the irreducible part of the Brillouin zone
       k-points in crystal coordinates                weights
   0:     0.00000000    0.00000000    0.00000000          1/1

Wave functions: LCAO
  Diagonalizer: Serial LAPACK
  Atomic Correction: dense with blas
  Data-type: float
 

Occupation numbers: Fermi-Dirac:
  width: 0.1500  # eV
 

Eigensolver
   LCAO using direct dense diagonalizer 

Densities:
  Coarse grid: 112*80*156 grid
  Fine grid: 224*160*312 grid
  Total Charge: 0.000000 

Density mixing:
  Method: separate
  Backend: pulay
  Linear mixing parameter: 0.05
  old densities: 5
  Damping of long wavelength oscillations: 50 

Hamiltonian:
  XC and Coulomb potentials evaluated on a 224*160*312 grid
  Using the PBE Exchange-Correlation functional
  Interpolation: tri-quintic (5. degree polynomial)
  Poisson solver: FastPoissonSolver using
    Stencil: 6*3+1=19 point O(h^6) finite-difference Laplacian
    FFT axes: [np.int64(0), np.int64(1)]
    FST axes: [np.int64(2)]
 

XC parameters: PBE with 2 nearest neighbor stencil

Memory estimate:
  Process memory now: 3741.42 MiB
  Calculator: 2004.64 MiB
    Density: 627.85 MiB
      Arrays: 276.31 MiB
      Localized functions: 245.59 MiB
      Mixer: 105.96 MiB
    Hamiltonian: 197.33 MiB
      Arrays: 180.67 MiB
      XC: 0.00 MiB
      Poisson: 0.00 MiB
      vbar: 16.66 MiB
    Wavefunctions: 1179.45 MiB
      C [qnM]: 3.86 MiB
      S, T [2 x qmm]: 29.35 MiB
      P [aqMi]: 1.26 MiB
      BasisFunctions: 1144.98 MiB
      Eigensolver: 0.00 MiB

Total number of cores used: 1

Number of atoms: 73
Number of atomic orbitals: 1387
Number of bands in calculation: 365
Number of valence electrons: 657
Bands to converge: occupied

... initialized

Initializing position-dependent things.

Density initialized from atomic densities
           .------------------------------------------------------.  
          /|                                                      |  
         / |                                                      |  
        /  |                                                      |  
       /   |                                                      |  
      /    |                                                      |  
     /     |                                                      |  
    /      |                                                      |  
   /       |                                                      |  
  /        |                                                      |  
 *         |                                                      |  
 |         |                                                      |  
 |         |                                                      |  
 |         |                                                      |  
 |       K |                K                 K                   |  
 |         |                                                      |  
 |         |     K                 K                  K           |  
 |    K    |            K                  K                      |  
 |         |       K                 K                 K          |  
 |         | K                  K                 K               |  
 |      K K|              K                 K                     |  
 | K       |         K                 K                          |  
 |        K|   K             K   K             K    K             |  
 |  K    K |           K    K            K    K                   |  
 |         |                                                      |  
 |         |K    K            K    K             K   K            |  
 |    K    |            K                  K                      |  
 K         |       K                 KK                K          |  
 |         | K                  K                 K               |  
 |      K  |              K                 K                     |  
 | K       |         K                 K                          |  
 |        K|   K             K   K             K    K             |  
 |  K      |           K                 K                        |  
 |         |                                                      |  
 |         |K                 K                  K                |  
 |         |                                                      |  
 K         |       K                  K                           |  
 |         |                                                      |  
 |         .------------------------------------------------------.  
 |        /                                                      /   
 |       /                                                      /    
 |      /                                                      /     
 |     /                                                      /      
 |    /                                                      /       
 |   /                                                      /        
 |  /                                                      /         
 | /                                                      /          
 |/                                                      /           
 *------------------------------------------------------*            

Atomic positions and initial magnetic moments

Positions:
   0 K      0.000000    0.000000   10.000000    ( 0.0000,  0.0000,  0.0000)
   1 K      3.698168    2.615000   10.000000    ( 0.0000,  0.0000,  0.0000)
   2 K      3.698168    0.000000   13.698168    ( 0.0000,  0.0000,  0.0000)
   3 K      0.000000    2.615000   13.698168    ( 0.0000,  0.0000,  0.0000)
   4 K      0.000000    0.000000   17.396337    ( 0.0000,  0.0000,  0.0000)
   5 K      3.698168    2.615000   17.396337    ( 0.0000,  0.0000,  0.0000)
   6 K      3.698168    0.000000   21.094505    ( 0.0000,  0.0000,  0.0000)
   7 K      0.000000    2.615000   21.094505    ( 0.0000,  0.0000,  0.0000)
   8 K      0.000000    5.230000   10.000000    ( 0.0000,  0.0000,  0.0000)
   9 K      3.698168    7.845000   10.000000    ( 0.0000,  0.0000,  0.0000)
  10 K      3.698168    5.230000   13.698168    ( 0.0000,  0.0000,  0.0000)
  11 K      0.000000    7.845000   13.698168    ( 0.0000,  0.0000,  0.0000)
  12 K      0.000000    5.230000   17.396337    ( 0.0000,  0.0000,  0.0000)
  13 K      3.698168    7.845000   17.396337    ( 0.0000,  0.0000,  0.0000)
  14 K      3.698168    5.230000   21.094505    ( 0.0000,  0.0000,  0.0000)
  15 K      0.000000    7.845000   21.094505    ( 0.0000,  0.0000,  0.0000)
  16 K      0.000000   10.460000   10.000000    ( 0.0000,  0.0000,  0.0000)
  17 K      3.698168   13.075000   10.000000    ( 0.0000,  0.0000,  0.0000)
  18 K      3.698168   10.460000   13.698168    ( 0.0000,  0.0000,  0.0000)
  19 K      0.000000   13.075000   13.698168    ( 0.0000,  0.0000,  0.0000)
  20 K      0.000000   10.460000   17.396337    ( 0.0000,  0.0000,  0.0000)
  21 K      3.698168   13.075000   17.396337    ( 0.0000,  0.0000,  0.0000)
  22 K      3.698168   10.460000   21.094505    ( 0.0000,  0.0000,  0.0000)
  23 K      0.000000   13.075000   21.094505    ( 0.0000,  0.0000,  0.0000)
  24 K      7.396337    0.000000   10.000000    ( 0.0000,  0.0000,  0.0000)
  25 K     11.094505    2.615000   10.000000    ( 0.0000,  0.0000,  0.0000)
  26 K     11.094505    0.000000   13.698168    ( 0.0000,  0.0000,  0.0000)
  27 K      7.396337    2.615000   13.698168    ( 0.0000,  0.0000,  0.0000)
  28 K      7.396337    0.000000   17.396337    ( 0.0000,  0.0000,  0.0000)
  29 K     11.094505    2.615000   17.396337    ( 0.0000,  0.0000,  0.0000)
  30 K     11.094505    0.000000   21.094505    ( 0.0000,  0.0000,  0.0000)
  31 K      7.396337    2.615000   21.094505    ( 0.0000,  0.0000,  0.0000)
  32 K      7.396337    5.230000   10.000000    ( 0.0000,  0.0000,  0.0000)
  33 K     11.094505    7.845000   10.000000    ( 0.0000,  0.0000,  0.0000)
  34 K     11.094505    5.230000   13.698168    ( 0.0000,  0.0000,  0.0000)
  35 K      7.396337    7.845000   13.698168    ( 0.0000,  0.0000,  0.0000)
  36 K      7.396337    5.230000   17.396337    ( 0.0000,  0.0000,  0.0000)
  37 K     11.094505    7.845000   17.396337    ( 0.0000,  0.0000,  0.0000)
  38 K     11.094505    5.230000   21.094505    ( 0.0000,  0.0000,  0.0000)
  39 K      7.396337    7.845000   21.094505    ( 0.0000,  0.0000,  0.0000)
  40 K      7.396337   10.460000   10.000000    ( 0.0000,  0.0000,  0.0000)
  41 K     11.094505   13.075000   10.000000    ( 0.0000,  0.0000,  0.0000)
  42 K     11.094505   10.460000   13.698168    ( 0.0000,  0.0000,  0.0000)
  43 K      7.396337   13.075000   13.698168    ( 0.0000,  0.0000,  0.0000)
  44 K      7.396337   10.460000   17.396337    ( 0.0000,  0.0000,  0.0000)
  45 K     11.094505   13.075000   17.396337    ( 0.0000,  0.0000,  0.0000)
  46 K     11.094505   10.460000   21.094505    ( 0.0000,  0.0000,  0.0000)
  47 K      7.396337   13.075000   21.094505    ( 0.0000,  0.0000,  0.0000)
  48 K     14.792674    0.000000   10.000000    ( 0.0000,  0.0000,  0.0000)
  49 K     18.490842    2.615000   10.000000    ( 0.0000,  0.0000,  0.0000)
  50 K     18.490842    0.000000   13.698168    ( 0.0000,  0.0000,  0.0000)
  51 K     14.792674    2.615000   13.698168    ( 0.0000,  0.0000,  0.0000)
  52 K     14.792674    0.000000   17.396337    ( 0.0000,  0.0000,  0.0000)
  53 K     18.490842    2.615000   17.396337    ( 0.0000,  0.0000,  0.0000)
  54 K     18.490842    0.000000   21.094505    ( 0.0000,  0.0000,  0.0000)
  55 K     14.792674    2.615000   21.094505    ( 0.0000,  0.0000,  0.0000)
  56 K     14.792674    5.230000   10.000000    ( 0.0000,  0.0000,  0.0000)
  57 K     18.490842    7.845000   10.000000    ( 0.0000,  0.0000,  0.0000)
  58 K     18.490842    5.230000   13.698168    ( 0.0000,  0.0000,  0.0000)
  59 K     14.792674    7.845000   13.698168    ( 0.0000,  0.0000,  0.0000)
  60 K     14.792674    5.230000   17.396337    ( 0.0000,  0.0000,  0.0000)
  61 K     18.490842    7.845000   17.396337    ( 0.0000,  0.0000,  0.0000)
  62 K     18.490842    5.230000   21.094505    ( 0.0000,  0.0000,  0.0000)
  63 K     14.792674    7.845000   21.094505    ( 0.0000,  0.0000,  0.0000)
  64 K     14.792674   10.460000   10.000000    ( 0.0000,  0.0000,  0.0000)
  65 K     18.490842   13.075000   10.000000    ( 0.0000,  0.0000,  0.0000)
  66 K     18.490842   10.460000   13.698168    ( 0.0000,  0.0000,  0.0000)
  67 K     14.792674   13.075000   13.698168    ( 0.0000,  0.0000,  0.0000)
  68 K     14.792674   10.460000   17.396337    ( 0.0000,  0.0000,  0.0000)
  69 K     18.490842   13.075000   17.396337    ( 0.0000,  0.0000,  0.0000)
  70 K     18.490842   10.460000   21.094505    ( 0.0000,  0.0000,  0.0000)
  71 K     14.792674   13.075000   21.094505    ( 0.0000,  0.0000,  0.0000)
  72 K      3.698168    0.000000   23.094505    ( 0.0000,  0.0000,  0.0000)

Unit cell:
           periodic     x           y           z      points  spacing
  1. axis:    yes   22.189011    0.000000    0.000000   112     0.1981
  2. axis:    yes    0.000000   15.690000    0.000000    80     0.1961
  3. axis:    no     0.000000    0.000000   31.094505   156     0.1993

  Lengths:  22.189011  15.690000  31.094505
  Angles:   90.000000  90.000000  90.000000

Effective grid spacing dv^(1/3) = 0.1979

     iter     time        total  log10-change:
                         energy   eigst   dens
iter:   1 15:58:16   -60.007003        c
iter:   2 15:58:55   -58.974427        c -1.50
iter:   3 15:59:53   -57.326972        c -1.57
iter:   4 16:01:12   -56.188070        c -1.73
iter:   5 16:02:49   -56.157986        c -2.07
iter:   6 16:05:49   -56.138962c       c -2.11
iter:   7 16:07:27   -56.113121c       c -2.39
iter:   8 16:08:41   -56.103851c       c -2.50
iter:   9 16:10:13   -56.097559c       c -2.63
iter:  10 16:11:41   -56.095199c       c -2.77
iter:  11 16:13:06   -56.093798c       c -3.05
iter:  12 16:14:41   -56.093661c       c -3.39
iter:  13 16:17:28   -56.093874c       c -3.49
iter:  14 16:20:04   -56.094153c       c -3.73
iter:  15 16:22:07   -56.094270c       c -3.96
iter:  16 16:24:16   -56.094267c       c -4.11c

Converged after 16 iterations.

Dipole moment: (-87.646885, -65.342871, 0.150935) |e|*Ang

Energy contributions relative to reference atoms: (reference = -1195904.484944)

Kinetic:       +156.886331
Potential:     -129.825410
External:        +0.000000
XC:             -83.552444
Entropy (-ST):   -3.776551
Local:           +2.285531
SIC:             +0.000000
--------------------------
Free energy:    -57.982543
Extrapolated:   -56.094267

 Band  Eigenvalues  Occupancy
    0    -38.19499    2.00000
    1    -35.37372    2.00000
    2    -34.80141    2.00000
    3    -34.79873    2.00000
    4    -34.79831    2.00000
    5    -34.79401    2.00000
    6    -34.79350    2.00000
    7    -34.79299    2.00000
    8    -34.79249    2.00000
    9    -34.79212    2.00000
   10    -34.79210    2.00000
   11    -34.79193    2.00000
   12    -34.79192    2.00000
   13    -34.79182    2.00000
   14    -34.79150    2.00000
   15    -34.79067    2.00000
   16    -34.79021    2.00000
   17    -34.78982    2.00000
   18    -34.78970    2.00000
   19    -34.78914    2.00000
   20    -34.78911    2.00000
   21    -34.78905    2.00000
   22    -34.78884    2.00000
   23    -34.78874    2.00000
   24    -34.78865    2.00000
   25    -34.78801    2.00000
   26    -34.78729    2.00000
   27    -34.78196    2.00000
   28    -34.78148    2.00000
   29    -34.77878    2.00000
   30    -34.77816    2.00000
   31    -34.77634    2.00000
   32    -34.77593    2.00000
   33    -34.72964    2.00000
   34    -34.72902    2.00000
   35    -34.72899    2.00000
   36    -34.72884    2.00000
   37    -34.64230    2.00000
   38    -34.64169    2.00000
   39    -34.64137    2.00000
   40    -34.63906    2.00000
   41    -34.63766    2.00000
   42    -34.63681    2.00000
   43    -34.63532    2.00000
   44    -34.63486    2.00000
   45    -34.63460    2.00000
   46    -34.63451    2.00000
   47    -34.63394    2.00000
   48    -34.63390    2.00000
   49    -34.63348    2.00000
   50    -34.63334    2.00000
   51    -34.63327    2.00000
   52    -34.63307    2.00000
   53    -34.63277    2.00000
   54    -34.63260    2.00000
   55    -34.63255    2.00000
   56    -34.63238    2.00000
   57    -34.63217    2.00000
   58    -34.63188    2.00000
   59    -34.63115    2.00000
   60    -34.63102    2.00000
   61    -34.63099    2.00000
   62    -34.63069    2.00000
   63    -34.63069    2.00000
   64    -34.63035    2.00000
   65    -34.63013    2.00000
   66    -34.63013    2.00000
   67    -34.62994    2.00000
   68    -34.62837    2.00000
   69    -34.62829    2.00000
   70    -34.62809    2.00000
   71    -34.62770    2.00000
   72    -34.62735    2.00000
   73    -22.78279    2.00000
   74    -20.59060    2.00000
   75    -20.58597    2.00000
   76    -18.99348    2.00000
   77    -18.98976    2.00000
   78    -18.30534    2.00000
   79    -18.30110    2.00000
   80    -18.30049    2.00000
   81    -18.29739    2.00000
   82    -18.29728    2.00000
   83    -18.29673    2.00000
   84    -18.29618    2.00000
   85    -18.29508    2.00000
   86    -18.29470    2.00000
   87    -18.29439    2.00000
   88    -18.29356    2.00000
   89    -18.29331    2.00000
   90    -18.29242    2.00000
   91    -18.29221    2.00000
   92    -18.29179    2.00000
   93    -18.29171    2.00000
   94    -18.29121    2.00000
   95    -18.29089    2.00000
   96    -18.29081    2.00000
   97    -18.29061    2.00000
   98    -18.29038    2.00000
   99    -18.29038    2.00000
  100    -18.28991    2.00000
  101    -18.28925    2.00000
  102    -18.28886    2.00000
  103    -18.28841    2.00000
  104    -18.28793    2.00000
  105    -18.28785    2.00000
  106    -18.28729    2.00000
  107    -18.28706    2.00000
  108    -18.28661    2.00000
  109    -18.28650    2.00000
  110    -18.28642    2.00000
  111    -18.28619    2.00000
  112    -18.28601    2.00000
  113    -18.28569    2.00000
  114    -18.28542    2.00000
  115    -18.28534    2.00000
  116    -18.28432    2.00000
  117    -18.28396    2.00000
  118    -18.28380    2.00000
  119    -18.28346    2.00000
  120    -18.28345    2.00000
  121    -18.28289    2.00000
  122    -18.28147    2.00000
  123    -18.28056    2.00000
  124    -18.28016    2.00000
  125    -18.27924    2.00000
  126    -18.27757    2.00000
  127    -18.27585    2.00000
  128    -18.27584    2.00000
  129    -18.27488    2.00000
  130    -18.27485    2.00000
  131    -18.27465    2.00000
  132    -18.27421    2.00000
  133    -18.27405    2.00000
  134    -18.27334    2.00000
  135    -18.27298    2.00000
  136    -18.27263    2.00000
  137    -18.27094    2.00000
  138    -18.26570    2.00000
  139    -18.26528    2.00000
  140    -18.26467    2.00000
  141    -18.26301    2.00000
  142    -18.26242    2.00000
  143    -18.26112    2.00000
  144    -18.26092    2.00000
  145    -18.26067    2.00000
  146    -18.25685    2.00000
  147    -18.25635    2.00000
  148    -18.25627    2.00000
  149    -18.25559    2.00000
  150    -18.25519    2.00000
  151    -18.25518    2.00000
  152    -18.25432    2.00000
  153    -18.25424    2.00000
  154    -18.25401    2.00000
  155    -18.25375    2.00000
  156    -18.25364    2.00000
  157    -18.25283    2.00000
  158    -18.25138    2.00000
  159    -18.25082    2.00000
  160    -18.24926    2.00000
  161    -18.24904    2.00000
  162    -18.24827    2.00000
  163    -18.24740    2.00000
  164    -18.24657    2.00000
  165    -18.24422    2.00000
  166    -18.24271    2.00000
  167    -18.24068    2.00000
  168    -18.24065    2.00000
  169    -18.24056    2.00000
  170    -18.23858    2.00000
  171    -18.22981    2.00000
  172    -18.22972    2.00000
  173    -18.22899    2.00000
  174    -18.22872    2.00000
  175    -18.21050    2.00000
  176    -18.20917    2.00000
  177    -18.20794    2.00000
  178    -18.20745    2.00000
  179    -18.20098    2.00000
  180    -18.20066    2.00000
  181    -18.19763    2.00000
  182    -18.19750    2.00000
  183    -18.15930    2.00000
  184    -18.15412    2.00000
  185    -18.15397    2.00000
  186    -18.15269    2.00000
  187    -18.15256    2.00000
  188    -18.15118    2.00000
  189    -18.15099    2.00000
  190    -18.14831    2.00000
  191    -18.14817    2.00000
  192    -18.14755    2.00000
  193    -18.14460    2.00000
  194    -18.14450    2.00000
  195    -18.14425    2.00000
  196    -18.14422    2.00000
  197    -18.14347    2.00000
  198    -18.14328    2.00000
  199    -18.14277    2.00000
  200    -18.14167    2.00000
  201    -18.14115    2.00000
  202    -18.14103    2.00000
  203    -18.14066    2.00000
  204    -18.14035    2.00000
  205    -18.13971    2.00000
  206    -18.13920    2.00000
  207    -18.13880    2.00000
  208    -18.13767    2.00000
  209    -18.13550    2.00000
  210    -18.13481    2.00000
  211    -18.13481    2.00000
  212    -18.13466    2.00000
  213    -18.13466    2.00000
  214    -18.13393    2.00000
  215    -18.13348    2.00000
  216    -18.13294    2.00000
  217    -18.13176    2.00000
  218    -18.13114    2.00000
  219    -18.13091    2.00000
  220    -18.13072    2.00000
  221    -18.12814    2.00000
  222    -18.12781    2.00000
  223    -18.12609    2.00000
  224    -18.12511    2.00000
  225    -18.12322    2.00000
  226    -18.12234    2.00000
  227    -18.12164    2.00000
  228    -18.12140    2.00000
  229    -18.11989    2.00000
  230    -18.11986    2.00000
  231    -18.11893    2.00000
  232    -18.11885    2.00000
  233    -18.11822    2.00000
  234    -18.11814    2.00000
  235    -18.11789    2.00000
  236    -18.11783    2.00000
  237    -18.11640    2.00000
  238    -18.11602    2.00000
  239    -18.11442    2.00000
  240    -18.11389    2.00000
  241    -18.11342    2.00000
  242    -18.11310    2.00000
  243    -18.11106    2.00000
  244    -18.11034    2.00000
  245    -18.11026    2.00000
  246    -18.11000    2.00000
  247    -18.10912    2.00000
  248    -18.10907    2.00000
  249    -18.10874    2.00000
  250    -18.10854    2.00000
  251    -18.10778    2.00000
  252    -18.10684    2.00000
  253    -18.10676    2.00000
  254    -18.10627    2.00000
  255    -18.10563    2.00000
  256    -18.10562    2.00000
  257    -18.10533    2.00000
  258    -18.10516    2.00000
  259    -18.10475    2.00000
  260    -18.10456    2.00000
  261    -18.10436    2.00000
  262    -18.10374    2.00000
  263    -18.10354    2.00000
  264    -18.10321    2.00000
  265    -18.10303    2.00000
  266    -18.10245    2.00000
  267    -18.10207    2.00000
  268    -18.10173    2.00000
  269    -18.10091    2.00000
  270    -18.10084    2.00000
  271    -18.10053    2.00000
  272    -18.10022    2.00000
  273    -18.10004    2.00000
  274    -18.09999    2.00000
  275    -18.09905    2.00000
  276    -18.09882    2.00000
  277    -18.09820    2.00000
  278    -18.09795    2.00000
  279    -18.09734    2.00000
  280    -18.09699    2.00000
  281    -18.09656    2.00000
  282    -18.09649    2.00000
  283    -18.09594    2.00000
  284    -18.09584    2.00000
  285    -18.09501    2.00000
  286    -18.09487    2.00000
  287    -18.09350    2.00000
  288    -18.09336    2.00000
  289    -18.09203    2.00000
  290    -18.08826    2.00000
  291    -16.88061    2.00000
  292     -4.58327    2.00000
  293     -4.24467    1.99999
  294     -4.22974    1.99999
  295     -4.20257    1.99999
  296     -3.90999    1.99990
  297     -3.88974    1.99989
  298     -3.86984    1.99987
  299     -3.84641    1.99985
  300     -3.61530    1.99931
  301     -3.55683    1.99898
  302     -3.55465    1.99897
  303     -3.55331    1.99896
  304     -3.54930    1.99893
  305     -3.51692    1.99868
  306     -3.51239    1.99864
  307     -3.29151    1.99406
  308     -3.23138    1.99115
  309     -3.22515    1.99077
  310     -3.20724    1.98961
  311     -3.19027    1.98837
  312     -3.18821    1.98821
  313     -3.18296    1.98780
  314     -3.17862    1.98744
  315     -2.93661    1.93850
  316     -2.88030    1.91172
  317     -2.87090    1.90628
  318     -2.86087    1.90012
  319     -2.75143    1.80338
  320     -2.60770    1.55733
  321     -2.59182    1.51976
  322     -2.58893    1.51271
  323     -2.58200    1.49547
  324     -2.57908    1.48809
  325     -2.56860    1.46104
  326     -2.55909    1.43572
  327     -2.54892    1.40784
  328     -2.43496    1.05311
  329     -2.38926    0.90114
  330     -2.26887    0.53752
  331     -2.25558    0.50341
  332     -2.23876    0.46235
  333     -2.22904    0.43971
  334     -2.22880    0.43916
  335     -2.22872    0.43899
  336     -2.10933    0.22519
  337     -2.07754    0.18618
  338     -1.98883    0.10753
  339     -1.98476    0.10480
  340     -1.89962    0.06079
  341     -1.79800    0.03134
  342     -1.77788    0.02746
  343     -1.77723    0.02735
  344     -1.73984    0.02138
  345     -1.71167    0.01775
  346     -1.69494    0.01589
  347     -1.68733    0.01511
  348     -1.68700    0.01508
  349     -1.68645    0.01502
  350     -1.66570    0.01310
  351     -1.65637    0.01231
  352     -1.65129    0.01190
  353     -1.64359    0.01131
  354     -1.63403    0.01062
  355     -1.63203    0.01048
  356     -1.62769    0.01018
  357     -1.59186    0.00802
  358     -1.54703    0.00596
  359     -1.44769    0.00308
  360     -1.43360    0.00280
  361     -1.41395    0.00246
  362     -1.33824    0.00148
  363     -1.33390    0.00144
  364     -1.31451    0.00127

Fermi level: -2.41901

Gap: 0.046 eV
Transition (v -> c):
  (s=0, k=0, n=328, [0.00, 0.00, 0.00]) -> (s=0, k=0, n=329, [0.00, 0.00, 0.00])
No difference between direct/indirect transitions

Forces in eV/Ang:
  0 K     0.00021    0.00000   -0.02210
  1 K    -0.00573    0.00393   -0.02649
  2 K     0.00460    0.00000   -0.00277
  3 K    -0.00018   -0.00124   -0.00569
  4 K     0.00527    0.00000    0.00236
  5 K    -0.01077    0.01117    0.00097
  6 K     0.00377    0.00000  -16.38023
  7 K     0.01057   -0.00999    0.04505
  8 K    -0.00224   -0.00084   -0.02281
  9 K     0.00390    0.00000   -0.01715
 10 K    -0.01074   -0.01265   -0.00846
 11 K    -0.00067    0.00000    0.00331
 12 K    -0.00270   -0.00005    0.00005
 13 K     0.00457    0.00000   -0.00043
 14 K    -0.00571   -0.04162    0.05748
 15 K    -0.00384    0.00000    0.02366
 16 K    -0.00224    0.00084   -0.02281
 17 K    -0.00573   -0.00393   -0.02649
 18 K    -0.01074    0.01265   -0.00846
 19 K    -0.00018    0.00124   -0.00569
 20 K    -0.00270    0.00005    0.00005
 21 K    -0.01077   -0.01117    0.00097
 22 K    -0.00571    0.04162    0.05748
 23 K     0.01057    0.00999    0.04505
 24 K    -0.00412    0.00000   -0.02109
 25 K     0.00029    0.00185   -0.02479
 26 K    -0.00157    0.00000    0.00020
 27 K     0.01095    0.00978   -0.01142
 28 K    -0.01004    0.00000    0.00682
 29 K    -0.00011    0.00001    0.00603
 30 K     0.00191    0.00000    0.02279
 31 K    -0.00503   -0.00471    0.04937
 32 K     0.00797   -0.00616   -0.02709
 33 K     0.00361    0.00000   -0.02552
 34 K     0.00115    0.00014   -0.00373
 35 K    -0.00392    0.00000   -0.00103
 36 K     0.01349   -0.01106    0.00573
 37 K     0.00013    0.00000   -0.00220
 38 K     0.00180    0.00013    0.02335
 39 K    -0.00006    0.00000    0.02265
 40 K     0.00797    0.00616   -0.02709
 41 K     0.00029   -0.00185   -0.02479
 42 K     0.00115   -0.00014   -0.00373
 43 K     0.01095   -0.00978   -0.01142
 44 K     0.01349    0.01106    0.00573
 45 K    -0.00011   -0.00001    0.00603
 46 K     0.00180   -0.00013    0.02335
 47 K    -0.00503    0.00471    0.04937
 48 K     0.00390    0.00000   -0.02169
 49 K     0.00544    0.00718   -0.02907
 50 K    -0.00299    0.00000   -0.00411
 51 K    -0.01075    0.01258   -0.00971
 52 K     0.00456    0.00000    0.00569
 53 K     0.01086    0.01102    0.01176
 54 K    -0.00575    0.00000    0.02177
 55 K    -0.00572    0.00423    0.02842
 56 K    -0.00573   -0.00118   -0.03265
 57 K    -0.00752    0.00000   -0.02451
 58 K     0.00960   -0.01088   -0.00945
 59 K     0.00457    0.00000   -0.00288
 60 K    -0.01075   -0.01072    0.00839
 61 K    -0.00471    0.00000    0.00213
 62 K     0.00395   -0.00519    0.02763
 63 K     0.00391    0.00000    0.02250
 64 K    -0.00573    0.00118   -0.03265
 65 K     0.00544   -0.00718   -0.02907
 66 K     0.00960    0.01088   -0.00945
 67 K    -0.01075   -0.01258   -0.00971
 68 K    -0.01075    0.01072    0.00839
 69 K     0.01086   -0.01102    0.01176
 70 K     0.00395    0.00519    0.02763
 71 K    -0.00572   -0.00423    0.02842
 72 K     0.00376    0.00000   16.29593

System changes: positions 

Initializing position-dependent things.

Density initialized from wave functions
           .------------------------------------------------------.  
          /|                                                      |  
         / |                                                      |  
        /  |                                                      |  
       /   |                                                      |  
      /    |                                                      |  
     /     |                                                      |  
    /      |                                                      |  
   /       |                                                      |  
  /        |                                                      |  
 *         |                                                      |  
 |         |                                                      |  
 |         |                                                      |  
 |         |                                                      |  
 |       K |                K                 K                   |  
 |         |                                                      |  
 |         |     K                 K                  K           |  
 |         |            K                  K                 K    |  
 |         |      K                  K                 K          |  
 |         | K                  K                 K               |  
 |        K|              K                 K                  K  |  
 | K       |         K                 K                          |  
 |        K|   K             K    K            K    K             |  
 |       K |           K    K            K    K            K      |  
 |         |                                                      |  
 |         |K    K            K    K             K   K            |  
 |    K    |            K                  K                      |  
 K         |       K                 KK                K          |  
 |         | K                  K                 K               |  
 |      K  |              K                 K                     |  
 | K       |         K                 K                          |  
 |        K|   K             K   K             K    K             |  
 |  K      |           K                 K                        |  
 |         |                                                      |  
 |         |K                 K                  K                |  
 |         |                                                      |  
 K         |       K                  K                           |  
 |         |                                                      |  
 |         .------------------------------------------------------.  
 |        /                                                      /   
 |       /                                                      /    
 |      /                                                      /     
 |     /                                                      /      
 |    /                                                      /       
 |   /                                                      /        
 |  /                                                      /         
 | /                                                      /          
 |/                                                      /           
 *------------------------------------------------------*            

Atomic positions and initial magnetic moments

Positions:
   0 K      0.000000    0.000000   10.000000    ( 0.0000,  0.0000,  0.0000)
   1 K      3.698168    2.615000   10.000000    ( 0.0000,  0.0000,  0.0000)
   2 K      3.698168    0.000000   13.698168    ( 0.0000,  0.0000,  0.0000)
   3 K      0.000000    2.615000   13.698168    ( 0.0000,  0.0000,  0.0000)
   4 K      0.000064    0.000000   17.396366    ( 0.0000,  0.0000,  0.0000)
   5 K      3.698037    2.615136   17.396349    ( 0.0000,  0.0000,  0.0000)
   6 K      3.698215    0.000000   20.894505    ( 0.0000,  0.0000,  0.0000)
   7 K      0.000129    2.614878   21.095055    ( 0.0000,  0.0000,  0.0000)
   8 K      0.000000    5.230000   10.000000    ( 0.0000,  0.0000,  0.0000)
   9 K      3.698168    7.845000   10.000000    ( 0.0000,  0.0000,  0.0000)
  10 K      3.698168    5.230000   13.698168    ( 0.0000,  0.0000,  0.0000)
  11 K      0.000000    7.845000   13.698168    ( 0.0000,  0.0000,  0.0000)
  12 K     -0.000033    5.229999   17.396337    ( 0.0000,  0.0000,  0.0000)
  13 K      3.698224    7.845000   17.396332    ( 0.0000,  0.0000,  0.0000)
  14 K      3.698099    5.229492   21.095207    ( 0.0000,  0.0000,  0.0000)
  15 K     -0.000047    7.845000   21.094794    ( 0.0000,  0.0000,  0.0000)
  16 K      0.000000   10.460000   10.000000    ( 0.0000,  0.0000,  0.0000)
  17 K      3.698168   13.075000   10.000000    ( 0.0000,  0.0000,  0.0000)
  18 K      3.698168   10.460000   13.698168    ( 0.0000,  0.0000,  0.0000)
  19 K      0.000000   13.075000   13.698168    ( 0.0000,  0.0000,  0.0000)
  20 K     -0.000033   10.460001   17.396337    ( 0.0000,  0.0000,  0.0000)
  21 K      3.698037   13.074864   17.396349    ( 0.0000,  0.0000,  0.0000)
  22 K      3.698099   10.460508   21.095207    ( 0.0000,  0.0000,  0.0000)
  23 K      0.000129   13.075122   21.095055    ( 0.0000,  0.0000,  0.0000)
  24 K      7.396337    0.000000   10.000000    ( 0.0000,  0.0000,  0.0000)
  25 K     11.094505    2.615000   10.000000    ( 0.0000,  0.0000,  0.0000)
  26 K     11.094505    0.000000   13.698168    ( 0.0000,  0.0000,  0.0000)
  27 K      7.396337    2.615000   13.698168    ( 0.0000,  0.0000,  0.0000)
  28 K      7.396214    0.000000   17.396420    ( 0.0000,  0.0000,  0.0000)
  29 K     11.094504    2.615000   17.396411    ( 0.0000,  0.0000,  0.0000)
  30 K     11.094529    0.000000   21.094784    ( 0.0000,  0.0000,  0.0000)
  31 K      7.396276    2.614943   21.095108    ( 0.0000,  0.0000,  0.0000)
  32 K      7.396337    5.230000   10.000000    ( 0.0000,  0.0000,  0.0000)
  33 K     11.094505    7.845000   10.000000    ( 0.0000,  0.0000,  0.0000)
  34 K     11.094505    5.230000   13.698168    ( 0.0000,  0.0000,  0.0000)
  35 K      7.396337    7.845000   13.698168    ( 0.0000,  0.0000,  0.0000)
  36 K      7.396502    5.229865   17.396407    ( 0.0000,  0.0000,  0.0000)
  37 K     11.094507    7.845000   17.396310    ( 0.0000,  0.0000,  0.0000)
  38 K     11.094527    5.230002   21.094790    ( 0.0000,  0.0000,  0.0000)
  39 K      7.396336    7.845000   21.094782    ( 0.0000,  0.0000,  0.0000)
  40 K      7.396337   10.460000   10.000000    ( 0.0000,  0.0000,  0.0000)
  41 K     11.094505   13.075000   10.000000    ( 0.0000,  0.0000,  0.0000)
  42 K     11.094505   10.460000   13.698168    ( 0.0000,  0.0000,  0.0000)
  43 K      7.396337   13.075000   13.698168    ( 0.0000,  0.0000,  0.0000)
  44 K      7.396502   10.460135   17.396407    ( 0.0000,  0.0000,  0.0000)
  45 K     11.094504   13.075000   17.396411    ( 0.0000,  0.0000,  0.0000)
  46 K     11.094527   10.459998   21.094790    ( 0.0000,  0.0000,  0.0000)
  47 K      7.396276   13.075057   21.095108    ( 0.0000,  0.0000,  0.0000)
  48 K     14.792674    0.000000   10.000000    ( 0.0000,  0.0000,  0.0000)
  49 K     18.490842    2.615000   10.000000    ( 0.0000,  0.0000,  0.0000)
  50 K     18.490842    0.000000   13.698168    ( 0.0000,  0.0000,  0.0000)
  51 K     14.792674    2.615000   13.698168    ( 0.0000,  0.0000,  0.0000)
  52 K     14.792730    0.000000   17.396406    ( 0.0000,  0.0000,  0.0000)
  53 K     18.490975    2.615135   17.396480    ( 0.0000,  0.0000,  0.0000)
  54 K     18.490772    0.000000   21.094771    ( 0.0000,  0.0000,  0.0000)
  55 K     14.792604    2.615052   21.094852    ( 0.0000,  0.0000,  0.0000)
  56 K     14.792674    5.230000   10.000000    ( 0.0000,  0.0000,  0.0000)
  57 K     18.490842    7.845000   10.000000    ( 0.0000,  0.0000,  0.0000)
  58 K     18.490842    5.230000   13.698168    ( 0.0000,  0.0000,  0.0000)
  59 K     14.792674    7.845000   13.698168    ( 0.0000,  0.0000,  0.0000)
  60 K     14.792543    5.229869   17.396439    ( 0.0000,  0.0000,  0.0000)
  61 K     18.490785    7.845000   17.396363    ( 0.0000,  0.0000,  0.0000)
  62 K     18.490891    5.229937   21.094843    ( 0.0000,  0.0000,  0.0000)
  63 K     14.792722    7.845000   21.094780    ( 0.0000,  0.0000,  0.0000)
  64 K     14.792674   10.460000   10.000000    ( 0.0000,  0.0000,  0.0000)
  65 K     18.490842   13.075000   10.000000    ( 0.0000,  0.0000,  0.0000)
  66 K     18.490842   10.460000   13.698168    ( 0.0000,  0.0000,  0.0000)
  67 K     14.792674   13.075000   13.698168    ( 0.0000,  0.0000,  0.0000)
  68 K     14.792543   10.460131   17.396439    ( 0.0000,  0.0000,  0.0000)
  69 K     18.490975   13.074865   17.396480    ( 0.0000,  0.0000,  0.0000)
  70 K     18.490891   10.460063   21.094843    ( 0.0000,  0.0000,  0.0000)
  71 K     14.792604   13.074948   21.094852    ( 0.0000,  0.0000,  0.0000)
  72 K      3.698214    0.000000   23.293476    ( 0.0000,  0.0000,  0.0000)

Unit cell:
           periodic     x           y           z      points  spacing
  1. axis:    yes   22.189011    0.000000    0.000000   112     0.1981
  2. axis:    yes    0.000000   15.690000    0.000000    80     0.1961
  3. axis:    no     0.000000    0.000000   31.094505   156     0.1993

  Lengths:  22.189011  15.690000  31.094505
  Angles:   90.000000  90.000000  90.000000

Effective grid spacing dv^(1/3) = 0.1979

     iter     time        total  log10-change:
                         energy   eigst   dens
iter:   1 16:30:06   -60.502827        c
iter:   2 16:31:51   -60.026025        c -2.17
iter:   3 16:33:25   -59.895148        c -2.40
iter:   4 16:34:57   -59.773792c       c -2.76
iter:   5 16:36:39   -59.724298c       c -2.71
iter:   6 16:38:09   -59.702183c       c -2.81
iter:   7 16:39:32   -59.694339c       c -2.84
iter:   8 16:41:00   -59.690192c       c -2.97
iter:   9 16:42:32   -59.690195c       c -3.17
iter:  10 16:44:30   -59.690672c       c -3.24
iter:  11 16:46:06   -59.690433c       c -3.43
iter:  12 16:47:49   -59.689519c       c -3.50
iter:  13 16:49:25   -59.689344c       c -3.64
iter:  14 16:50:54   -59.689484c       c -3.76
iter:  15 16:52:16   -59.689595c       c -3.93
iter:  16 16:53:31   -59.689552c       c -4.06c

Converged after 16 iterations.

Dipole moment: (-87.713604, -65.393977, 0.160028) |e|*Ang

Energy contributions relative to reference atoms: (reference = -1195904.484944)

Kinetic:       +133.539006
Potential:     -112.616403
External:        +0.000000
XC:             -81.011875
Entropy (-ST):   -3.785732
Local:           +2.292586
SIC:             +0.000000
--------------------------
Free energy:    -61.582418
Extrapolated:   -59.689552

 Band  Eigenvalues  Occupancy
    0    -36.41113    2.00000
    1    -35.49132    2.00000
    2    -34.80031    2.00000
    3    -34.79860    2.00000
    4    -34.79817    2.00000
    5    -34.79419    2.00000
    6    -34.79369    2.00000
    7    -34.79313    2.00000
    8    -34.79252    2.00000
    9    -34.79239    2.00000
   10    -34.79221    2.00000
   11    -34.79141    2.00000
   12    -34.79134    2.00000
   13    -34.79119    2.00000
   14    -34.78947    2.00000
   15    -34.78943    2.00000
   16    -34.78919    2.00000
   17    -34.78864    2.00000
   18    -34.78854    2.00000
   19    -34.78847    2.00000
   20    -34.78843    2.00000
   21    -34.78824    2.00000
   22    -34.78801    2.00000
   23    -34.78762    2.00000
   24    -34.78732    2.00000
   25    -34.78724    2.00000
   26    -34.78656    2.00000
   27    -34.78481    2.00000
   28    -34.78437    2.00000
   29    -34.78128    2.00000
   30    -34.78066    2.00000
   31    -34.77728    2.00000
   32    -34.77685    2.00000
   33    -34.73424    2.00000
   34    -34.73362    2.00000
   35    -34.73358    2.00000
   36    -34.73346    2.00000
   37    -34.64202    2.00000
   38    -34.64148    2.00000
   39    -34.63944    2.00000
   40    -34.63935    2.00000
   41    -34.63762    2.00000
   42    -34.63670    2.00000
   43    -34.63536    2.00000
   44    -34.63497    2.00000
   45    -34.63467    2.00000
   46    -34.63457    2.00000
   47    -34.63387    2.00000
   48    -34.63367    2.00000
   49    -34.63329    2.00000
   50    -34.63298    2.00000
   51    -34.63297    2.00000
   52    -34.63262    2.00000
   53    -34.63231    2.00000
   54    -34.63204    2.00000
   55    -34.63198    2.00000
   56    -34.63169    2.00000
   57    -34.63159    2.00000
   58    -34.63138    2.00000
   59    -34.63128    2.00000
   60    -34.63093    2.00000
   61    -34.63065    2.00000
   62    -34.63050    2.00000
   63    -34.63039    2.00000
   64    -34.63028    2.00000
   65    -34.63015    2.00000
   66    -34.62950    2.00000
   67    -34.62934    2.00000
   68    -34.62849    2.00000
   69    -34.62759    2.00000
   70    -34.62746    2.00000
   71    -34.62560    2.00000
   72    -34.62548    2.00000
   73    -20.93863    2.00000
   74    -19.62055    2.00000
   75    -19.61668    2.00000
   76    -18.91097    2.00000
   77    -18.91003    2.00000
   78    -18.30489    2.00000
   79    -18.30092    2.00000
   80    -18.29969    2.00000
   81    -18.29698    2.00000
   82    -18.29685    2.00000
   83    -18.29668    2.00000
   84    -18.29613    2.00000
   85    -18.29493    2.00000
   86    -18.29457    2.00000
   87    -18.29418    2.00000
   88    -18.29311    2.00000
   89    -18.29306    2.00000
   90    -18.29233    2.00000
   91    -18.29197    2.00000
   92    -18.29186    2.00000
   93    -18.29177    2.00000
   94    -18.29064    2.00000
   95    -18.29056    2.00000
   96    -18.29049    2.00000
   97    -18.29047    2.00000
   98    -18.28996    2.00000
   99    -18.28942    2.00000
  100    -18.28941    2.00000
  101    -18.28899    2.00000
  102    -18.28827    2.00000
  103    -18.28815    2.00000
  104    -18.28747    2.00000
  105    -18.28733    2.00000
  106    -18.28731    2.00000
  107    -18.28679    2.00000
  108    -18.28605    2.00000
  109    -18.28595    2.00000
  110    -18.28563    2.00000
  111    -18.28532    2.00000
  112    -18.28519    2.00000
  113    -18.28515    2.00000
  114    -18.28482    2.00000
  115    -18.28436    2.00000
  116    -18.28432    2.00000
  117    -18.28388    2.00000
  118    -18.28362    2.00000
  119    -18.28344    2.00000
  120    -18.28323    2.00000
  121    -18.28297    2.00000
  122    -18.28235    2.00000
  123    -18.28196    2.00000
  124    -18.28177    2.00000
  125    -18.28115    2.00000
  126    -18.27818    2.00000
  127    -18.27751    2.00000
  128    -18.27736    2.00000
  129    -18.27623    2.00000
  130    -18.27537    2.00000
  131    -18.27454    2.00000
  132    -18.27439    2.00000
  133    -18.27428    2.00000
  134    -18.27334    2.00000
  135    -18.27303    2.00000
  136    -18.27169    2.00000
  137    -18.27117    2.00000
  138    -18.26543    2.00000
  139    -18.26479    2.00000
  140    -18.26462    2.00000
  141    -18.26291    2.00000
  142    -18.26178    2.00000
  143    -18.26086    2.00000
  144    -18.26057    2.00000
  145    -18.26009    2.00000
  146    -18.25709    2.00000
  147    -18.25647    2.00000
  148    -18.25620    2.00000
  149    -18.25584    2.00000
  150    -18.25561    2.00000
  151    -18.25548    2.00000
  152    -18.25437    2.00000
  153    -18.25426    2.00000
  154    -18.25373    2.00000
  155    -18.25360    2.00000
  156    -18.25343    2.00000
  157    -18.25243    2.00000
  158    -18.25162    2.00000
  159    -18.25091    2.00000
  160    -18.24887    2.00000
  161    -18.24850    2.00000
  162    -18.24798    2.00000
  163    -18.24605    2.00000
  164    -18.24572    2.00000
  165    -18.24542    2.00000
  166    -18.24461    2.00000
  167    -18.24223    2.00000
  168    -18.24222    2.00000
  169    -18.24213    2.00000
  170    -18.23979    2.00000
  171    -18.23340    2.00000
  172    -18.23322    2.00000
  173    -18.23251    2.00000
  174    -18.23222    2.00000
  175    -18.21418    2.00000
  176    -18.21278    2.00000
  177    -18.21180    2.00000
  178    -18.21138    2.00000
  179    -18.20664    2.00000
  180    -18.20592    2.00000
  181    -18.20294    2.00000
  182    -18.20278    2.00000
  183    -18.20035    2.00000
  184    -18.15901    2.00000
  185    -18.15389    2.00000
  186    -18.15379    2.00000
  187    -18.15281    2.00000
  188    -18.15254    2.00000
  189    -18.15069    2.00000
  190    -18.15050    2.00000
  191    -18.14761    2.00000
  192    -18.14754    2.00000
  193    -18.14708    2.00000
  194    -18.14469    2.00000
  195    -18.14386    2.00000
  196    -18.14384    2.00000
  197    -18.14360    2.00000
  198    -18.14320    2.00000
  199    -18.14268    2.00000
  200    -18.14260    2.00000
  201    -18.14153    2.00000
  202    -18.14089    2.00000
  203    -18.14059    2.00000
  204    -18.14045    2.00000
  205    -18.13983    2.00000
  206    -18.13965    2.00000
  207    -18.13889    2.00000
  208    -18.13865    2.00000
  209    -18.13737    2.00000
  210    -18.13490    2.00000
  211    -18.13468    2.00000
  212    -18.13445    2.00000
  213    -18.13423    2.00000
  214    -18.13414    2.00000
  215    -18.13367    2.00000
  216    -18.13339    2.00000
  217    -18.13232    2.00000
  218    -18.13172    2.00000
  219    -18.13082    2.00000
  220    -18.13063    2.00000
  221    -18.13000    2.00000
  222    -18.12752    2.00000
  223    -18.12744    2.00000
  224    -18.12593    2.00000
  225    -18.12490    2.00000
  226    -18.12307    2.00000
  227    -18.12164    2.00000
  228    -18.12114    2.00000
  229    -18.12073    2.00000
  230    -18.12046    2.00000
  231    -18.11981    2.00000
  232    -18.11874    2.00000
  233    -18.11862    2.00000
  234    -18.11796    2.00000
  235    -18.11769    2.00000
  236    -18.11768    2.00000
  237    -18.11750    2.00000
  238    -18.11634    2.00000
  239    -18.11537    2.00000
  240    -18.11407    2.00000
  241    -18.11347    2.00000
  242    -18.11341    2.00000
  243    -18.11303    2.00000
  244    -18.11071    2.00000
  245    -18.10998    2.00000
  246    -18.10985    2.00000
  247    -18.10972    2.00000
  248    -18.10905    2.00000
  249    -18.10867    2.00000
  250    -18.10850    2.00000
  251    -18.10837    2.00000
  252    -18.10773    2.00000
  253    -18.10660    2.00000
  254    -18.10624    2.00000
  255    -18.10623    2.00000
  256    -18.10596    2.00000
  257    -18.10548    2.00000
  258    -18.10479    2.00000
  259    -18.10472    2.00000
  260    -18.10456    2.00000
  261    -18.10398    2.00000
  262    -18.10381    2.00000
  263    -18.10378    2.00000
  264    -18.10315    2.00000
  265    -18.10311    2.00000
  266    -18.10293    2.00000
  267    -18.10274    2.00000
  268    -18.10144    2.00000
  269    -18.10094    2.00000
  270    -18.10080    2.00000
  271    -18.10035    2.00000
  272    -18.10020    2.00000
  273    -18.09976    2.00000
  274    -18.09975    2.00000
  275    -18.09952    2.00000
  276    -18.09860    2.00000
  277    -18.09785    2.00000
  278    -18.09763    2.00000
  279    -18.09693    2.00000
  280    -18.09692    2.00000
  281    -18.09675    2.00000
  282    -18.09646    2.00000
  283    -18.09636    2.00000
  284    -18.09560    2.00000
  285    -18.09545    2.00000
  286    -18.09478    2.00000
  287    -18.09456    2.00000
  288    -18.09290    2.00000
  289    -18.09256    2.00000
  290    -18.09184    2.00000
  291    -18.08743    2.00000
  292     -4.58398    2.00000
  293     -4.24479    1.99999
  294     -4.22993    1.99999
  295     -4.20060    1.99999
  296     -3.90713    1.99990
  297     -3.89017    1.99989
  298     -3.86720    1.99987
  299     -3.84651    1.99985
  300     -3.60116    1.99925
  301     -3.55756    1.99899
  302     -3.55490    1.99897
  303     -3.55351    1.99896
  304     -3.55016    1.99894
  305     -3.51708    1.99868
  306     -3.51243    1.99864
  307     -3.27745    1.99349
  308     -3.23163    1.99117
  309     -3.22615    1.99084
  310     -3.20679    1.98959
  311     -3.19019    1.98838
  312     -3.18966    1.98833
  313     -3.18292    1.98780
  314     -3.17900    1.98748
  315     -2.92605    1.93421
  316     -2.87918    1.91115
  317     -2.87069    1.90622
  318     -2.86211    1.90097
  319     -2.75017    1.80201
  320     -2.60350    1.54785
  321     -2.59150    1.51925
  322     -2.58830    1.51143
  323     -2.58256    1.49715
  324     -2.58059    1.49219
  325     -2.56783    1.45929
  326     -2.55875    1.43508
  327     -2.54887    1.40800
  328     -2.43632    1.05799
  329     -2.38899    0.90060
  330     -2.26676    0.53227
  331     -2.25436    0.50061
  332     -2.23818    0.46123
  333     -2.23029    0.44284
  334     -2.22964    0.44135
  335     -2.22904    0.43997
  336     -2.11371    0.23123
  337     -2.07735    0.18609
  338     -1.98938    0.10798
  339     -1.98641    0.10597
  340     -1.90943    0.06481
  341     -1.79585    0.03093
  342     -1.77730    0.02738
  343     -1.77563    0.02708
  344     -1.73988    0.02140
  345     -1.71260    0.01787
  346     -1.69629    0.01605
  347     -1.69044    0.01544
  348     -1.68682    0.01507
  349     -1.68680    0.01507
  350     -1.66445    0.01300
  351     -1.65544    0.01224
  352     -1.65258    0.01201
  353     -1.64363    0.01132
  354     -1.63364    0.01060
  355     -1.63344    0.01058
  356     -1.62828    0.01023
  357     -1.59840    0.00839
  358     -1.54876    0.00603
  359     -1.44666    0.00306
  360     -1.43352    0.00280
  361     -1.41623    0.00250
  362     -1.34450    0.00155
  363     -1.33359    0.00144
  364     -1.31487    0.00127

Fermi level: -2.41890

Gap: 0.047 eV
Transition (v -> c):
  (s=0, k=0, n=328, [0.00, 0.00, 0.00]) -> (s=0, k=0, n=329, [0.00, 0.00, 0.00])
No difference between direct/indirect transitions

Forces in eV/Ang:
  0 K    -0.00041    0.00000   -0.02625
  1 K    -0.00574    0.00373   -0.03039
  2 K     0.00460    0.00000   -0.00393
  3 K    -0.00060   -0.00062   -0.00579
  4 K    -0.00233    0.00000   -0.00382
  5 K    -0.01056    0.02835   -0.01704
  6 K     0.00396    0.00000   -4.54478
  7 K     0.01226   -0.01091    0.05225
  8 K    -0.00132   -0.00152   -0.02597
  9 K     0.00390    0.00000   -0.02083
 10 K    -0.01074   -0.01268   -0.00781
 11 K     0.00002    0.00000    0.00361
 12 K    -0.00282    0.00139    0.00094
 13 K     0.00461    0.00000    0.00193
 14 K    -0.00502   -0.03882    0.05886
 15 K    -0.00469    0.00000    0.02309
 16 K    -0.00132    0.00152   -0.02597
 17 K    -0.00574   -0.00373   -0.03039
 18 K    -0.01074    0.01268   -0.00781
 19 K    -0.00060    0.00062   -0.00579
 20 K    -0.00282   -0.00139    0.00094
 21 K    -0.01056   -0.02835   -0.01704
 22 K    -0.00502    0.03882    0.05886
 23 K     0.01226    0.01091    0.05225
 24 K    -0.00350    0.00000   -0.02523
 25 K     0.00094   -0.00063   -0.02739
 26 K     0.00025    0.00000   -0.00065
 27 K     0.01137    0.01040   -0.01152
 28 K    -0.00238    0.00000    0.00043
 29 K     0.00011    0.00032    0.00598
 30 K     0.00343    0.00000    0.02473
 31 K    -0.00696   -0.00587    0.05617
 32 K     0.00706   -0.00685   -0.03025
 33 K     0.00205    0.00000   -0.02789
 34 K     0.00170   -0.00076   -0.00300
 35 K    -0.00460    0.00000   -0.00069
 36 K     0.01335   -0.00941    0.00656
 37 K    -0.00060    0.00000   -0.00111
 38 K     0.00228    0.00130    0.02519
 39 K     0.00083    0.00000    0.02222
 40 K     0.00706    0.00685   -0.03025
 41 K     0.00094    0.00063   -0.02739
 42 K     0.00170    0.00076   -0.00300
 43 K     0.01137   -0.01040   -0.01152
 44 K     0.01335    0.00941    0.00656
 45 K     0.00011   -0.00032    0.00598
 46 K     0.00228   -0.00130    0.02519
 47 K    -0.00696    0.00587    0.05617
 48 K     0.00390    0.00000   -0.02370
 49 K     0.00479    0.00470   -0.03167
 50 K    -0.00481    0.00000   -0.00493
 51 K    -0.01075    0.01121   -0.01042
 52 K     0.00461    0.00000    0.00500
 53 K     0.01041    0.01114    0.01170
 54 K    -0.00734    0.00000    0.02383
 55 K    -0.00544    0.00404    0.03110
 56 K    -0.00573   -0.00493   -0.03441
 57 K    -0.00596    0.00000   -0.02688
 58 K     0.00904   -0.01177   -0.00871
 59 K     0.00458    0.00000   -0.00053
 60 K    -0.01053   -0.01034    0.00741
 61 K    -0.00403    0.00000    0.00317
 62 K     0.00321   -0.00378    0.02916
 63 K     0.00391    0.00000    0.02623
 64 K    -0.00573    0.00493   -0.03441
 65 K     0.00479   -0.00470   -0.03167
 66 K     0.00904    0.01177   -0.00871
 67 K    -0.01075   -0.01121   -0.01042
 68 K    -0.01053    0.01034    0.00741
 69 K     0.01041   -0.01114    0.01170
 70 K     0.00321    0.00378    0.02916
 71 K    -0.00544   -0.00404    0.03110
 72 K     0.00365    0.00000    4.49989

System changes: positions 

Initializing position-dependent things.

Density initialized from wave functions
           .------------------------------------------------------.  
          /|                                                      |  
         / |                                                      |  
        /  |                                                      |  
       /   |                                                      |  
      /    |                                                      |  
     /     |                                                      |  
    /      |                                                      |  
   /       |                                                      |  
  /        |                                                      |  
 *         |                                                      |  
 |         |                                                      |  
 |         |                                                      |  
 |         |                                                      |  
 |       K |                K                 K                   |  
 |         |                                                      |  
 |         |     K                 K                  K           |  
 |         |            K                  K                 K    |  
 |         |      K                  K                 K          |  
 |        K| K                  K                 K               |  
 |         |              K                 K                  K  |  
 | K       |         K                 K                          |  
 |         |   K             K   K             K    K             |  
 |       KK|           K    K            K    K            K      |  
 |         |                                                      |  
 |         |K    K            K    K             K   K            |  
 |    K    |            K                  K                      |  
 K         |       K                 KK                K          |  
 |         | K                  K                 K               |  
 |      K  |              K                 K                     |  
 | K       |         K                 K                          |  
 |        K|   K             K   K             K    K             |  
 |  K      |           K                 K                        |  
 |         |                                                      |  
 |         |K                 K                  K                |  
 |         |                                                      |  
 K         |       K                  K                           |  
 |         |                                                      |  
 |         .------------------------------------------------------.  
 |        /                                                      /   
 |       /                                                      /    
 |      /                                                      /     
 |     /                                                      /      
 |    /                                                      /       
 |   /                                                      /        
 |  /                                                      /         
 | /                                                      /          
 |/                                                      /           
 *------------------------------------------------------*            

Atomic positions and initial magnetic moments

Positions:
   0 K      0.000000    0.000000   10.000000    ( 0.0000,  0.0000,  0.0000)
   1 K      3.698168    2.615000   10.000000    ( 0.0000,  0.0000,  0.0000)
   2 K      3.698168    0.000000   13.698168    ( 0.0000,  0.0000,  0.0000)
   3 K      0.000000    2.615000   13.698168    ( 0.0000,  0.0000,  0.0000)
   4 K      0.000014   -0.000000   17.396288    ( 0.0000,  0.0000,  0.0000)
   5 K      3.697837    2.615687   17.396011    ( 0.0000,  0.0000,  0.0000)
   6 K      3.698290   -0.000000   20.817725    ( 0.0000,  0.0000,  0.0000)
   7 K      0.000363    2.614671   21.096052    ( 0.0000,  0.0000,  0.0000)
   8 K      0.000000    5.230000   10.000000    ( 0.0000,  0.0000,  0.0000)
   9 K      3.698168    7.845000   10.000000    ( 0.0000,  0.0000,  0.0000)
  10 K      3.698168    5.230000   13.698168    ( 0.0000,  0.0000,  0.0000)
  11 K      0.000000    7.845000   13.698168    ( 0.0000,  0.0000,  0.0000)
  12 K     -0.000087    5.230027   17.396356    ( 0.0000,  0.0000,  0.0000)
  13 K      3.698312    7.845000   17.396370    ( 0.0000,  0.0000,  0.0000)
  14 K      3.698004    5.228758   21.096324    ( 0.0000,  0.0000,  0.0000)
  15 K     -0.000137    7.845000   21.095232    ( 0.0000,  0.0000,  0.0000)
  16 K      0.000000   10.460000   10.000000    ( 0.0000,  0.0000,  0.0000)
  17 K      3.698168   13.075000   10.000000    ( 0.0000,  0.0000,  0.0000)
  18 K      3.698168   10.460000   13.698168    ( 0.0000,  0.0000,  0.0000)
  19 K      0.000000   13.075000   13.698168    ( 0.0000,  0.0000,  0.0000)
  20 K     -0.000087   10.459973   17.396356    ( 0.0000,  0.0000,  0.0000)
  21 K      3.697837   13.074313   17.396011    ( 0.0000,  0.0000,  0.0000)
  22 K      3.698004   10.461242   21.096324    ( 0.0000,  0.0000,  0.0000)
  23 K      0.000363   13.075329   21.096052    ( 0.0000,  0.0000,  0.0000)
  24 K      7.396337    0.000000   10.000000    ( 0.0000,  0.0000,  0.0000)
  25 K     11.094505    2.615000   10.000000    ( 0.0000,  0.0000,  0.0000)
  26 K     11.094505    0.000000   13.698168    ( 0.0000,  0.0000,  0.0000)
  27 K      7.396337    2.615000   13.698168    ( 0.0000,  0.0000,  0.0000)
  28 K      7.396175   -0.000000   17.396423    ( 0.0000,  0.0000,  0.0000)
  29 K     11.094506    2.615006   17.396524    ( 0.0000,  0.0000,  0.0000)
  30 K     11.094595    0.000000   21.095254    ( 0.0000,  0.0000,  0.0000)
  31 K      7.396142    2.614830   21.096179    ( 0.0000,  0.0000,  0.0000)
  32 K      7.396337    5.230000   10.000000    ( 0.0000,  0.0000,  0.0000)
  33 K     11.094505    7.845000   10.000000    ( 0.0000,  0.0000,  0.0000)
  34 K     11.094505    5.230000   13.698168    ( 0.0000,  0.0000,  0.0000)
  35 K      7.396337    7.845000   13.698168    ( 0.0000,  0.0000,  0.0000)
  36 K      7.396755    5.229688   17.396532    ( 0.0000,  0.0000,  0.0000)
  37 K     11.094495    7.845000   17.396290    ( 0.0000,  0.0000,  0.0000)
  38 K     11.094571    5.230027   21.095270    ( 0.0000,  0.0000,  0.0000)
  39 K      7.396353    7.845000   21.095203    ( 0.0000,  0.0000,  0.0000)
  40 K      7.396337   10.460000   10.000000    ( 0.0000,  0.0000,  0.0000)
  41 K     11.094505   13.075000   10.000000    ( 0.0000,  0.0000,  0.0000)
  42 K     11.094505   10.460000   13.698168    ( 0.0000,  0.0000,  0.0000)
  43 K      7.396337   13.075000   13.698168    ( 0.0000,  0.0000,  0.0000)
  44 K      7.396755   10.460312   17.396532    ( 0.0000,  0.0000,  0.0000)
  45 K     11.094506   13.074994   17.396524    ( 0.0000,  0.0000,  0.0000)
  46 K     11.094571   10.459973   21.095270    ( 0.0000,  0.0000,  0.0000)
  47 K      7.396142   13.075170   21.096179    ( 0.0000,  0.0000,  0.0000)
  48 K     14.792674    0.000000   10.000000    ( 0.0000,  0.0000,  0.0000)
  49 K     18.490842    2.615000   10.000000    ( 0.0000,  0.0000,  0.0000)
  50 K     18.490842    0.000000   13.698168    ( 0.0000,  0.0000,  0.0000)
  51 K     14.792674    2.615000   13.698168    ( 0.0000,  0.0000,  0.0000)
  52 K     14.792817    0.000000   17.396501    ( 0.0000,  0.0000,  0.0000)
  53 K     18.491172    2.615346   17.396702    ( 0.0000,  0.0000,  0.0000)
  54 K     18.490632   -0.000000   21.095225    ( 0.0000,  0.0000,  0.0000)
  55 K     14.792501    2.615128   21.095444    ( 0.0000,  0.0000,  0.0000)
  56 K     14.792674    5.230000   10.000000    ( 0.0000,  0.0000,  0.0000)
  57 K     18.490842    7.845000   10.000000    ( 0.0000,  0.0000,  0.0000)
  58 K     18.490842    5.230000   13.698168    ( 0.0000,  0.0000,  0.0000)
  59 K     14.792674    7.845000   13.698168    ( 0.0000,  0.0000,  0.0000)
  60 K     14.792343    5.229673   17.396579    ( 0.0000,  0.0000,  0.0000)
  61 K     18.490709    7.845000   17.396424    ( 0.0000,  0.0000,  0.0000)
  62 K     18.490951    5.229866   21.095397    ( 0.0000,  0.0000,  0.0000)
  63 K     14.792796    7.845000   21.095280    ( 0.0000,  0.0000,  0.0000)
  64 K     14.792674   10.460000   10.000000    ( 0.0000,  0.0000,  0.0000)
  65 K     18.490842   13.075000   10.000000    ( 0.0000,  0.0000,  0.0000)
  66 K     18.490842   10.460000   13.698168    ( 0.0000,  0.0000,  0.0000)
  67 K     14.792674   13.075000   13.698168    ( 0.0000,  0.0000,  0.0000)
  68 K     14.792343   10.460327   17.396579    ( 0.0000,  0.0000,  0.0000)
  69 K     18.491172   13.074654   17.396702    ( 0.0000,  0.0000,  0.0000)
  70 K     18.490951   10.460134   21.095397    ( 0.0000,  0.0000,  0.0000)
  71 K     14.792501   13.074872   21.095444    ( 0.0000,  0.0000,  0.0000)
  72 K      3.698283   -0.000000   23.369436    ( 0.0000,  0.0000,  0.0000)

Unit cell:
           periodic     x           y           z      points  spacing
  1. axis:    yes   22.189011    0.000000    0.000000   112     0.1981
  2. axis:    yes    0.000000   15.690000    0.000000    80     0.1961
  3. axis:    no     0.000000    0.000000   31.094505   156     0.1993

  Lengths:  22.189011  15.690000  31.094505
  Angles:   90.000000  90.000000  90.000000

Effective grid spacing dv^(1/3) = 0.1979

     iter     time        total  log10-change:
                         energy   eigst   dens
iter:   1 16:59:04   -60.248061        c
iter:   2 17:01:05   -60.245435        c -3.14
iter:   3 17:03:05   -60.244431c       c -3.36
iter:   4 17:05:05   -60.243991c       c -3.58
iter:   5 17:06:56   -60.243136c       c -3.59
iter:   6 17:08:20   -60.242247c       c -3.65
iter:   7 17:09:52   -60.242354c       c -3.83
iter:   8 17:11:49   -60.242700c       c -3.94
iter:   9 17:13:32   -60.242631c       c -4.14c

Converged after 9 iterations.

Dipole moment: (-87.787127, -65.400051, 0.182068) |e|*Ang

Energy contributions relative to reference atoms: (reference = -1195904.484944)

Kinetic:       +129.935344
Potential:     -110.016439
External:        +0.000000
XC:             -80.573784
Entropy (-ST):   -3.788363
Local:           +2.306430
SIC:             +0.000000
--------------------------
Free energy:    -62.136813
Extrapolated:   -60.242631

 Band  Eigenvalues  Occupancy
    0    -36.06748    2.00000
    1    -35.38477    2.00000
    2    -34.79768    2.00000
    3    -34.79749    2.00000
    4    -34.79715    2.00000
    5    -34.79061    2.00000
    6    -34.79050    2.00000
    7    -34.79005    2.00000
    8    -34.78985    2.00000
    9    -34.78978    2.00000
   10    -34.78959    2.00000
   11    -34.78846    2.00000
   12    -34.78842    2.00000
   13    -34.78797    2.00000
   14    -34.78772    2.00000
   15    -34.78723    2.00000
   16    -34.78698    2.00000
   17    -34.78683    2.00000
   18    -34.78655    2.00000
   19    -34.78654    2.00000
   20    -34.78635    2.00000
   21    -34.78630    2.00000
   22    -34.78626    2.00000
   23    -34.78574    2.00000
   24    -34.78567    2.00000
   25    -34.78469    2.00000
   26    -34.78401    2.00000
   27    -34.78226    2.00000
   28    -34.78180    2.00000
   29    -34.77914    2.00000
   30    -34.77851    2.00000
   31    -34.77563    2.00000
   32    -34.77519    2.00000
   33    -34.73304    2.00000
   34    -34.73242    2.00000
   35    -34.73237    2.00000
   36    -34.73227    2.00000
   37    -34.63806    2.00000
   38    -34.63746    2.00000
   39    -34.63722    2.00000
   40    -34.63667    2.00000
   41    -34.63462    2.00000
   42    -34.63364    2.00000
   43    -34.63271    2.00000
   44    -34.63243    2.00000
   45    -34.63214    2.00000
   46    -34.63203    2.00000
   47    -34.63081    2.00000
   48    -34.63057    2.00000
   49    -34.63026    2.00000
   50    -34.63018    2.00000
   51    -34.63006    2.00000
   52    -34.62990    2.00000
   53    -34.62963    2.00000
   54    -34.62936    2.00000
   55    -34.62929    2.00000
   56    -34.62903    2.00000
   57    -34.62874    2.00000
   58    -34.62844    2.00000
   59    -34.62842    2.00000
   60    -34.62819    2.00000
   61    -34.62780    2.00000
   62    -34.62762    2.00000
   63    -34.62737    2.00000
   64    -34.62670    2.00000
   65    -34.62654    2.00000
   66    -34.62616    2.00000
   67    -34.62601    2.00000
   68    -34.62577    2.00000
   69    -34.62329    2.00000
   70    -34.62322    2.00000
   71    -34.61939    2.00000
   72    -34.61918    2.00000
   73    -20.38690    2.00000
   74    -19.38480    2.00000
   75    -19.38101    2.00000
   76    -18.79060    2.00000
   77    -18.78984    2.00000
   78    -18.36282    2.00000
   79    -18.30248    2.00000
   80    -18.29890    2.00000
   81    -18.29693    2.00000
   82    -18.29545    2.00000
   83    -18.29497    2.00000
   84    -18.29447    2.00000
   85    -18.29439    2.00000
   86    -18.29333    2.00000
   87    -18.29191    2.00000
   88    -18.29163    2.00000
   89    -18.29104    2.00000
   90    -18.29052    2.00000
   91    -18.28941    2.00000
   92    -18.28916    2.00000
   93    -18.28910    2.00000
   94    -18.28907    2.00000
   95    -18.28824    2.00000
   96    -18.28805    2.00000
   97    -18.28792    2.00000
   98    -18.28764    2.00000
   99    -18.28737    2.00000
  100    -18.28701    2.00000
  101    -18.28686    2.00000
  102    -18.28656    2.00000
  103    -18.28591    2.00000
  104    -18.28579    2.00000
  105    -18.28513    2.00000
  106    -18.28482    2.00000
  107    -18.28460    2.00000
  108    -18.28424    2.00000
  109    -18.28403    2.00000
  110    -18.28394    2.00000
  111    -18.28350    2.00000
  112    -18.28332    2.00000
  113    -18.28329    2.00000
  114    -18.28246    2.00000
  115    -18.28237    2.00000
  116    -18.28234    2.00000
  117    -18.28204    2.00000
  118    -18.28142    2.00000
  119    -18.28141    2.00000
  120    -18.28122    2.00000
  121    -18.28074    2.00000
  122    -18.28046    2.00000
  123    -18.28034    2.00000
  124    -18.27937    2.00000
  125    -18.27928    2.00000
  126    -18.27873    2.00000
  127    -18.27604    2.00000
  128    -18.27536    2.00000
  129    -18.27509    2.00000
  130    -18.27423    2.00000
  131    -18.27338    2.00000
  132    -18.27209    2.00000
  133    -18.27208    2.00000
  134    -18.27206    2.00000
  135    -18.27138    2.00000
  136    -18.27065    2.00000
  137    -18.26930    2.00000
  138    -18.26793    2.00000
  139    -18.26338    2.00000
  140    -18.26267    2.00000
  141    -18.26218    2.00000
  142    -18.26062    2.00000
  143    -18.25978    2.00000
  144    -18.25859    2.00000
  145    -18.25836    2.00000
  146    -18.25803    2.00000
  147    -18.25480    2.00000
  148    -18.25433    2.00000
  149    -18.25397    2.00000
  150    -18.25356    2.00000
  151    -18.25326    2.00000
  152    -18.25305    2.00000
  153    -18.25182    2.00000
  154    -18.25174    2.00000
  155    -18.25106    2.00000
  156    -18.25082    2.00000
  157    -18.25056    2.00000
  158    -18.25002    2.00000
  159    -18.24899    2.00000
  160    -18.24855    2.00000
  161    -18.24673    2.00000
  162    -18.24600    2.00000
  163    -18.24594    2.00000
  164    -18.24453    2.00000
  165    -18.24443    2.00000
  166    -18.24372    2.00000
  167    -18.24345    2.00000
  168    -18.23989    2.00000
  169    -18.23988    2.00000
  170    -18.23987    2.00000
  171    -18.23747    2.00000
  172    -18.23177    2.00000
  173    -18.23169    2.00000
  174    -18.23102    2.00000
  175    -18.23073    2.00000
  176    -18.21266    2.00000
  177    -18.21120    2.00000
  178    -18.21039    2.00000
  179    -18.20993    2.00000
  180    -18.20541    2.00000
  181    -18.20480    2.00000
  182    -18.20189    2.00000
  183    -18.20171    2.00000
  184    -18.15593    2.00000
  185    -18.15069    2.00000
  186    -18.15055    2.00000
  187    -18.14997    2.00000
  188    -18.14961    2.00000
  189    -18.14793    2.00000
  190    -18.14772    2.00000
  191    -18.14422    2.00000
  192    -18.14382    2.00000
  193    -18.14342    2.00000
  194    -18.14159    2.00000
  195    -18.14114    2.00000
  196    -18.14110    2.00000
  197    -18.14072    2.00000
  198    -18.14021    2.00000
  199    -18.13985    2.00000
  200    -18.13951    2.00000
  201    -18.13852    2.00000
  202    -18.13805    2.00000
  203    -18.13738    2.00000
  204    -18.13729    2.00000
  205    -18.13652    2.00000
  206    -18.13630    2.00000
  207    -18.13624    2.00000
  208    -18.13560    2.00000
  209    -18.13454    2.00000
  210    -18.13210    2.00000
  211    -18.13179    2.00000
  212    -18.13132    2.00000
  213    -18.13120    2.00000
  214    -18.13079    2.00000
  215    -18.13046    2.00000
  216    -18.13034    2.00000
  217    -18.12897    2.00000
  218    -18.12865    2.00000
  219    -18.12755    2.00000
  220    -18.12744    2.00000
  221    -18.12575    2.00000
  222    -18.12457    2.00000
  223    -18.12429    2.00000
  224    -18.12300    2.00000
  225    -18.12168    2.00000
  226    -18.12007    2.00000
  227    -18.11894    2.00000
  228    -18.11801    2.00000
  229    -18.11770    2.00000
  230    -18.11723    2.00000
  231    -18.11687    2.00000
  232    -18.11576    2.00000
  233    -18.11570    2.00000
  234    -18.11465    2.00000
  235    -18.11453    2.00000
  236    -18.11440    2.00000
  237    -18.11423    2.00000
  238    -18.11349    2.00000
  239    -18.11193    2.00000
  240    -18.11074    2.00000
  241    -18.11044    2.00000
  242    -18.11041    2.00000
  243    -18.10998    2.00000
  244    -18.10755    2.00000
  245    -18.10723    2.00000
  246    -18.10665    2.00000
  247    -18.10660    2.00000
  248    -18.10590    2.00000
  249    -18.10568    2.00000
  250    -18.10564    2.00000
  251    -18.10529    2.00000
  252    -18.10489    2.00000
  253    -18.10360    2.00000
  254    -18.10352    2.00000
  255    -18.10341    2.00000
  256    -18.10299    2.00000
  257    -18.10278    2.00000
  258    -18.10173    2.00000
  259    -18.10155    2.00000
  260    -18.10149    2.00000
  261    -18.10090    2.00000
  262    -18.10084    2.00000
  263    -18.10053    2.00000
  264    -18.10006    2.00000
  265    -18.10000    2.00000
  266    -18.09975    2.00000
  267    -18.09942    2.00000
  268    -18.09792    2.00000
  269    -18.09779    2.00000
  270    -18.09750    2.00000
  271    -18.09654    2.00000
  272    -18.09648    2.00000
  273    -18.09634    2.00000
  274    -18.09626    2.00000
  275    -18.09601    2.00000
  276    -18.09508    2.00000
  277    -18.09481    2.00000
  278    -18.09427    2.00000
  279    -18.09410    2.00000
  280    -18.09347    2.00000
  281    -18.09342    2.00000
  282    -18.09330    2.00000
  283    -18.09275    2.00000
  284    -18.09234    2.00000
  285    -18.09181    2.00000
  286    -18.09143    2.00000
  287    -18.09089    2.00000
  288    -18.08912    2.00000
  289    -18.08872    2.00000
  290    -18.08840    2.00000
  291    -18.08326    2.00000
  292     -4.58106    2.00000
  293     -4.24196    1.99999
  294     -4.22681    1.99999
  295     -4.19697    1.99999
  296     -3.90371    1.99990
  297     -3.88710    1.99989
  298     -3.86346    1.99987
  299     -3.84353    1.99985
  300     -3.59495    1.99923
  301     -3.55458    1.99899
  302     -3.55181    1.99897
  303     -3.55039    1.99896
  304     -3.54727    1.99894
  305     -3.51437    1.99868
  306     -3.50933    1.99864
  307     -3.27085    1.99333
  308     -3.22844    1.99116
  309     -3.22334    1.99085
  310     -3.20357    1.98957
  311     -3.18746    1.98839
  312     -3.18705    1.98836
  313     -3.18003    1.98781
  314     -3.17611    1.98749
  315     -2.92077    1.93323
  316     -2.87570    1.91086
  317     -2.86748    1.90608
  318     -2.85955    1.90123
  319     -2.74759    1.80249
  320     -2.59986    1.54632
  321     -2.58807    1.51815
  322     -2.58473    1.50997
  323     -2.57954    1.49706
  324     -2.57793    1.49300
  325     -2.56440    1.45811
  326     -2.55552    1.43442
  327     -2.54598    1.40827
  328     -2.43436    1.06138
  329     -2.38609    0.90087
  330     -2.26222    0.52824
  331     -2.25145    0.50078
  332     -2.23474    0.46015
  333     -2.22801    0.44444
  334     -2.22693    0.44195
  335     -2.22656    0.44112
  336     -2.11238    0.23349
  337     -2.07427    0.18598
  338     -1.98629    0.10790
  339     -1.98380    0.10622
  340     -1.90961    0.06614
  341     -1.79165    0.03068
  342     -1.77357    0.02724
  343     -1.77303    0.02715
  344     -1.73730    0.02146
  345     -1.70974    0.01789
  346     -1.69347    0.01606
  347     -1.68835    0.01553
  348     -1.68373    0.01506
  349     -1.68354    0.01504
  350     -1.66077    0.01294
  351     -1.65191    0.01220
  352     -1.64988    0.01204
  353     -1.64108    0.01135
  354     -1.63071    0.01060
  355     -1.63046    0.01058
  356     -1.62561    0.01025
  357     -1.59745    0.00850
  358     -1.54686    0.00607
  359     -1.44337    0.00305
  360     -1.43123    0.00281
  361     -1.41407    0.00251
  362     -1.34405    0.00158
  363     -1.33045    0.00144
  364     -1.31185    0.00127

Fermi level: -2.41592

Gap: 0.048 eV
Transition (v -> c):
  (s=0, k=0, n=328, [0.00, 0.00, 0.00]) -> (s=0, k=0, n=329, [0.00, 0.00, 0.00])
No difference between direct/indirect transitions

Forces in eV/Ang:
  0 K     0.00031    0.00000   -0.02602
  1 K    -0.00573    0.00362   -0.03005
  2 K     0.00460    0.00000   -0.00190
  3 K    -0.00086    0.00033   -0.00638
  4 K    -0.00370    0.00000   -0.00696
  5 K    -0.00996    0.03878   -0.03271
  6 K     0.00591    0.00000   -2.88601
  7 K     0.01134   -0.01093    0.05368
  8 K    -0.00118   -0.00151   -0.02535
  9 K     0.00391    0.00000   -0.02020
 10 K    -0.01072   -0.01106   -0.00839
 11 K    -0.00007    0.00000    0.00455
 12 K    -0.00218    0.00048    0.00055
 13 K     0.00469    0.00000   -0.00108
 14 K    -0.00401   -0.03764    0.05842
 15 K    -0.00377    0.00000    0.02572
 16 K    -0.00118    0.00151   -0.02535
 17 K    -0.00573   -0.00362   -0.03005
 18 K    -0.01072    0.01106   -0.00839
 19 K    -0.00086   -0.00033   -0.00638
 20 K    -0.00218   -0.00048    0.00055
 21 K    -0.00996   -0.03878   -0.03271
 22 K    -0.00401    0.03764    0.05842
 23 K     0.01134    0.01093    0.05368
 24 K    -0.00423    0.00000   -0.02501
 25 K     0.00008    0.00031   -0.02725
 26 K     0.00033    0.00000   -0.00004
 27 K     0.01162    0.01134   -0.01209
 28 K    -0.00101    0.00000   -0.00275
 29 K     0.00150    0.00082    0.00508
 30 K     0.00010    0.00000    0.02676
 31 K    -0.00649   -0.00634    0.05682
 32 K     0.00691   -0.00684   -0.02962
 33 K     0.00221    0.00000   -0.02770
 34 K     0.00092   -0.00002   -0.00228
 35 K    -0.00452    0.00000    0.00031
 36 K     0.01229   -0.00997    0.00607
 37 K    -0.00009    0.00000   -0.00157
 38 K     0.00293    0.00094    0.02578
 39 K    -0.00001    0.00000    0.02507
 40 K     0.00691    0.00684   -0.02962
 41 K     0.00008   -0.00031   -0.02725
 42 K     0.00092    0.00002   -0.00228
 43 K     0.01162   -0.01134   -0.01209
 44 K     0.01229    0.00997    0.00607
 45 K     0.00150   -0.00082    0.00508
 46 K     0.00293   -0.00094    0.02578
 47 K    -0.00649    0.00634    0.05682
 48 K     0.00390    0.00000   -0.02384
 49 K     0.00566    0.00564   -0.03153
 50 K    -0.00491    0.00000   -0.00425
 51 K    -0.01073    0.01150   -0.00888
 52 K     0.00469    0.00000    0.00526
 53 K     0.00860    0.01131    0.01078
 54 K    -0.00411    0.00000    0.02609
 55 K    -0.00496    0.00414    0.02961
 56 K    -0.00573   -0.00364   -0.03447
 57 K    -0.00612    0.00000   -0.02669
 58 K     0.00980   -0.01102   -0.00797
 59 K     0.00459    0.00000   -0.00030
 60 K    -0.01014   -0.00993    0.00872
 61 K    -0.00460    0.00000    0.00263
 62 K     0.00214   -0.00379    0.02926
 63 K     0.00392    0.00000    0.02452
 64 K    -0.00573    0.00364   -0.03447
 65 K     0.00566   -0.00564   -0.03153
 66 K     0.00980    0.01102   -0.00797
 67 K    -0.01073   -0.01150   -0.00888
 68 K    -0.01014    0.00993    0.00872
 69 K     0.00860   -0.01131    0.01078
 70 K     0.00214    0.00379    0.02926
 71 K    -0.00496   -0.00414    0.02961
 72 K     0.00469    0.00000    2.89588

System changes: positions 

Initializing position-dependent things.

Density initialized from wave functions
           .------------------------------------------------------.  
          /|                                                      |  
         / |                                                      |  
[...]
 |         |                                                      |  
 |         |K    K            K    K             K   K            |  
 |    K    |            K                  K                      |  
 |         |       K                 KK                K          |  
 |         | K                  K                 K               |  
 |      K  |              K                 K                     |  
 | K       |         K                 K                          |  
 |        K|   K             K   K             K    K             |  
 |  K      |           K                 K                        |  
 |         |                                                      |  
 |         |K                 K                  K                |  
 |         |                                                      |  
 K         |       K                  K                           |  
 |         |                                                      |  
 |         .------------------------------------------------------.  
 |        /                                                      /   
 |       /                                                      /    
 |      /                                                      /     
 |     /                                                      /      
 |    /                                                      /       
 |   /                                                      /        
 |  /                                                      /         
 | /                                                      /          
 |/                                                      /           
 *------------------------------------------------------*            

Atomic positions and initial magnetic moments

Positions:
   0 K      0.000000    0.000000   10.000000    ( 0.0000,  0.0000,  0.0000)
   1 K      3.698168    2.615000   10.000000    ( 0.0000,  0.0000,  0.0000)
   2 K      3.698168    0.000000   13.698168    ( 0.0000,  0.0000,  0.0000)
   3 K      0.000000    2.615000   13.698168    ( 0.0000,  0.0000,  0.0000)
   4 K     -0.036850   -0.000000   17.344455    ( 0.0000,  0.0000,  0.0000)
   5 K      3.697330    2.797703   17.186811    ( 0.0000,  0.0000,  0.0000)
   6 K      3.709421   -0.000000   20.301150    ( 0.0000,  0.0000,  0.0000)
   7 K      0.038124    2.578572   21.211190    ( 0.0000,  0.0000,  0.0000)
   8 K      0.000000    5.230000   10.000000    ( 0.0000,  0.0000,  0.0000)
   9 K      3.698168    7.845000   10.000000    ( 0.0000,  0.0000,  0.0000)
  10 K      3.698168    5.230000   13.698168    ( 0.0000,  0.0000,  0.0000)
  11 K      0.000000    7.845000   13.698168    ( 0.0000,  0.0000,  0.0000)
  12 K     -0.003213    5.227475   17.396190    ( 0.0000,  0.0000,  0.0000)
  13 K      3.706617    7.845000   17.397274    ( 0.0000,  0.0000,  0.0000)
  14 K      3.699558    5.193542   21.188805    ( 0.0000,  0.0000,  0.0000)
  15 K     -0.001203    7.845000   21.142378    ( 0.0000,  0.0000,  0.0000)
  16 K      0.000000   10.460000   10.000000    ( 0.0000,  0.0000,  0.0000)
  17 K      3.698168   13.075000   10.000000    ( 0.0000,  0.0000,  0.0000)
  18 K      3.698168   10.460000   13.698168    ( 0.0000,  0.0000,  0.0000)
  19 K      0.000000   13.075000   13.698168    ( 0.0000,  0.0000,  0.0000)
  20 K     -0.003213   10.462525   17.396190    ( 0.0000,  0.0000,  0.0000)
  21 K      3.697330   12.892297   17.186811    ( 0.0000,  0.0000,  0.0000)
  22 K      3.699558   10.496458   21.188805    ( 0.0000,  0.0000,  0.0000)
  23 K      0.038124   13.111428   21.211190    ( 0.0000,  0.0000,  0.0000)
  24 K      7.396337    0.000000   10.000000    ( 0.0000,  0.0000,  0.0000)
  25 K     11.094505    2.615000   10.000000    ( 0.0000,  0.0000,  0.0000)
  26 K     11.094505    0.000000   13.698168    ( 0.0000,  0.0000,  0.0000)
  27 K      7.396337    2.615000   13.698168    ( 0.0000,  0.0000,  0.0000)
  28 K      7.429035    0.000000   17.349236    ( 0.0000,  0.0000,  0.0000)
  29 K     11.097962    2.614860   17.398584    ( 0.0000,  0.0000,  0.0000)
  30 K     11.096478    0.000000   21.140303    ( 0.0000,  0.0000,  0.0000)
  31 K      7.357314    2.581694   21.200117    ( 0.0000,  0.0000,  0.0000)
  32 K      7.396337    5.230000   10.000000    ( 0.0000,  0.0000,  0.0000)
  33 K     11.094505    7.845000   10.000000    ( 0.0000,  0.0000,  0.0000)
  34 K     11.094505    5.230000   13.698168    ( 0.0000,  0.0000,  0.0000)
  35 K      7.396337    7.845000   13.698168    ( 0.0000,  0.0000,  0.0000)
  36 K      7.408876    5.216141   17.402687    ( 0.0000,  0.0000,  0.0000)
  37 K     11.094279    7.845000   17.391141    ( 0.0000,  0.0000,  0.0000)
  38 K     11.095524    5.232408   21.147988    ( 0.0000,  0.0000,  0.0000)
  39 K      7.392057    7.845000   21.148985    ( 0.0000,  0.0000,  0.0000)
  40 K      7.396337   10.460000   10.000000    ( 0.0000,  0.0000,  0.0000)
  41 K     11.094505   13.075000   10.000000    ( 0.0000,  0.0000,  0.0000)
  42 K     11.094505   10.460000   13.698168    ( 0.0000,  0.0000,  0.0000)
  43 K      7.396337   13.075000   13.698168    ( 0.0000,  0.0000,  0.0000)
  44 K      7.408876   10.473859   17.402687    ( 0.0000,  0.0000,  0.0000)
  45 K     11.097962   13.075140   17.398584    ( 0.0000,  0.0000,  0.0000)
  46 K     11.095524   10.457592   21.147988    ( 0.0000,  0.0000,  0.0000)
  47 K      7.357314   13.108306   21.200117    ( 0.0000,  0.0000,  0.0000)
  48 K     14.792674    0.000000   10.000000    ( 0.0000,  0.0000,  0.0000)
  49 K     18.490842    2.615000   10.000000    ( 0.0000,  0.0000,  0.0000)
  50 K     18.490842    0.000000   13.698168    ( 0.0000,  0.0000,  0.0000)
  51 K     14.792674    2.615000   13.698168    ( 0.0000,  0.0000,  0.0000)
  52 K     14.801074    0.000000   17.398626    ( 0.0000,  0.0000,  0.0000)
  53 K     18.497222    2.626252   17.406087    ( 0.0000,  0.0000,  0.0000)
  54 K     18.482056   -0.000000   21.147532    ( 0.0000,  0.0000,  0.0000)
  55 K     14.790888    2.615682   21.141376    ( 0.0000,  0.0000,  0.0000)
  56 K     14.792674    5.230000   10.000000    ( 0.0000,  0.0000,  0.0000)
  57 K     18.490842    7.845000   10.000000    ( 0.0000,  0.0000,  0.0000)
  58 K     18.490842    5.230000   13.698168    ( 0.0000,  0.0000,  0.0000)
  59 K     14.792674    7.845000   13.698168    ( 0.0000,  0.0000,  0.0000)
  60 K     14.782725    5.219772   17.405161    ( 0.0000,  0.0000,  0.0000)
  61 K     18.482899    7.845000   17.396287    ( 0.0000,  0.0000,  0.0000)
  62 K     18.492055    5.228688   21.143407    ( 0.0000,  0.0000,  0.0000)
  63 K     14.799372    7.845000   21.141357    ( 0.0000,  0.0000,  0.0000)
  64 K     14.792674   10.460000   10.000000    ( 0.0000,  0.0000,  0.0000)
  65 K     18.490842   13.075000   10.000000    ( 0.0000,  0.0000,  0.0000)
  66 K     18.490842   10.460000   13.698168    ( 0.0000,  0.0000,  0.0000)
  67 K     14.792674   13.075000   13.698168    ( 0.0000,  0.0000,  0.0000)
  68 K     14.782725   10.470228   17.405161    ( 0.0000,  0.0000,  0.0000)
  69 K     18.497222   13.063748   17.406087    ( 0.0000,  0.0000,  0.0000)
  70 K     18.492055   10.461312   21.143407    ( 0.0000,  0.0000,  0.0000)
  71 K     14.790888   13.074318   21.141376    ( 0.0000,  0.0000,  0.0000)
  72 K      3.700996    0.000000   24.266488    ( 0.0000,  0.0000,  0.0000)

Unit cell:
           periodic     x           y           z      points  spacing
  1. axis:    yes   22.189011    0.000000    0.000000   112     0.1981
  2. axis:    yes    0.000000   15.690000    0.000000    80     0.1961
  3. axis:    no     0.000000    0.000000   31.094505   156     0.1993

  Lengths:  22.189011  15.690000  31.094505
  Angles:   90.000000  90.000000  90.000000

Effective grid spacing dv^(1/3) = 0.1979

     iter     time        total  log10-change:
                         energy   eigst   dens
iter:   1 18:36:29   -61.495156        c
iter:   2 18:37:19   -61.487523        c -2.90
iter:   3 18:38:09   -61.485214c       c -3.09
iter:   4 18:39:01   -61.483263c       c -3.26
iter:   5 18:39:53   -61.481317c       c -3.42
iter:   6 18:40:44   -61.480206c       c -3.62
iter:   7 18:41:36   -61.480147c       c -3.76
iter:   8 18:42:28   -61.480429c       c -3.87
iter:   9 18:43:22   -61.480321c       c -3.99
iter:  10 18:44:10   -61.480298c       c -4.16c

Converged after 10 iterations.

Dipole moment: (-92.203122, -65.406375, 0.436620) |e|*Ang

Energy contributions relative to reference atoms: (reference = -1195904.484944)

Kinetic:       +121.826615
Potential:     -104.770521
External:        +0.000000
XC:             -78.940274
Entropy (-ST):   -3.798255
Local:           +2.303010
SIC:             +0.000000
--------------------------
Free energy:    -63.379425
Extrapolated:   -61.480298

 Band  Eigenvalues  Occupancy
    0    -35.25859    2.00000
    1    -34.76389    2.00000
    2    -34.76245    2.00000
    3    -34.76183    2.00000
    4    -34.76143    2.00000
    5    -34.76074    2.00000
    6    -34.75806    2.00000
    7    -34.75753    2.00000
    8    -34.75745    2.00000
    9    -34.75734    2.00000
   10    -34.75715    2.00000
   11    -34.75706    2.00000
   12    -34.75684    2.00000
   13    -34.75645    2.00000
   14    -34.75631    2.00000
   15    -34.75612    2.00000
   16    -34.75601    2.00000
   17    -34.75559    2.00000
   18    -34.75553    2.00000
   19    -34.75455    2.00000
   20    -34.75445    2.00000
   21    -34.75406    2.00000
   22    -34.75384    2.00000
   23    -34.75363    2.00000
   24    -34.75350    2.00000
   25    -34.75331    2.00000
   26    -34.75282    2.00000
   27    -34.75275    2.00000
   28    -34.75098    2.00000
   29    -34.75057    2.00000
   30    -34.74760    2.00000
   31    -34.74697    2.00000
   32    -34.73621    2.00000
   33    -34.73573    2.00000
   34    -34.73521    2.00000
   35    -34.73496    2.00000
   36    -34.65999    2.00000
   37    -34.61612    2.00000
   38    -34.61565    2.00000
   39    -34.60937    2.00000
   40    -34.60858    2.00000
   41    -34.60781    2.00000
   42    -34.60697    2.00000
   43    -34.60483    2.00000
   44    -34.60421    2.00000
   45    -34.60395    2.00000
   46    -34.60366    2.00000
   47    -34.60334    2.00000
   48    -34.60291    2.00000
   49    -34.60268    2.00000
   50    -34.60235    2.00000
   51    -34.60220    2.00000
   52    -34.60106    2.00000
   53    -34.60085    2.00000
   54    -34.60025    2.00000
   55    -34.59878    2.00000
   56    -34.59779    2.00000
   57    -34.59709    2.00000
   58    -34.59691    2.00000
   59    -34.59681    2.00000
   60    -34.59634    2.00000
   61    -34.59571    2.00000
   62    -34.59557    2.00000
   63    -34.59486    2.00000
   64    -34.59475    2.00000
   65    -34.59451    2.00000
   66    -34.59426    2.00000
   67    -34.59425    2.00000
   68    -34.59404    2.00000
   69    -34.59358    2.00000
   70    -34.59317    2.00000
   71    -34.58245    2.00000
   72    -34.58028    2.00000
   73    -18.75880    2.00000
   74    -18.72317    2.00000
   75    -18.72011    2.00000
   76    -18.27028    2.00000
   77    -18.26959    2.00000
   78    -18.26373    2.00000
   79    -18.26326    2.00000
   80    -18.26244    2.00000
   81    -18.26164    2.00000
   82    -18.26159    2.00000
   83    -18.26028    2.00000
   84    -18.25969    2.00000
   85    -18.25938    2.00000
   86    -18.25918    2.00000
   87    -18.25900    2.00000
   88    -18.25777    2.00000
   89    -18.25747    2.00000
   90    -18.25705    2.00000
   91    -18.25679    2.00000
   92    -18.25663    2.00000
   93    -18.25652    2.00000
   94    -18.25567    2.00000
   95    -18.25461    2.00000
   96    -18.25458    2.00000
   97    -18.25451    2.00000
   98    -18.25422    2.00000
   99    -18.25404    2.00000
  100    -18.25395    2.00000
  101    -18.25332    2.00000
  102    -18.25313    2.00000
  103    -18.25307    2.00000
  104    -18.25303    2.00000
  105    -18.25271    2.00000
  106    -18.25264    2.00000
  107    -18.25247    2.00000
  108    -18.25204    2.00000
  109    -18.25196    2.00000
  110    -18.25194    2.00000
  111    -18.25083    2.00000
  112    -18.25052    2.00000
  113    -18.25041    2.00000
  114    -18.25035    2.00000
  115    -18.25024    2.00000
  116    -18.24970    2.00000
  117    -18.24954    2.00000
  118    -18.24947    2.00000
  119    -18.24943    2.00000
  120    -18.24938    2.00000
  121    -18.24893    2.00000
  122    -18.24851    2.00000
  123    -18.24787    2.00000
  124    -18.24775    2.00000
  125    -18.24711    2.00000
  126    -18.24662    2.00000
  127    -18.24623    2.00000
  128    -18.24581    2.00000
  129    -18.24439    2.00000
  130    -18.24352    2.00000
  131    -18.24266    2.00000
  132    -18.24123    2.00000
  133    -18.23946    2.00000
  134    -18.23818    2.00000
  135    -18.23669    2.00000
  136    -18.23640    2.00000
  137    -18.23347    2.00000
  138    -18.23210    2.00000
  139    -18.22994    2.00000
  140    -18.22968    2.00000
  141    -18.22852    2.00000
  142    -18.22849    2.00000
  143    -18.22819    2.00000
  144    -18.22757    2.00000
  145    -18.22749    2.00000
  146    -18.22737    2.00000
  147    -18.22691    2.00000
  148    -18.22602    2.00000
  149    -18.22485    2.00000
  150    -18.22479    2.00000
  151    -18.22368    2.00000
  152    -18.22232    2.00000
  153    -18.22158    2.00000
  154    -18.22143    2.00000
  155    -18.22135    2.00000
  156    -18.22087    2.00000
  157    -18.22059    2.00000
  158    -18.22054    2.00000
  159    -18.21950    2.00000
  160    -18.21920    2.00000
  161    -18.21863    2.00000
  162    -18.21815    2.00000
  163    -18.21777    2.00000
  164    -18.21650    2.00000
  165    -18.21619    2.00000
  166    -18.21604    2.00000
  167    -18.21134    2.00000
  168    -18.21071    2.00000
  169    -18.20797    2.00000
  170    -18.20792    2.00000
  171    -18.20790    2.00000
  172    -18.20790    2.00000
  173    -18.20775    2.00000
  174    -18.20771    2.00000
  175    -18.20727    2.00000
  176    -18.20682    2.00000
  177    -18.20576    2.00000
  178    -18.20533    2.00000
  179    -18.20313    2.00000
  180    -18.20213    2.00000
  181    -18.18300    2.00000
  182    -18.16154    2.00000
  183    -18.13790    2.00000
  184    -18.12862    2.00000
  185    -18.12716    2.00000
  186    -18.12451    2.00000
  187    -18.12145    2.00000
  188    -18.12128    2.00000
  189    -18.11983    2.00000
  190    -18.11939    2.00000
  191    -18.11878    2.00000
  192    -18.11762    2.00000
  193    -18.11535    2.00000
  194    -18.11531    2.00000
  195    -18.11485    2.00000
  196    -18.11396    2.00000
  197    -18.11247    2.00000
  198    -18.11235    2.00000
  199    -18.11224    2.00000
  200    -18.10968    2.00000
  201    -18.10904    2.00000
  202    -18.10840    2.00000
  203    -18.10803    2.00000
  204    -18.10788    2.00000
  205    -18.10728    2.00000
  206    -18.10712    2.00000
  207    -18.10707    2.00000
  208    -18.10522    2.00000
  209    -18.10508    2.00000
  210    -18.10247    2.00000
  211    -18.10201    2.00000
  212    -18.10163    2.00000
  213    -18.10145    2.00000
  214    -18.10054    2.00000
  215    -18.10021    2.00000
  216    -18.09970    2.00000
  217    -18.09965    2.00000
  218    -18.09899    2.00000
  219    -18.09891    2.00000
  220    -18.09570    2.00000
  221    -18.09542    2.00000
  222    -18.09531    2.00000
  223    -18.09386    2.00000
  224    -18.09259    2.00000
  225    -18.09236    2.00000
  226    -18.09164    2.00000
  227    -18.08945    2.00000
  228    -18.08773    2.00000
  229    -18.08726    2.00000
  230    -18.08718    2.00000
  231    -18.08623    2.00000
  232    -18.08593    2.00000
  233    -18.08458    2.00000
  234    -18.08455    2.00000
  235    -18.08442    2.00000
  236    -18.08415    2.00000
  237    -18.08360    2.00000
  238    -18.08301    2.00000
  239    -18.08146    2.00000
  240    -18.08107    2.00000
  241    -18.08059    2.00000
  242    -18.07930    2.00000
  243    -18.07899    2.00000
  244    -18.07892    2.00000
  245    -18.07779    2.00000
  246    -18.07700    2.00000
  247    -18.07677    2.00000
  248    -18.07637    2.00000
  249    -18.07603    2.00000
  250    -18.07562    2.00000
  251    -18.07557    2.00000
  252    -18.07499    2.00000
  253    -18.07473    2.00000
  254    -18.07400    2.00000
  255    -18.07359    2.00000
  256    -18.07320    2.00000
  257    -18.07185    2.00000
  258    -18.07170    2.00000
  259    -18.07113    2.00000
  260    -18.07102    2.00000
  261    -18.07087    2.00000
  262    -18.07054    2.00000
  263    -18.06940    2.00000
  264    -18.06928    2.00000
  265    -18.06912    2.00000
  266    -18.06903    2.00000
  267    -18.06765    2.00000
  268    -18.06755    2.00000
  269    -18.06714    2.00000
  270    -18.06703    2.00000
  271    -18.06615    2.00000
  272    -18.06561    2.00000
  273    -18.06517    2.00000
  274    -18.06496    2.00000
  275    -18.06475    2.00000
  276    -18.06415    2.00000
  277    -18.06399    2.00000
  278    -18.06378    2.00000
  279    -18.06226    2.00000
  280    -18.06146    2.00000
  281    -18.06142    2.00000
  282    -18.06081    2.00000
  283    -18.06074    2.00000
  284    -18.06071    2.00000
  285    -18.05889    2.00000
  286    -18.05851    2.00000
  287    -18.05710    2.00000
  288    -18.05602    2.00000
  289    -18.05548    2.00000
  290    -18.05510    2.00000
  291    -18.05415    2.00000
  292     -4.54487    2.00000
  293     -4.20250    1.99999
  294     -4.18922    1.99999
  295     -4.15051    1.99998
  296     -3.85630    1.99989
  297     -3.85579    1.99989
  298     -3.81552    1.99986
  299     -3.80006    1.99984
  300     -3.53653    1.99908
  301     -3.52843    1.99903
  302     -3.51612    1.99894
  303     -3.51471    1.99893
  304     -3.51322    1.99892
  305     -3.47396    1.99860
  306     -3.46533    1.99852
  307     -3.21417    1.99211
  308     -3.19654    1.99113
  309     -3.19089    1.99079
  310     -3.17478    1.98975
  311     -3.14864    1.98782
  312     -3.14251    1.98731
  313     -3.13797    1.98692
  314     -3.13291    1.98648
  315     -2.87948    1.92887
  316     -2.84894    1.91351
  317     -2.82176    1.89720
  318     -2.81961    1.89580
  319     -2.72651    1.81448
  320     -2.56516    1.53874
  321     -2.55282    1.50891
  322     -2.54807    1.49707
  323     -2.54745    1.49551
  324     -2.54618    1.49232
  325     -2.53509    1.46379
  326     -2.52538    1.43801
  327     -2.51878    1.42007
  328     -2.41901    1.11469
  329     -2.35965    0.91751
  330     -2.22587    0.51570
  331     -2.21512    0.48874
  332     -2.19064    0.43101
  333     -2.18994    0.42943
  334     -2.18705    0.42297
  335     -2.18624    0.42118
  336     -2.10565    0.26972
  337     -2.04835    0.19232
  338     -1.95010    0.10474
  339     -1.94953    0.10436
  340     -1.91791    0.08537
  341     -1.75529    0.02971
  342     -1.75260    0.02919
  343     -1.73877    0.02665
  344     -1.71317    0.02252
  345     -1.67465    0.01746
  346     -1.65790    0.01563
  347     -1.65432    0.01527
  348     -1.64676    0.01452
  349     -1.64562    0.01441
  350     -1.62713    0.01275
  351     -1.62114    0.01226
  352     -1.61412    0.01170
  353     -1.61253    0.01158
  354     -1.60477    0.01100
  355     -1.59043    0.01000
  356     -1.59018    0.00998
  357     -1.58308    0.00952
  358     -1.53188    0.00678
  359     -1.41588    0.00313
  360     -1.41216    0.00306
  361     -1.37273    0.00235
  362     -1.34599    0.00197
  363     -1.31014    0.00155
  364     -1.27323    0.00121

Fermi level: -2.38445

Gap: 0.059 eV
Transition (v -> c):
  (s=0, k=0, n=328, [0.00, 0.00, 0.00]) -> (s=0, k=0, n=329, [0.00, 0.00, 0.00])
No difference between direct/indirect transitions
