73
Lattice="22.189010793633862 0.0 0.0 0.0 15.690000000000001 0.0 0.0 0.0 31.09450539681693" Properties=species:S:1:pos:R:3:move_mask:L:1:tags:I:1:forces:R:3:magmoms:R:1 energy=-61.48029770334698 dipole="-92.20312214844365 -65.40637542972188 0.43661981138917033" magmom=0.0 free_energy=-63.37942525547001 pbc="T T F"
K        0.00000000       0.00000000      10.00000000  F        4      -0.00030977       0.00000000      -0.02828068       0.00000000
K        3.69816847       2.61500000      10.00000000  F        4      -0.00573121       0.00430595      -0.03140024       0.00000000
K        3.69816847       0.00000000      13.69816847  F        3       0.00469642       0.00000000      -0.00817389       0.00000000
K        0.00000000       2.61500000      13.69816847  F        3      -0.00640082       0.00537360      -0.01793900       0.00000000
K       -0.03684994      -0.00000000      17.34445542  T        2       0.00787362       0.00000000       0.02521932       0.00000000
K        3.69732995       2.79770276      17.18681084  T        2      -0.01954154      -0.01861338       0.03794141       0.00000000
K        3.70942141      -0.00000000      20.30115009  T        1      -0.00422892       0.00000000      -0.02951064       0.00000000
K        0.03812386       2.57857202      21.21118994  T        1       0.02458139      -0.01072403       0.03295344       0.00000000
K        0.00000000       5.23000000      10.00000000  F        4      -0.00119520      -0.00063860      -0.02635836       0.00000000
K        3.69816847       7.84500000      10.00000000  F        4       0.00392494       0.00000000      -0.02301292       0.00000000
K        3.69816847       5.23000000      13.69816847  F        3      -0.01045755       0.02423071      -0.06420034       0.00000000
K        0.00000000       7.84500000      13.69816847  F        3      -0.00031610       0.00000000       0.00564332       0.00000000
K       -0.00321325       5.22747496      17.39619045  T        2      -0.01556151       0.00123368       0.03245612       0.00000000
K        3.70661706       7.84500000      17.39727400  T        2       0.00370217       0.00000000       0.03039705       0.00000000
K        3.69955812       5.19354202      21.18880460  T        1       0.00028510      -0.01544999       0.02195783       0.00000000
K       -0.00120300       7.84500000      21.14237807  T        1       0.00624077       0.00000000       0.02629782       0.00000000
K        0.00000000      10.46000000      10.00000000  F        4      -0.00119520       0.00063860      -0.02635836       0.00000000
K        3.69816847      13.07500000      10.00000000  F        4      -0.00573121      -0.00430595      -0.03140024       0.00000000
K        3.69816847      10.46000000      13.69816847  F        3      -0.01045755      -0.02423071      -0.06420034       0.00000000
K        0.00000000      13.07500000      13.69816847  F        3      -0.00640082      -0.00537360      -0.01793900       0.00000000
K       -0.00321325      10.46252504      17.39619045  T        2      -0.01556151      -0.00123368       0.03245612       0.00000000
K        3.69732995      12.89229724      17.18681084  T        2      -0.01954154       0.01861338       0.03794141       0.00000000
K        3.69955812      10.49645798      21.18880460  T        1       0.00028510       0.01544999       0.02195783       0.00000000
K        0.03812386      13.11142798      21.21118994  T        1       0.02458139       0.01072403       0.03295344       0.00000000
K        7.39633693       0.00000000      10.00000000  F        4      -0.00360198       0.00000000      -0.02722140       0.00000000
K       11.09450540       2.61500000      10.00000000  F        4       0.00052502      -0.00014825      -0.02747067       0.00000000
K       11.09450540       0.00000000      13.69816847  F        3       0.00359057       0.00000000      -0.00051896       0.00000000
K        7.39633693       2.61500000      13.69816847  F        3       0.01728619       0.01597381      -0.02338613       0.00000000
K        7.42903541       0.00000000      17.34923564  T        2      -0.01439432       0.00000000       0.02398292       0.00000000
K       11.09796229       2.61486035      17.39858395  T        2       0.00434067       0.00020065       0.01777648       0.00000000
K       11.09647847       0.00000000      21.14030272  T        1      -0.00521845       0.00000000       0.02441266       0.00000000
K        7.35731419       2.58169445      21.20011684  T        1      -0.00857488      -0.00984700       0.03752752       0.00000000
K        7.39633693       5.23000000      10.00000000  F        4       0.00695009      -0.00597658      -0.03063420       0.00000000
K       11.09450540       7.84500000      10.00000000  F        4       0.00105754       0.00000000      -0.02616352       0.00000000
K       11.09450540       5.23000000      13.69816847  F        3       0.00107795      -0.00011539      -0.00297936       0.00000000
K        7.39633693       7.84500000      13.69816847  F        3      -0.00441696       0.00000000       0.00410316       0.00000000
K        7.40887640       5.21614118      17.40268749  T        2       0.01397817       0.00436561       0.02746864       0.00000000
K       11.09427908       7.84500000      17.39114104  T        2      -0.00003992       0.00000000       0.02020112       0.00000000
K       11.09552362       5.23240796      21.14798759  T        1      -0.00775443      -0.00112049       0.01397917       0.00000000
K        7.39205700       7.84500000      21.14898479  T        1      -0.00794798       0.00000000       0.01649904       0.00000000
K        7.39633693      10.46000000      10.00000000  F        4       0.00695009       0.00597658      -0.03063420       0.00000000
K       11.09450540      13.07500000      10.00000000  F        4       0.00052502       0.00014825      -0.02747067       0.00000000
K       11.09450540      10.46000000      13.69816847  F        3       0.00107795       0.00011539      -0.00297936       0.00000000
K        7.39633693      13.07500000      13.69816847  F        3       0.01728619      -0.01597381      -0.02338613       0.00000000
K        7.40887640      10.47385882      17.40268749  T        2       0.01397817      -0.00436561       0.02746864       0.00000000
K       11.09796229      13.07513965      17.39858395  T        2       0.00434067      -0.00020065       0.01777648       0.00000000
K       11.09552362      10.45759204      21.14798759  T        1      -0.00775443       0.00112049       0.01397917       0.00000000
K        7.35731419      13.10830555      21.20011684  T        1      -0.00857488       0.00984700       0.03752752       0.00000000
K       14.79267386       0.00000000      10.00000000  F        4       0.00391028       0.00000000      -0.02336572       0.00000000
K       18.49084233       2.61500000      10.00000000  F        4       0.00520806       0.00521427      -0.03176126       0.00000000
K       18.49084233       0.00000000      13.69816847  F        3      -0.00815065       0.00000000      -0.00153979       0.00000000
K       14.79267386       2.61500000      13.69816847  F        3      -0.01033860       0.01121365      -0.00859992       0.00000000
K       14.80107441       0.00000000      17.39862561  T        2       0.00372536       0.00000000       0.01214978       0.00000000
K       18.49722209       2.62625247      17.40608683  T        2      -0.00504783      -0.00226223       0.01463053       0.00000000
K       18.48205572      -0.00000000      21.14753214  T        1       0.00460920       0.00000000       0.01417498       0.00000000
K       14.79088850       2.61568175      21.14137571  T        1       0.00049832      -0.00085085       0.02704243       0.00000000
K       14.79267386       5.23000000      10.00000000  F        4      -0.00572374      -0.00509023      -0.03314648       0.00000000
K       18.49084233       7.84500000      10.00000000  F        4      -0.00502521       0.00000000      -0.02510785       0.00000000
K       18.49084233       5.23000000      13.69816847  F        3       0.00927350      -0.01086305      -0.00763436       0.00000000
K       14.79267386       7.84500000      13.69816847  F        3       0.00479110       0.00000000       0.00297073       0.00000000
K       14.78272519       5.21977182      17.40516100  T        2       0.00332660       0.00480368       0.00979937       0.00000000
K       18.48289855       7.84500000      17.39628664  T        2      -0.00412324       0.00000000       0.01440814       0.00000000
K       18.49205457       5.22868845      21.14340747  T        1       0.00646197      -0.00288465       0.02621325       0.00000000
K       14.79937162       7.84500000      21.14135667  T        1       0.00282821       0.00000000       0.01475401       0.00000000
K       14.79267386      10.46000000      10.00000000  F        4      -0.00572374       0.00509023      -0.03314648       0.00000000
K       18.49084233      13.07500000      10.00000000  F        4       0.00520806      -0.00521427      -0.03176126       0.00000000
K       18.49084233      10.46000000      13.69816847  F        3       0.00927350       0.01086305      -0.00763436       0.00000000
K       14.79267386      13.07500000      13.69816847  F        3      -0.01033860      -0.01121365      -0.00859992       0.00000000
K       14.78272519      10.47022818      17.40516100  T        2       0.00332660      -0.00480368       0.00979937       0.00000000
K       18.49722209      13.06374753      17.40608683  T        2      -0.00504783       0.00226223       0.01463053       0.00000000
K       18.49205457      10.46131155      21.14340747  T        1       0.00646197       0.00288465       0.02621325       0.00000000
K       14.79088850      13.07431825      21.14137571  T        1       0.00049832       0.00085085       0.02704243       0.00000000
K        3.70099609       0.00000000      24.26648849  T        0       0.00452429       0.00000000       0.01933560       0.00000000
