
  ___ ___ ___ _ _ _  
 |   |   |_  | | | | 
 | | | | | . | | | | 
 |__ |  _|___|_____|  25.7.0
 |___|_|             

User:   tew@Mathuss-MacBook-Air-357.local
Date:   Tue Nov 25 22:35:20 2025
Arch:   arm64
Pid:    88448
CWD:    /Users/tew/Documents/Project/GitHub/chem-com
Python: 3.13.5
gpaw:   /Users/tew/Documents/Project/GitHub/chem-com/.venv/lib/python3.13/site-packages/gpaw
_gpaw:  /Users/tew/Documents/Project/GitHub/chem-com/.venv/lib/python3.13/site-packages/
        _gpaw.cpython-313-darwin.so
ase:    /Users/tew/Documents/Project/GitHub/chem-com/.venv/lib/python3.13/site-packages/ase (version 3.26.0)
numpy:  /Users/tew/Documents/Project/GitHub/chem-com/.venv/lib/python3.13/site-packages/numpy (version 2.3.5)
scipy:  /Users/tew/Documents/Project/GitHub/chem-com/.venv/lib/python3.13/site-packages/scipy (version 1.16.3)
libxc:  2.x.y
units:  Angstrom and eV
cores: 1
OpenMP: False
OMP_NUM_THREADS: 1

Input parameters:
  basis: dzp
  convergence: {density: 0.0001,
                eigenstates: 5e-06}
  kpts: [1 1 1]
  mode: {interpolation: 3,
         name: lcao}
  occupations: {fixmagmom: False,
                name: fermi-dirac,
                width: 0.15}
  xc: PBE

System changes: positions, numbers, cell, pbc, initial_charges, initial_magmoms 

Initialize ...

species:
  K:
    name: Potassium
    id: 04190408da443a44668134082ce1c192
    Z: 19.0
    valence: 9
    core: 10
    charge: 0.0
    file: /Users/tew/Documents/Project/GitHub/chem-com/.venv/lib/python3.13/site-packages/gpaw_data/setups/K.PBE.gz
    compensation charges: {type: gauss,
                           rc: 0.35,
                           lmax: 2}
    cutoffs: {filter: 1.91,
              core: 1.27}
    projectors:
      #              energy  rcut
      - 3s(2.00)   -35.338   1.122
      - 4s(1.00)    -2.319   1.122
      - 3p(6.00)   -18.813   1.106
      -  p           8.398   1.106
      -  d           0.000   0.937
  
    # LCAO basis set for K:
    #   Name: dzp
    #   File: /Users/tew/Documents/Project/GitHub/chem-com/.venv/lib/python3.13/site-packages/gpaw_data/setups/K.dzp.basis.gz
    #   Number of radial functions: 9
    #   Number of spherical harmonics: 19
    #     l=0, rc=4.2656 Bohr: 3s-sz confined orbital
    #     l=0, rc=13.1094 Bohr: 4s-sz confined orbital
    #     l=1, rc=5.0312 Bohr: 3p-sz confined orbital
    #     l=1, rc=16.0000 Bohr: 4p-sz confined orbital
    #     l=0, rc=2.3594 Bohr: 3s-dz split-valence wave
    #     l=0, rc=8.1719 Bohr: 4s-dz split-valence wave
    #     l=1, rc=2.8906 Bohr: 3p-dz split-valence wave
    #     l=1, rc=10.2812 Bohr: 4p-dz split-valence wave
    #     l=1, rc=13.1094 Bohr: p-type Gaussian polarization
    #   Number of RI-basis functions 0

Reference energy: -1195904.484944  # eV

Spin-paired calculation

Convergence criteria:
 Maximum [total energy] change in last 3 cyles: 0.0005 eV / valence electron
 Maximum integral of absolute [dens]ity change: 0.0001 electrons / valence electron
 Maximum integral of absolute [eigenst]ate change: 5e-06 eV^2 / valence electron
 Maximum number of scf [iter]ations: 333
 (Square brackets indicate name in SCF output, whereas a 'c' in
 the SCF output indicates the quantity has converged.)

Symmetries present (total): 1

  ( 1  0  0)
  ( 0  1  0)
  ( 0  0  1)

1 k-point (Gamma)
1 k-point in the irreducible part of the Brillouin zone
       k-points in crystal coordinates                weights
   0:     0.00000000    0.00000000    0.00000000          1/1

Wave functions: LCAO
  Diagonalizer: Serial LAPACK
  Atomic Correction: dense with blas
  Data-type: float
 

Occupation numbers: Fermi-Dirac:
  width: 0.1500  # eV
 

Eigensolver
   LCAO using direct dense diagonalizer 

Densities:
  Coarse grid: 112*80*156 grid
  Fine grid: 224*160*312 grid
  Total Charge: 0.000000 

Density mixing:
  Method: separate
  Backend: pulay
  Linear mixing parameter: 0.05
  old densities: 5
  Damping of long wavelength oscillations: 50 

Hamiltonian:
  XC and Coulomb potentials evaluated on a 224*160*312 grid
  Using the PBE Exchange-Correlation functional
  Interpolation: tri-quintic (5. degree polynomial)
  Poisson solver: FastPoissonSolver using
    Stencil: 6*3+1=19 point O(h^6) finite-difference Laplacian
    FFT axes: [np.int64(0), np.int64(1)]
    FST axes: [np.int64(2)]
 

XC parameters: PBE with 2 nearest neighbor stencil

Memory estimate:
  Process memory now: 3762.67 MiB
  Calculator: 2004.64 MiB
    Density: 627.85 MiB
      Arrays: 276.31 MiB
      Localized functions: 245.59 MiB
      Mixer: 105.96 MiB
    Hamiltonian: 197.33 MiB
      Arrays: 180.67 MiB
      XC: 0.00 MiB
      Poisson: 0.00 MiB
      vbar: 16.66 MiB
    Wavefunctions: 1179.45 MiB
      C [qnM]: 3.86 MiB
      S, T [2 x qmm]: 29.35 MiB
      P [aqMi]: 1.26 MiB
      BasisFunctions: 1144.98 MiB
      Eigensolver: 0.00 MiB

Total number of cores used: 1

Number of atoms: 73
Number of atomic orbitals: 1387
Number of bands in calculation: 365
Number of valence electrons: 657
Bands to converge: occupied

... initialized

Initializing position-dependent things.

Density initialized from atomic densities
           .------------------------------------------------------.  
          /|                                                      |  
         / |                                                      |  
        /  |                                                      |  
       /   |                                                      |  
      /    |                                                      |  
     /     |                                                      |  
    /      |                                                      |  
   /       |                                                      |  
  /        |                                                      |  
 *         |                                                      |  
 |         |                                                      |  
 |         |                                                      |  
 |         |                                                      |  
 |       K |                K                 K                   |  
 |         |     K                 K                  K           |  
 |         |                                                      |  
 |    K    |         K  K    K             K    K                 K  
 |         |      K                  K                 K          |  
 |         |  K                 K                 K               |  
 | K       |              K            K    K                  K  |  
 |         |                                                      |  
 |        K|   K     K      K     K            K    K             |  
 |       K |                K            K    K            K      |  
 |         |           K                                          |  
 |         |K    K            K    K             K   K            |  
 |    K    |            K                  K                      |  
 |         |       K                 K                 K          |  
 |         | K                  K                 K               |  
 |      K  |              K                 K                     |  
 | K       |         K                 K                          |  
 |        K|   K             K   K             K    K             |  
 |  K      |           K                 K                        |  
 |         |                                                      |  
 |         |K                 K                  K                |  
 |         |                                                      |  
 K         |       K                  K                           |  
 |         |                                                      |  
 |         .------------------------------------------------------.  
 |        /                                                      /   
 |       /                                                      /    
 |      /                                                      /     
 |     /                                                      /      
 |    /                                                      /       
 |   /                                                      /        
 |  /                                                      /         
 | /                                                      /          
 |/                                                      /           
 *------------------------------------------------------*            

Atomic positions and initial magnetic moments

Positions:
   0 K      0.000000    0.000000   10.000000    ( 0.0000,  0.0000,  0.0000)
   1 K      3.698168    2.615000   10.000000    ( 0.0000,  0.0000,  0.0000)
   2 K      3.698168    0.000000   13.698168    ( 0.0000,  0.0000,  0.0000)
   3 K      0.000000    2.615000   13.698168    ( 0.0000,  0.0000,  0.0000)
   4 K     -0.004638   -0.003532   17.415233    ( 0.0000,  0.0000,  0.0000)
   5 K      3.642679    2.621181   17.377447    ( 0.0000,  0.0000,  0.0000)
   6 K      3.771333    0.059471   21.253516    ( 0.0000,  0.0000,  0.0000)
   7 K      0.006723    2.607081   21.186431    ( 0.0000,  0.0000,  0.0000)
   8 K      0.000000    5.230000   10.000000    ( 0.0000,  0.0000,  0.0000)
   9 K      3.698168    7.845000   10.000000    ( 0.0000,  0.0000,  0.0000)
  10 K      3.698168    5.230000   13.698168    ( 0.0000,  0.0000,  0.0000)
  11 K      0.000000    7.845000   13.698168    ( 0.0000,  0.0000,  0.0000)
  12 K     -0.005416    5.236763   17.427319    ( 0.0000,  0.0000,  0.0000)
  13 K      3.691563    7.837231   17.436236    ( 0.0000,  0.0000,  0.0000)
  14 K      3.764946    5.163324   21.251262    ( 0.0000,  0.0000,  0.0000)
  15 K      0.007934    7.837685   21.168161    ( 0.0000,  0.0000,  0.0000)
  16 K      0.000000   10.460000   10.000000    ( 0.0000,  0.0000,  0.0000)
  17 K      3.698168   13.075000   10.000000    ( 0.0000,  0.0000,  0.0000)
  18 K      3.698168   10.460000   13.698168    ( 0.0000,  0.0000,  0.0000)
  19 K      0.000000   13.075000   13.698168    ( 0.0000,  0.0000,  0.0000)
  20 K     -0.001827   10.456896   17.418124    ( 0.0000,  0.0000,  0.0000)
  21 K      3.666677   13.074068   17.443896    ( 0.0000,  0.0000,  0.0000)
  22 K      3.699163   10.462058   21.176342    ( 0.0000,  0.0000,  0.0000)
  23 K      0.009176   13.088768   21.186527    ( 0.0000,  0.0000,  0.0000)
  24 K      7.396337    0.000000   10.000000    ( 0.0000,  0.0000,  0.0000)
  25 K     11.094505    2.615000   10.000000    ( 0.0000,  0.0000,  0.0000)
  26 K     11.094505    0.000000   13.698168    ( 0.0000,  0.0000,  0.0000)
  27 K      7.396337    2.615000   13.698168    ( 0.0000,  0.0000,  0.0000)
  28 K      7.388673   -0.233441   17.177202    ( 0.0000,  0.0000,  0.0000)
  29 K     11.151834    2.612180   17.373944    ( 0.0000,  0.0000,  0.0000)
  30 K     11.026398    0.063992   21.252210    ( 0.0000,  0.0000,  0.0000)
  31 K      7.410053    2.623476   20.253446    ( 0.0000,  0.0000,  0.0000)
  32 K      7.396337    5.230000   10.000000    ( 0.0000,  0.0000,  0.0000)
  33 K     11.094505    7.845000   10.000000    ( 0.0000,  0.0000,  0.0000)
  34 K     11.094505    5.230000   13.698168    ( 0.0000,  0.0000,  0.0000)
  35 K      7.396337    7.845000   13.698168    ( 0.0000,  0.0000,  0.0000)
  36 K      7.397700    5.457613   17.169258    ( 0.0000,  0.0000,  0.0000)
  37 K     11.112476    7.839754   17.427261    ( 0.0000,  0.0000,  0.0000)
  38 K     11.030538    5.185859   21.252788    ( 0.0000,  0.0000,  0.0000)
  39 K      7.389563    7.786350   21.229597    ( 0.0000,  0.0000,  0.0000)
  40 K      7.396337   10.460000   10.000000    ( 0.0000,  0.0000,  0.0000)
  41 K     11.094505   13.075000   10.000000    ( 0.0000,  0.0000,  0.0000)
  42 K     11.094505   10.460000   13.698168    ( 0.0000,  0.0000,  0.0000)
  43 K      7.396337   13.075000   13.698168    ( 0.0000,  0.0000,  0.0000)
  44 K      7.406401   10.467933   17.446392    ( 0.0000,  0.0000,  0.0000)
  45 K     11.116825   13.084611   17.438276    ( 0.0000,  0.0000,  0.0000)
  46 K     11.087841   10.452885   21.188452    ( 0.0000,  0.0000,  0.0000)
  47 K      7.395182   13.131319   21.229275    ( 0.0000,  0.0000,  0.0000)
  48 K     14.792674    0.000000   10.000000    ( 0.0000,  0.0000,  0.0000)
  49 K     18.490842    2.615000   10.000000    ( 0.0000,  0.0000,  0.0000)
  50 K     18.490842    0.000000   13.698168    ( 0.0000,  0.0000,  0.0000)
  51 K     14.792674    2.615000   13.698168    ( 0.0000,  0.0000,  0.0000)
  52 K     14.809515   -0.005457   17.421311    ( 0.0000,  0.0000,  0.0000)
  53 K     18.499748    2.622598   17.428708    ( 0.0000,  0.0000,  0.0000)
  54 K     18.480594    0.001147   21.185784    ( 0.0000,  0.0000,  0.0000)
  55 K     14.783631    2.616522   21.175768    ( 0.0000,  0.0000,  0.0000)
  56 K     14.792674    5.230000   10.000000    ( 0.0000,  0.0000,  0.0000)
  57 K     18.490842    7.845000   10.000000    ( 0.0000,  0.0000,  0.0000)
  58 K     18.490842    5.230000   13.698168    ( 0.0000,  0.0000,  0.0000)
  59 K     14.792674    7.845000   13.698168    ( 0.0000,  0.0000,  0.0000)
  60 K     14.788873    5.225788   17.431412    ( 0.0000,  0.0000,  0.0000)
  61 K     18.478931    7.846453   17.410850    ( 0.0000,  0.0000,  0.0000)
  62 K     18.495160    5.226874   21.176856    ( 0.0000,  0.0000,  0.0000)
  63 K     14.796494    7.837711   21.184575    ( 0.0000,  0.0000,  0.0000)
  64 K     14.792674   10.460000   10.000000    ( 0.0000,  0.0000,  0.0000)
  65 K     18.490842   13.075000   10.000000    ( 0.0000,  0.0000,  0.0000)
  66 K     18.490842   10.460000   13.698168    ( 0.0000,  0.0000,  0.0000)
  67 K     14.792674   13.075000   13.698168    ( 0.0000,  0.0000,  0.0000)
  68 K     14.785656   10.467456   17.424476    ( 0.0000,  0.0000,  0.0000)
  69 K     18.500157   13.066476   17.422632    ( 0.0000,  0.0000,  0.0000)
  70 K     18.495910   10.462923   21.178050    ( 0.0000,  0.0000,  0.0000)
  71 K     14.780167   13.080050   21.175547    ( 0.0000,  0.0000,  0.0000)
  72 K      7.403775    2.622681   24.327108    ( 0.0000,  0.0000,  0.0000)

Unit cell:
           periodic     x           y           z      points  spacing
  1. axis:    yes   22.189011    0.000000    0.000000   112     0.1981
  2. axis:    yes    0.000000   15.690000    0.000000    80     0.1961
  3. axis:    no     0.000000    0.000000   31.094505   156     0.1993

  Lengths:  22.189011  15.690000  31.094505
  Angles:   90.000000  90.000000  90.000000

Effective grid spacing dv^(1/3) = 0.1979

     iter     time        total  log10-change:
                         energy   eigst   dens
iter:   1 02:43:54   -65.478079        c
iter:   2 02:45:23   -64.398246        c -1.50
iter:   3 02:46:33   -62.782555        c -1.57
iter:   4 02:47:30   -61.573846        c -1.74
iter:   5 02:48:17   -61.561404        c -2.05
iter:   6 02:49:10   -61.542142c       c -2.11
iter:   7 02:50:04   -61.530433c       c -2.24
iter:   8 02:51:01   -61.525437c       c -2.47
iter:   9 02:52:29   -61.511620c       c -2.52
iter:  10 02:53:36   -61.507413c       c -2.74
iter:  11 02:54:43   -61.506458c       c -2.95
iter:  12 02:56:03   -61.506291c       c -3.25
iter:  13 02:57:48   -61.505848c       c -3.32
iter:  14 02:59:11   -61.505150c       c -3.34
iter:  15 03:00:13   -61.505006c       c -3.40
iter:  16 03:01:59   -61.505551c       c -3.51
iter:  17 03:02:52   -61.505928c       c -3.68
iter:  18 03:03:47   -61.505978c       c -3.76
iter:  19 03:04:57   -61.505927c       c -3.83
iter:  20 03:06:05   -61.505825c       c -3.92
iter:  21 03:06:57   -61.505830c       c -4.02c

Converged after 21 iterations.

Dipole moment: (-89.658145, -50.093959, 0.434691) |e|*Ang

Energy contributions relative to reference atoms: (reference = -1195904.484944)

Kinetic:       +124.387534
Potential:     -107.293157
External:        +0.000000
XC:             -78.891024
Entropy (-ST):   -3.806597
Local:           +2.194115
SIC:             +0.000000
--------------------------
Free energy:    -63.409129
Extrapolated:   -61.505830

 Band  Eigenvalues  Occupancy
    0    -35.24395    2.00000
    1    -34.76329    2.00000
    2    -34.76203    2.00000
    3    -34.76140    2.00000
    4    -34.76120    2.00000
    5    -34.75999    2.00000
    6    -34.75703    2.00000
    7    -34.75664    2.00000
    8    -34.75632    2.00000
    9    -34.75623    2.00000
   10    -34.75602    2.00000
   11    -34.75594    2.00000
   12    -34.75575    2.00000
   13    -34.75527    2.00000
   14    -34.75511    2.00000
   15    -34.75412    2.00000
   16    -34.75403    2.00000
   17    -34.75337    2.00000
   18    -34.75289    2.00000
   19    -34.75272    2.00000
   20    -34.75247    2.00000
   21    -34.75223    2.00000
   22    -34.75201    2.00000
   23    -34.75187    2.00000
   24    -34.75151    2.00000
   25    -34.75132    2.00000
   26    -34.75089    2.00000
   27    -34.75083    2.00000
   28    -34.74805    2.00000
   29    -34.74762    2.00000
   30    -34.74423    2.00000
   31    -34.74361    2.00000
   32    -34.73466    2.00000
   33    -34.73345    2.00000
   34    -34.73310    2.00000
   35    -34.73232    2.00000
   36    -34.64781    2.00000
   37    -34.62112    2.00000
   38    -34.62000    2.00000
   39    -34.61016    2.00000
   40    -34.60944    2.00000
   41    -34.60883    2.00000
   42    -34.60812    2.00000
   43    -34.60612    2.00000
   44    -34.60545    2.00000
   45    -34.60456    2.00000
   46    -34.60440    2.00000
   47    -34.60423    2.00000
   48    -34.60385    2.00000
   49    -34.60297    2.00000
   50    -34.60274    2.00000
   51    -34.60186    2.00000
   52    -34.60158    2.00000
   53    -34.60071    2.00000
   54    -34.60009    2.00000
   55    -34.59700    2.00000
   56    -34.59678    2.00000
   57    -34.59648    2.00000
   58    -34.59627    2.00000
   59    -34.59570    2.00000
   60    -34.59549    2.00000
   61    -34.59531    2.00000
   62    -34.59475    2.00000
   63    -34.59434    2.00000
   64    -34.59339    2.00000
   65    -34.59299    2.00000
   66    -34.59265    2.00000
   67    -34.59250    2.00000
   68    -34.59172    2.00000
   69    -34.59125    2.00000
   70    -34.59106    2.00000
   71    -34.58200    2.00000
   72    -34.58110    2.00000
   73    -18.73725    2.00000
   74    -18.71056    2.00000
   75    -18.70746    2.00000
   76    -18.26933    2.00000
   77    -18.26828    2.00000
   78    -18.26320    2.00000
   79    -18.26281    2.00000
   80    -18.26149    2.00000
   81    -18.26036    2.00000
   82    -18.26027    2.00000
   83    -18.25998    2.00000
   84    -18.25878    2.00000
   85    -18.25840    2.00000
   86    -18.25781    2.00000
   87    -18.25752    2.00000
   88    -18.25642    2.00000
   89    -18.25620    2.00000
   90    -18.25585    2.00000
   91    -18.25568    2.00000
   92    -18.25533    2.00000
   93    -18.25445    2.00000
   94    -18.25439    2.00000
   95    -18.25360    2.00000
   96    -18.25321    2.00000
   97    -18.25319    2.00000
   98    -18.25294    2.00000
   99    -18.25276    2.00000
  100    -18.25269    2.00000
  101    -18.25264    2.00000
  102    -18.25181    2.00000
  103    -18.25175    2.00000
  104    -18.25167    2.00000
  105    -18.25158    2.00000
  106    -18.25138    2.00000
  107    -18.25051    2.00000
  108    -18.25026    2.00000
  109    -18.24986    2.00000
  110    -18.24918    2.00000
  111    -18.24911    2.00000
  112    -18.24879    2.00000
  113    -18.24878    2.00000
  114    -18.24873    2.00000
  115    -18.24831    2.00000
  116    -18.24822    2.00000
  117    -18.24788    2.00000
  118    -18.24778    2.00000
  119    -18.24773    2.00000
  120    -18.24721    2.00000
  121    -18.24699    2.00000
  122    -18.24602    2.00000
  123    -18.24590    2.00000
  124    -18.24531    2.00000
  125    -18.24527    2.00000
  126    -18.24515    2.00000
  127    -18.24440    2.00000
  128    -18.24388    2.00000
  129    -18.24133    2.00000
  130    -18.24121    2.00000
  131    -18.24088    2.00000
  132    -18.24054    2.00000
  133    -18.23804    2.00000
  134    -18.23636    2.00000
  135    -18.23565    2.00000
  136    -18.23500    2.00000
  137    -18.23134    2.00000
  138    -18.23051    2.00000
  139    -18.22921    2.00000
  140    -18.22810    2.00000
  141    -18.22709    2.00000
  142    -18.22670    2.00000
  143    -18.22642    2.00000
  144    -18.22620    2.00000
  145    -18.22611    2.00000
  146    -18.22549    2.00000
  147    -18.22515    2.00000
  148    -18.22430    2.00000
  149    -18.22375    2.00000
  150    -18.22367    2.00000
  151    -18.22177    2.00000
  152    -18.22056    2.00000
  153    -18.22032    2.00000
  154    -18.22006    2.00000
  155    -18.21967    2.00000
  156    -18.21934    2.00000
  157    -18.21909    2.00000
  158    -18.21886    2.00000
  159    -18.21758    2.00000
  160    -18.21749    2.00000
  161    -18.21734    2.00000
  162    -18.21682    2.00000
  163    -18.21678    2.00000
  164    -18.21483    2.00000
  165    -18.21471    2.00000
  166    -18.21430    2.00000
  167    -18.20982    2.00000
  168    -18.20913    2.00000
  169    -18.20643    2.00000
  170    -18.20617    2.00000
  171    -18.20589    2.00000
  172    -18.20567    2.00000
  173    -18.20554    2.00000
  174    -18.20552    2.00000
  175    -18.20541    2.00000
  176    -18.20477    2.00000
  177    -18.20402    2.00000
  178    -18.20311    2.00000
  179    -18.20090    2.00000
  180    -18.19982    2.00000
  181    -18.17265    2.00000
  182    -18.16020    2.00000
  183    -18.13178    2.00000
  184    -18.12964    2.00000
  185    -18.12677    2.00000
  186    -18.12382    2.00000
  187    -18.12357    2.00000
  188    -18.12198    2.00000
  189    -18.12058    2.00000
  190    -18.12013    2.00000
  191    -18.11886    2.00000
  192    -18.11845    2.00000
  193    -18.11597    2.00000
  194    -18.11575    2.00000
  195    -18.11560    2.00000
  196    -18.11360    2.00000
  197    -18.11341    2.00000
  198    -18.11314    2.00000
  199    -18.11236    2.00000
  200    -18.10956    2.00000
  201    -18.10926    2.00000
  202    -18.10826    2.00000
  203    -18.10740    2.00000
  204    -18.10716    2.00000
  205    -18.10670    2.00000
  206    -18.10662    2.00000
  207    -18.10576    2.00000
  208    -18.10505    2.00000
  209    -18.10478    2.00000
  210    -18.10192    2.00000
  211    -18.10183    2.00000
  212    -18.10127    2.00000
  213    -18.10068    2.00000
  214    -18.09992    2.00000
  215    -18.09965    2.00000
  216    -18.09940    2.00000
  217    -18.09871    2.00000
  218    -18.09850    2.00000
  219    -18.09827    2.00000
  220    -18.09643    2.00000
  221    -18.09478    2.00000
  222    -18.09469    2.00000
  223    -18.09353    2.00000
  224    -18.09275    2.00000
  225    -18.09129    2.00000
  226    -18.09087    2.00000
  227    -18.08834    2.00000
  228    -18.08700    2.00000
  229    -18.08689    2.00000
  230    -18.08648    2.00000
  231    -18.08635    2.00000
  232    -18.08566    2.00000
  233    -18.08465    2.00000
  234    -18.08446    2.00000
  235    -18.08358    2.00000
  236    -18.08341    2.00000
  237    -18.08327    2.00000
  238    -18.08232    2.00000
  239    -18.08163    2.00000
  240    -18.08123    2.00000
  241    -18.08066    2.00000
  242    -18.07972    2.00000
  243    -18.07955    2.00000
  244    -18.07868    2.00000
  245    -18.07787    2.00000
  246    -18.07749    2.00000
  247    -18.07746    2.00000
  248    -18.07681    2.00000
  249    -18.07651    2.00000
  250    -18.07583    2.00000
  251    -18.07560    2.00000
  252    -18.07509    2.00000
  253    -18.07458    2.00000
  254    -18.07414    2.00000
  255    -18.07347    2.00000
  256    -18.07335    2.00000
  257    -18.07178    2.00000
  258    -18.07149    2.00000
  259    -18.07119    2.00000
  260    -18.07016    2.00000
  261    -18.07003    2.00000
  262    -18.06973    2.00000
  263    -18.06898    2.00000
  264    -18.06878    2.00000
  265    -18.06872    2.00000
  266    -18.06855    2.00000
  267    -18.06730    2.00000
  268    -18.06674    2.00000
  269    -18.06668    2.00000
  270    -18.06662    2.00000
  271    -18.06623    2.00000
  272    -18.06514    2.00000
  273    -18.06501    2.00000
  274    -18.06484    2.00000
  275    -18.06483    2.00000
  276    -18.06411    2.00000
  277    -18.06387    2.00000
  278    -18.06357    2.00000
  279    -18.06198    2.00000
  280    -18.06096    2.00000
  281    -18.06079    2.00000
  282    -18.06006    2.00000
  283    -18.06004    2.00000
  284    -18.05970    2.00000
  285    -18.05954    2.00000
  286    -18.05827    2.00000
  287    -18.05761    2.00000
  288    -18.05684    2.00000
  289    -18.05499    2.00000
  290    -18.05436    2.00000
  291    -18.05421    2.00000
  292     -4.53883    2.00000
  293     -4.19668    1.99999
  294     -4.18330    1.99999
  295     -4.14890    1.99998
  296     -3.85113    1.99989
  297     -3.84963    1.99989
  298     -3.81350    1.99986
  299     -3.79893    1.99984
  300     -3.53415    1.99907
  301     -3.52430    1.99901
  302     -3.51096    1.99891
  303     -3.51013    1.99891
  304     -3.50651    1.99888
  305     -3.47248    1.99860
  306     -3.46332    1.99851
  307     -3.21298    1.99210
  308     -3.19165    1.99090
  309     -3.18460    1.99046
  310     -3.17410    1.98978
  311     -3.14611    1.98769
  312     -3.14113    1.98728
  313     -3.13824    1.98703
  314     -3.13027    1.98633
  315     -2.87731    1.92833
  316     -2.84909    1.91413
  317     -2.82042    1.89698
  318     -2.81791    1.89533
  319     -2.72963    1.81905
  320     -2.56437    1.53922
  321     -2.54962    1.50343
  322     -2.54243    1.48531
  323     -2.54194    1.48408
  324     -2.54035    1.48001
  325     -2.53438    1.46454
  326     -2.52500    1.43968
  327     -2.51720    1.41847
  328     -2.42177    1.12703
  329     -2.36364    0.93404
  330     -2.22631    0.51935
  331     -2.21480    0.49041
  332     -2.18908    0.42975
  333     -2.18805    0.42742
  334     -2.18469    0.41994
  335     -2.18431    0.41910
  336     -2.10910    0.27672
  337     -2.05236    0.19819
  338     -1.94395    0.10138
  339     -1.94333    0.10098
  340     -1.92236    0.08839
  341     -1.75929    0.03070
  342     -1.75629    0.03010
  343     -1.74283    0.02755
  344     -1.71584    0.02307
  345     -1.66916    0.01695
  346     -1.65256    0.01519
  347     -1.64817    0.01476
  348     -1.64099    0.01407
  349     -1.63997    0.01398
  350     -1.62940    0.01303
  351     -1.62026    0.01227
  352     -1.61310    0.01170
  353     -1.60793    0.01130
  354     -1.60409    0.01102
  355     -1.58995    0.01003
  356     -1.58875    0.00995
  357     -1.58283    0.00957
  358     -1.53666    0.00704
  359     -1.41965    0.00323
  360     -1.41461    0.00313
  361     -1.37069    0.00233
  362     -1.35105    0.00205
  363     -1.31527    0.00161
  364     -1.27245    0.00121

Fermi level: -2.38345

Gap: 0.058 eV
Transition (v -> c):
  (s=0, k=0, n=328, [0.00, 0.00, 0.00]) -> (s=0, k=0, n=329, [0.00, 0.00, 0.00])
No difference between direct/indirect transitions
Timing:                              incl.     excl.
-----------------------------------------------------------
Basic WFS set positions:             0.001     0.001   0.0% |
Basis functions set positions:       2.102     2.102   0.0% |
LCAO WFS Initialize:                 8.110     1.381   0.0% |
 Hamiltonian:                        6.728     0.000   0.0% |
  Atomic:                            2.109     0.005   0.0% |
   XC Correction:                    2.105     2.105   0.0% |
  Calculate atomic Hamiltonians:     0.144     0.144   0.0% |
  Communicate:                       0.000     0.000   0.0% |
  Hartree integrate/restrict:        0.134     0.134   0.0% |
  Initialize Hamiltonian:            0.000     0.000   0.0% |
  Poisson:                           2.110     0.107   0.0% |
   Communicate from 1D:              0.382     0.382   0.0% |
   Communicate from 2D:              0.133     0.133   0.0% |
   Communicate to 1D:                0.078     0.078   0.0% |
   Communicate to 2D:                0.409     0.409   0.0% |
   FFT 1D:                           0.590     0.590   0.0% |
   FFT 2D:                           0.412     0.412   0.0% |
  XC 3D grid:                        2.208     2.208   0.0% |
  vbar:                              0.022     0.022   0.0% |
P tci:                               1.232     1.232   0.0% |
SCF-cycle:                        1421.401     0.056   0.0% |
 Density:                          578.959     0.001   0.0% |
  Atomic density matrices:           0.154     0.154   0.0% |
  Mix:                              11.352    11.352   0.1% |
  Multipole moments:                 0.033     0.033   0.0% |
  Normalize:                         0.020     0.020   0.0% |
  Pseudo density:                  567.400     0.207   0.0% |
   Calculate density matrix:         0.267     0.267   0.0% |
   Construct density:              566.923   566.923   3.5% ||
   Symmetrize density:               0.003     0.003   0.0% |
 Hamiltonian:                      124.392     0.006   0.0% |
  Atomic:                           39.273     0.089   0.0% |
   XC Correction:                   39.184    39.184   0.2% |
  Calculate atomic Hamiltonians:     1.777     1.777   0.0% |
  Communicate:                       0.001     0.001   0.0% |
  Hartree integrate/restrict:        1.747     1.747   0.0% |
  Poisson:                          35.564     3.050   0.0% |
   Communicate from 1D:              4.034     4.034   0.0% |
   Communicate from 2D:              2.287     2.287   0.0% |
   Communicate to 1D:                1.804     1.804   0.0% |
   Communicate to 2D:                4.108     4.108   0.0% |
   FFT 1D:                           7.563     7.563   0.0% |
   FFT 2D:                          12.719    12.719   0.1% |
  XC 3D grid:                       44.205    44.205   0.3% |
  vbar:                              1.819     1.819   0.0% |
 LCAO eigensolver:                 717.994     0.312   0.0% |
  Calculate projections:             0.397     0.397   0.0% |
  DenseAtomicCorrection:             6.031     6.031   0.0% |
  Distribute overlap matrix:         0.004     0.004   0.0% |
  Orbital Layouts:                  11.480    11.480   0.1% |
  Potential matrix:                699.770   699.770   4.3% |-|
ST tci:                              2.308     2.308   0.0% |
Set symmetry:                        0.001     0.001   0.0% |
TCI: Evaluate splines:               0.063     0.063   0.0% |
mktci:                               0.138     0.138   0.0% |
Other:                           14871.423 14871.423  91.2% |-----------------------------------|
-----------------------------------------------------------
Total:                                     16306.780 100.0%

Memory usage: 3.67 GiB
Date: Wed Nov 26 03:07:07 2025
