
  ___ ___ ___ _ _ _  
 |   |   |_  | | | | 
 | | | | | . | | | | 
 |__ |  _|___|_____|  25.7.0
 |___|_|             

User:   tew@Mathuss-MacBook-Air-357.local
Date:   Tue Nov 25 22:35:20 2025
Arch:   arm64
Pid:    88448
CWD:    /Users/tew/Documents/Project/GitHub/chem-com
Python: 3.13.5
gpaw:   /Users/tew/Documents/Project/GitHub/chem-com/.venv/lib/python3.13/site-packages/gpaw
_gpaw:  /Users/tew/Documents/Project/GitHub/chem-com/.venv/lib/python3.13/site-packages/
        _gpaw.cpython-313-darwin.so
ase:    /Users/tew/Documents/Project/GitHub/chem-com/.venv/lib/python3.13/site-packages/ase (version 3.26.0)
numpy:  /Users/tew/Documents/Project/GitHub/chem-com/.venv/lib/python3.13/site-packages/numpy (version 2.3.5)
scipy:  /Users/tew/Documents/Project/GitHub/chem-com/.venv/lib/python3.13/site-packages/scipy (version 1.16.3)
libxc:  2.x.y
units:  Angstrom and eV
cores: 1
OpenMP: False
OMP_NUM_THREADS: 1

Input parameters:
  basis: dzp
  convergence: {density: 0.0001,
                eigenstates: 5e-06}
  kpts: [1 1 1]
  mode: {interpolation: 3,
         name: lcao}
  occupations: {fixmagmom: False,
                name: fermi-dirac,
                width: 0.15}
  xc: PBE

System changes: positions, numbers, cell, pbc, initial_charges, initial_magmoms 

Initialize ...

species:
  K:
    name: Potassium
    id: 04190408da443a44668134082ce1c192
    Z: 19.0
    valence: 9
    core: 10
    charge: 0.0
    file: /Users/tew/Documents/Project/GitHub/chem-com/.venv/lib/python3.13/site-packages/gpaw_data/setups/K.PBE.gz
    compensation charges: {type: gauss,
                           rc: 0.35,
                           lmax: 2}
    cutoffs: {filter: 1.91,
              core: 1.27}
    projectors:
      #              energy  rcut
      - 3s(2.00)   -35.338   1.122
      - 4s(1.00)    -2.319   1.122
      - 3p(6.00)   -18.813   1.106
      -  p           8.398   1.106
      -  d           0.000   0.937
  
    # LCAO basis set for K:
    #   Name: dzp
    #   File: /Users/tew/Documents/Project/GitHub/chem-com/.venv/lib/python3.13/site-packages/gpaw_data/setups/K.dzp.basis.gz
    #   Number of radial functions: 9
    #   Number of spherical harmonics: 19
    #     l=0, rc=4.2656 Bohr: 3s-sz confined orbital
    #     l=0, rc=13.1094 Bohr: 4s-sz confined orbital
    #     l=1, rc=5.0312 Bohr: 3p-sz confined orbital
    #     l=1, rc=16.0000 Bohr: 4p-sz confined orbital
    #     l=0, rc=2.3594 Bohr: 3s-dz split-valence wave
    #     l=0, rc=8.1719 Bohr: 4s-dz split-valence wave
    #     l=1, rc=2.8906 Bohr: 3p-dz split-valence wave
    #     l=1, rc=10.2812 Bohr: 4p-dz split-valence wave
    #     l=1, rc=13.1094 Bohr: p-type Gaussian polarization
    #   Number of RI-basis functions 0

Reference energy: -1195904.484944  # eV

Spin-paired calculation

Convergence criteria:
 Maximum [total energy] change in last 3 cyles: 0.0005 eV / valence electron
 Maximum integral of absolute [dens]ity change: 0.0001 electrons / valence electron
 Maximum integral of absolute [eigenst]ate change: 5e-06 eV^2 / valence electron
 Maximum number of scf [iter]ations: 333
 (Square brackets indicate name in SCF output, whereas a 'c' in
 the SCF output indicates the quantity has converged.)

Symmetries present (total): 1

  ( 1  0  0)
  ( 0  1  0)
  ( 0  0  1)

1 k-point (Gamma)
1 k-point in the irreducible part of the Brillouin zone
       k-points in crystal coordinates                weights
   0:     0.00000000    0.00000000    0.00000000          1/1

Wave functions: LCAO
  Diagonalizer: Serial LAPACK
  Atomic Correction: dense with blas
  Data-type: float
 

Occupation numbers: Fermi-Dirac:
  width: 0.1500  # eV
 

Eigensolver
   LCAO using direct dense diagonalizer 

Densities:
  Coarse grid: 112*80*156 grid
  Fine grid: 224*160*312 grid
  Total Charge: 0.000000 

Density mixing:
  Method: separate
  Backend: pulay
  Linear mixing parameter: 0.05
  old densities: 5
  Damping of long wavelength oscillations: 50 

Hamiltonian:
  XC and Coulomb potentials evaluated on a 224*160*312 grid
  Using the PBE Exchange-Correlation functional
  Interpolation: tri-quintic (5. degree polynomial)
  Poisson solver: FastPoissonSolver using
    Stencil: 6*3+1=19 point O(h^6) finite-difference Laplacian
    FFT axes: [np.int64(0), np.int64(1)]
    FST axes: [np.int64(2)]
 

XC parameters: PBE with 2 nearest neighbor stencil

Memory estimate:
  Process memory now: 3762.67 MiB
  Calculator: 2004.64 MiB
    Density: 627.85 MiB
      Arrays: 276.31 MiB
      Localized functions: 245.59 MiB
      Mixer: 105.96 MiB
    Hamiltonian: 197.33 MiB
      Arrays: 180.67 MiB
      XC: 0.00 MiB
      Poisson: 0.00 MiB
      vbar: 16.66 MiB
    Wavefunctions: 1179.45 MiB
      C [qnM]: 3.86 MiB
      S, T [2 x qmm]: 29.35 MiB
      P [aqMi]: 1.26 MiB
      BasisFunctions: 1144.98 MiB
      Eigensolver: 0.00 MiB

Total number of cores used: 1

Number of atoms: 73
Number of atomic orbitals: 1387
Number of bands in calculation: 365
Number of valence electrons: 657
Bands to converge: occupied

... initialized

Initializing position-dependent things.

Density initialized from atomic densities
           .------------------------------------------------------.  
          /|                                                      |  
         / |                                                      |  
        /  |                                                      |  
       /   |                                                      |  
      /    |                                                      |  
     /     |                                                      |  
    /      |                                                      |  
   /       |                                                      |  
  /        |                                                      |  
 *         |                                                      |  
 |         |                                                      |  
 |         |                                                      |  
 |         |                                                      |  
 |       K |                K                 K                   |  
 |         |     K                 K                  K           |  
 |         |                                                      |  
 |    K    |       K    K    K             K    K                 K  
 |         |      K                  K                 K          |  
 |         |  K                 K                 K               |  
 | K       |              K            K    K                  K  |  
 |         |         K                                            |  
 |        K|   K            K     K            K    K             |  
 |       K |                K            K    K            K      |  
 |         |           K                                          |  
 |         |K    K            K    K             K   K            |  
 |    K    |            K                  K                      |  
 |         |       K                 K                 K          |  
 |         | K                  K                 K               |  
 |      K  |              K                 K                     |  
 | K       |         K                 K                          |  
 |        K|   K             K   K             K    K             |  
 |  K      |           K                 K                        |  
 |         |                                                      |  
 |         |K                 K                  K                |  
 |         |                                                      |  
 K         |       K                  K                           |  
 |         |                                                      |  
 |         .------------------------------------------------------.  
 |        /                                                      /   
 |       /                                                      /    
 |      /                                                      /     
 |     /                                                      /      
 |    /                                                      /       
 |   /                                                      /        
 |  /                                                      /         
 | /                                                      /          
 |/                                                      /           
 *------------------------------------------------------*            

Atomic positions and initial magnetic moments

Positions:
   0 K      0.000000    0.000000   10.000000    ( 0.0000,  0.0000,  0.0000)
   1 K      3.698168    2.615000   10.000000    ( 0.0000,  0.0000,  0.0000)
   2 K      3.698168    0.000000   13.698168    ( 0.0000,  0.0000,  0.0000)
   3 K      0.000000    2.615000   13.698168    ( 0.0000,  0.0000,  0.0000)
   4 K     -0.010006   -0.002943   17.403437    ( 0.0000,  0.0000,  0.0000)
   5 K      3.651788    2.650601   17.345674    ( 0.0000,  0.0000,  0.0000)
   6 K      3.761014    0.049559   21.094788    ( 0.0000,  0.0000,  0.0000)
   7 K      0.011957    2.602330   21.190557    ( 0.0000,  0.0000,  0.0000)
   8 K      0.000000    5.230000   10.000000    ( 0.0000,  0.0000,  0.0000)
   9 K      3.698168    7.845000   10.000000    ( 0.0000,  0.0000,  0.0000)
  10 K      3.698168    5.230000   13.698168    ( 0.0000,  0.0000,  0.0000)
  11 K      0.000000    7.845000   13.698168    ( 0.0000,  0.0000,  0.0000)
  12 K     -0.005049    5.235215   17.422131    ( 0.0000,  0.0000,  0.0000)
  13 K      3.694072    7.838525   17.429743    ( 0.0000,  0.0000,  0.0000)
  14 K      3.754048    5.168360   21.240853    ( 0.0000,  0.0000,  0.0000)
  15 K      0.006411    7.838904   21.163864    ( 0.0000,  0.0000,  0.0000)
  16 K      0.000000   10.460000   10.000000    ( 0.0000,  0.0000,  0.0000)
  17 K      3.698168   13.075000   10.000000    ( 0.0000,  0.0000,  0.0000)
  18 K      3.698168   10.460000   13.698168    ( 0.0000,  0.0000,  0.0000)
  19 K      0.000000   13.075000   13.698168    ( 0.0000,  0.0000,  0.0000)
  20 K     -0.002058   10.457834   17.414468    ( 0.0000,  0.0000,  0.0000)
  21 K      3.671786   13.043773   17.401049    ( 0.0000,  0.0000,  0.0000)
  22 K      3.699229   10.467791   21.178419    ( 0.0000,  0.0000,  0.0000)
  23 K      0.014000   13.092545   21.190638    ( 0.0000,  0.0000,  0.0000)
  24 K      7.396337    0.000000   10.000000    ( 0.0000,  0.0000,  0.0000)
  25 K     11.094505    2.615000   10.000000    ( 0.0000,  0.0000,  0.0000)
  26 K     11.094505    0.000000   13.698168    ( 0.0000,  0.0000,  0.0000)
  27 K      7.396337    2.615000   13.698168    ( 0.0000,  0.0000,  0.0000)
  28 K      7.395400   -0.194534   17.205874    ( 0.0000,  0.0000,  0.0000)
  29 K     11.142855    2.612627   17.378051    ( 0.0000,  0.0000,  0.0000)
  30 K     11.038078    0.053326   21.233559    ( 0.0000,  0.0000,  0.0000)
  31 K      7.401263    2.616513   20.411224    ( 0.0000,  0.0000,  0.0000)
  32 K      7.396337    5.230000   10.000000    ( 0.0000,  0.0000,  0.0000)
  33 K     11.094505    7.845000   10.000000    ( 0.0000,  0.0000,  0.0000)
  34 K     11.094505    5.230000   13.698168    ( 0.0000,  0.0000,  0.0000)
  35 K      7.396337    7.845000   13.698168    ( 0.0000,  0.0000,  0.0000)
  36 K      7.399563    5.417368   17.208163    ( 0.0000,  0.0000,  0.0000)
  37 K     11.109443    7.840628   17.421241    ( 0.0000,  0.0000,  0.0000)
  38 K     11.041369    5.193617   21.235321    ( 0.0000,  0.0000,  0.0000)
  39 K      7.389979    7.796125   21.216162    ( 0.0000,  0.0000,  0.0000)
  40 K      7.396337   10.460000   10.000000    ( 0.0000,  0.0000,  0.0000)
  41 K     11.094505   13.075000   10.000000    ( 0.0000,  0.0000,  0.0000)
  42 K     11.094505   10.460000   13.698168    ( 0.0000,  0.0000,  0.0000)
  43 K      7.396337   13.075000   13.698168    ( 0.0000,  0.0000,  0.0000)
  44 K      7.406813   10.468920   17.439108    ( 0.0000,  0.0000,  0.0000)
  45 K     11.113681   13.083033   17.431660    ( 0.0000,  0.0000,  0.0000)
  46 K     11.089122   10.453670   21.181708    ( 0.0000,  0.0000,  0.0000)
  47 K      7.388871   13.127483   21.224415    ( 0.0000,  0.0000,  0.0000)
  48 K     14.792674    0.000000   10.000000    ( 0.0000,  0.0000,  0.0000)
  49 K     18.490842    2.615000   10.000000    ( 0.0000,  0.0000,  0.0000)
  50 K     18.490842    0.000000   13.698168    ( 0.0000,  0.0000,  0.0000)
  51 K     14.792674    2.615000   13.698168    ( 0.0000,  0.0000,  0.0000)
  52 K     14.808108   -0.004547   17.417530    ( 0.0000,  0.0000,  0.0000)
  53 K     18.499327    2.623207   17.424938    ( 0.0000,  0.0000,  0.0000)
  54 K     18.480838    0.000956   21.179409    ( 0.0000,  0.0000,  0.0000)
  55 K     14.784840    2.616382   21.170036    ( 0.0000,  0.0000,  0.0000)
  56 K     14.792674    5.230000   10.000000    ( 0.0000,  0.0000,  0.0000)
  57 K     18.490842    7.845000   10.000000    ( 0.0000,  0.0000,  0.0000)
  58 K     18.490842    5.230000   13.698168    ( 0.0000,  0.0000,  0.0000)
  59 K     14.792674    7.845000   13.698168    ( 0.0000,  0.0000,  0.0000)
  60 K     14.787849    5.224786   17.427037    ( 0.0000,  0.0000,  0.0000)
  61 K     18.479592    7.846211   17.408423    ( 0.0000,  0.0000,  0.0000)
  62 K     18.494642    5.227176   21.171282    ( 0.0000,  0.0000,  0.0000)
  63 K     14.796973    7.838926   21.177372    ( 0.0000,  0.0000,  0.0000)
  64 K     14.792674   10.460000   10.000000    ( 0.0000,  0.0000,  0.0000)
  65 K     18.490842   13.075000   10.000000    ( 0.0000,  0.0000,  0.0000)
  66 K     18.490842   10.460000   13.698168    ( 0.0000,  0.0000,  0.0000)
  67 K     14.792674   13.075000   13.698168    ( 0.0000,  0.0000,  0.0000)
  68 K     14.785168   10.467918   17.421257    ( 0.0000,  0.0000,  0.0000)
  69 K     18.499668   13.066021   17.419875    ( 0.0000,  0.0000,  0.0000)
  70 K     18.495268   10.462654   21.172276    ( 0.0000,  0.0000,  0.0000)
  71 K     14.781954   13.079095   21.169851    ( 0.0000,  0.0000,  0.0000)
  72 K      6.786645    2.185568   24.317005    ( 0.0000,  0.0000,  0.0000)

Unit cell:
           periodic     x           y           z      points  spacing
  1. axis:    yes   22.189011    0.000000    0.000000   112     0.1981
  2. axis:    yes    0.000000   15.690000    0.000000    80     0.1961
  3. axis:    no     0.000000    0.000000   31.094505   156     0.1993

  Lengths:  22.189011  15.690000  31.094505
  Angles:   90.000000  90.000000  90.000000

Effective grid spacing dv^(1/3) = 0.1979

     iter     time        total  log10-change:
                         energy   eigst   dens
iter:   1 23:55:36   -65.469083        c
iter:   2 23:56:17   -64.389990        c -1.50
iter:   3 23:56:57   -62.775189        c -1.57
iter:   4 23:57:41   -61.569053        c -1.74
iter:   5 23:58:44   -61.556472        c -2.05
iter:   6 23:59:37   -61.536704c       c -2.12
iter:   7 00:00:29   -61.525514c       c -2.24
iter:   8 00:01:19   -61.520520c       c -2.47
iter:   9 00:02:08   -61.506849c       c -2.52
iter:  10 00:02:57   -61.502721c       c -2.74
iter:  11 00:03:48   -61.501766c       c -2.95
iter:  12 00:04:40   -61.501601c       c -3.25
iter:  13 00:05:26   -61.501172c       c -3.32
iter:  14 00:06:11   -61.500484c       c -3.35
iter:  15 00:06:58   -61.500350c       c -3.40
iter:  16 00:07:45   -61.500896c       c -3.52
iter:  17 00:08:31   -61.501273c       c -3.68
iter:  18 00:09:21   -61.501319c       c -3.76
iter:  19 00:10:09   -61.501265c       c -3.84
iter:  20 00:10:55   -61.501165c       c -3.92
iter:  21 00:11:40   -61.501171c       c -4.03c

Converged after 21 iterations.

Dipole moment: (-90.130030, -51.765012, 0.442632) |e|*Ang

Energy contributions relative to reference atoms: (reference = -1195904.484944)

Kinetic:       +124.797891
Potential:     -107.587821
External:        +0.000000
XC:             -79.006702
Entropy (-ST):   -3.804102
Local:           +2.197512
SIC:             +0.000000
--------------------------
Free energy:    -63.403222
Extrapolated:   -61.501171

 Band  Eigenvalues  Occupancy
    0    -35.25015    2.00000
    1    -34.76641    2.00000
    2    -34.76405    2.00000
    3    -34.76216    2.00000
    4    -34.75940    2.00000
    5    -34.75894    2.00000
    6    -34.75682    2.00000
    7    -34.75662    2.00000
    8    -34.75652    2.00000
    9    -34.75631    2.00000
   10    -34.75546    2.00000
   11    -34.75523    2.00000
   12    -34.75451    2.00000
   13    -34.75435    2.00000
   14    -34.75369    2.00000
   15    -34.75358    2.00000
   16    -34.75315    2.00000
   17    -34.75275    2.00000
   18    -34.75192    2.00000
   19    -34.75156    2.00000
   20    -34.75151    2.00000
   21    -34.75114    2.00000
   22    -34.75106    2.00000
   23    -34.75101    2.00000
   24    -34.75039    2.00000
   25    -34.75020    2.00000
   26    -34.74963    2.00000
   27    -34.74933    2.00000
   28    -34.74923    2.00000
   29    -34.74866    2.00000
   30    -34.74533    2.00000
   31    -34.74431    2.00000
   32    -34.74248    2.00000
   33    -34.74229    2.00000
   34    -34.72577    2.00000
   35    -34.69044    2.00000
   36    -34.64623    2.00000
   37    -34.61297    2.00000
   38    -34.60864    2.00000
   39    -34.60759    2.00000
   40    -34.60652    2.00000
   41    -34.60591    2.00000
   42    -34.60433    2.00000
   43    -34.60366    2.00000
   44    -34.60285    2.00000
   45    -34.60277    2.00000
   46    -34.60201    2.00000
   47    -34.60174    2.00000
   48    -34.60098    2.00000
   49    -34.60084    2.00000
   50    -34.60058    2.00000
   51    -34.60036    2.00000
   52    -34.59986    2.00000
   53    -34.59954    2.00000
   54    -34.59859    2.00000
   55    -34.59755    2.00000
   56    -34.59744    2.00000
   57    -34.59587    2.00000
   58    -34.59494    2.00000
   59    -34.59460    2.00000
   60    -34.59424    2.00000
   61    -34.59393    2.00000
   62    -34.59376    2.00000
   63    -34.59342    2.00000
   64    -34.59257    2.00000
   65    -34.59238    2.00000
   66    -34.59228    2.00000
   67    -34.59179    2.00000
   68    -34.59107    2.00000
   69    -34.59053    2.00000
   70    -34.59017    2.00000
   71    -34.58222    2.00000
   72    -34.58171    2.00000
   73    -18.74945    2.00000
   74    -18.71667    2.00000
   75    -18.71243    2.00000
   76    -18.27085    2.00000
   77    -18.26736    2.00000
   78    -18.26232    2.00000
   79    -18.26205    2.00000
   80    -18.26185    2.00000
   81    -18.26144    2.00000
   82    -18.25946    2.00000
   83    -18.25936    2.00000
   84    -18.25900    2.00000
   85    -18.25795    2.00000
   86    -18.25687    2.00000
   87    -18.25662    2.00000
   88    -18.25647    2.00000
   89    -18.25601    2.00000
   90    -18.25596    2.00000
   91    -18.25522    2.00000
   92    -18.25515    2.00000
   93    -18.25473    2.00000
   94    -18.25446    2.00000
   95    -18.25382    2.00000
   96    -18.25348    2.00000
   97    -18.25281    2.00000
   98    -18.25225    2.00000
   99    -18.25212    2.00000
  100    -18.25205    2.00000
  101    -18.25181    2.00000
  102    -18.25165    2.00000
  103    -18.25125    2.00000
  104    -18.25093    2.00000
  105    -18.25082    2.00000
  106    -18.25051    2.00000
  107    -18.24980    2.00000
  108    -18.24964    2.00000
  109    -18.24932    2.00000
  110    -18.24926    2.00000
  111    -18.24839    2.00000
  112    -18.24792    2.00000
  113    -18.24788    2.00000
  114    -18.24765    2.00000
  115    -18.24736    2.00000
  116    -18.24728    2.00000
  117    -18.24698    2.00000
  118    -18.24692    2.00000
  119    -18.24684    2.00000
  120    -18.24656    2.00000
  121    -18.24617    2.00000
  122    -18.24611    2.00000
  123    -18.24531    2.00000
  124    -18.24529    2.00000
  125    -18.24432    2.00000
  126    -18.24412    2.00000
  127    -18.24366    2.00000
  128    -18.24347    2.00000
  129    -18.24207    2.00000
  130    -18.24133    2.00000
  131    -18.24110    2.00000
  132    -18.23928    2.00000
  133    -18.23906    2.00000
  134    -18.23706    2.00000
  135    -18.23552    2.00000
  136    -18.23471    2.00000
  137    -18.23406    2.00000
  138    -18.23405    2.00000
  139    -18.23146    2.00000
  140    -18.22977    2.00000
  141    -18.22796    2.00000
  142    -18.22718    2.00000
  143    -18.22716    2.00000
  144    -18.22648    2.00000
  145    -18.22527    2.00000
  146    -18.22494    2.00000
  147    -18.22455    2.00000
  148    -18.22348    2.00000
  149    -18.22269    2.00000
  150    -18.22224    2.00000
  151    -18.22146    2.00000
  152    -18.22065    2.00000
  153    -18.21974    2.00000
  154    -18.21896    2.00000
  155    -18.21813    2.00000
  156    -18.21806    2.00000
  157    -18.21786    2.00000
  158    -18.21694    2.00000
  159    -18.21686    2.00000
  160    -18.21636    2.00000
  161    -18.21592    2.00000
  162    -18.21543    2.00000
  163    -18.21445    2.00000
  164    -18.21393    2.00000
  165    -18.21380    2.00000
  166    -18.21325    2.00000
  167    -18.21103    2.00000
  168    -18.21013    2.00000
  169    -18.20884    2.00000
  170    -18.20816    2.00000
  171    -18.20627    2.00000
  172    -18.20540    2.00000
  173    -18.20464    2.00000
  174    -18.20408    2.00000
  175    -18.20231    2.00000
  176    -18.20210    2.00000
  177    -18.19648    2.00000
  178    -18.18733    2.00000
  179    -18.17166    2.00000
  180    -18.16792    2.00000
  181    -18.16419    2.00000
  182    -18.14615    2.00000
  183    -18.12769    2.00000
  184    -18.12453    2.00000
  185    -18.12405    2.00000
  186    -18.12015    2.00000
  187    -18.11931    2.00000
  188    -18.11795    2.00000
  189    -18.11782    2.00000
  190    -18.11752    2.00000
  191    -18.11698    2.00000
  192    -18.11587    2.00000
  193    -18.11325    2.00000
  194    -18.11312    2.00000
  195    -18.11268    2.00000
  196    -18.11216    2.00000
  197    -18.11053    2.00000
  198    -18.11005    2.00000
  199    -18.10957    2.00000
  200    -18.10850    2.00000
  201    -18.10686    2.00000
  202    -18.10620    2.00000
  203    -18.10582    2.00000
  204    -18.10540    2.00000
  205    -18.10523    2.00000
  206    -18.10495    2.00000
  207    -18.10475    2.00000
  208    -18.10329    2.00000
  209    -18.10313    2.00000
  210    -18.10037    2.00000
  211    -18.10017    2.00000
  212    -18.09995    2.00000
  213    -18.09914    2.00000
  214    -18.09859    2.00000
  215    -18.09805    2.00000
  216    -18.09784    2.00000
  217    -18.09741    2.00000
  218    -18.09730    2.00000
  219    -18.09688    2.00000
  220    -18.09442    2.00000
  221    -18.09362    2.00000
  222    -18.09304    2.00000
  223    -18.09166    2.00000
  224    -18.09047    2.00000
  225    -18.09003    2.00000
  226    -18.08921    2.00000
  227    -18.08696    2.00000
  228    -18.08579    2.00000
  229    -18.08515    2.00000
  230    -18.08448    2.00000
  231    -18.08414    2.00000
  232    -18.08364    2.00000
  233    -18.08299    2.00000
  234    -18.08267    2.00000
  235    -18.08250    2.00000
  236    -18.08198    2.00000
  237    -18.08163    2.00000
  238    -18.08141    2.00000
  239    -18.07988    2.00000
  240    -18.07948    2.00000
  241    -18.07853    2.00000
  242    -18.07755    2.00000
  243    -18.07730    2.00000
  244    -18.07663    2.00000
  245    -18.07581    2.00000
  246    -18.07531    2.00000
  247    -18.07518    2.00000
  248    -18.07481    2.00000
  249    -18.07425    2.00000
  250    -18.07410    2.00000
  251    -18.07375    2.00000
  252    -18.07349    2.00000
  253    -18.07253    2.00000
  254    -18.07225    2.00000
  255    -18.07185    2.00000
  256    -18.07180    2.00000
  257    -18.07017    2.00000
  258    -18.06988    2.00000
  259    -18.06947    2.00000
  260    -18.06902    2.00000
  261    -18.06883    2.00000
  262    -18.06860    2.00000
  263    -18.06790    2.00000
  264    -18.06770    2.00000
  265    -18.06766    2.00000
  266    -18.06743    2.00000
  267    -18.06610    2.00000
  268    -18.06570    2.00000
  269    -18.06561    2.00000
  270    -18.06544    2.00000
  271    -18.06522    2.00000
  272    -18.06411    2.00000
  273    -18.06395    2.00000
  274    -18.06371    2.00000
  275    -18.06359    2.00000
  276    -18.06302    2.00000
  277    -18.06240    2.00000
  278    -18.06216    2.00000
  279    -18.06078    2.00000
  280    -18.05977    2.00000
  281    -18.05950    2.00000
  282    -18.05924    2.00000
  283    -18.05882    2.00000
  284    -18.05874    2.00000
  285    -18.05822    2.00000
  286    -18.05779    2.00000
  287    -18.05697    2.00000
  288    -18.05571    2.00000
  289    -18.05466    2.00000
  290    -18.05412    2.00000
  291    -18.05306    2.00000
  292     -4.53869    2.00000
  293     -4.19548    1.99999
  294     -4.18441    1.99999
  295     -4.14897    1.99998
  296     -3.85044    1.99989
  297     -3.85017    1.99989
  298     -3.81383    1.99986
  299     -3.79875    1.99984
  300     -3.53601    1.99909
  301     -3.52183    1.99899
  302     -3.51136    1.99892
  303     -3.50985    1.99891
  304     -3.50720    1.99889
  305     -3.47190    1.99860
  306     -3.46344    1.99852
  307     -3.21576    1.99229
  308     -3.19030    1.99087
  309     -3.18497    1.99054
  310     -3.17320    1.98977
  311     -3.14560    1.98772
  312     -3.14071    1.98732
  313     -3.13726    1.98702
  314     -3.13070    1.98645
  315     -2.88001    1.92997
  316     -2.84684    1.91338
  317     -2.81981    1.89716
  318     -2.81773    1.89580
  319     -2.72735    1.81751
  320     -2.56692    1.54730
  321     -2.54682    1.49865
  322     -2.54208    1.48670
  323     -2.54179    1.48594
  324     -2.53991    1.48116
  325     -2.53376    1.46523
  326     -2.52379    1.43881
  327     -2.51623    1.41822
  328     -2.42006    1.12431
  329     -2.36081    0.92760
  330     -2.22672    0.52268
  331     -2.21348    0.48933
  332     -2.18827    0.42991
  333     -2.18720    0.42751
  334     -2.18562    0.42397
  335     -2.18323    0.41868
  336     -2.10712    0.27498
  337     -2.04890    0.19515
  338     -1.94397    0.10196
  339     -1.94348    0.10165
  340     -1.92099    0.08812
  341     -1.75743    0.03051
  342     -1.75422    0.02987
  343     -1.73929    0.02708
  344     -1.71372    0.02288
  345     -1.66868    0.01700
  346     -1.65109    0.01513
  347     -1.64763    0.01479
  348     -1.64181    0.01423
  349     -1.64101    0.01415
  350     -1.62805    0.01299
  351     -1.62050    0.01236
  352     -1.61172    0.01166
  353     -1.60732    0.01132
  354     -1.60226    0.01095
  355     -1.58885    0.01002
  356     -1.58781    0.00995
  357     -1.58310    0.00964
  358     -1.53372    0.00695
  359     -1.41790    0.00322
  360     -1.41282    0.00311
  361     -1.37022    0.00234
  362     -1.34731    0.00201
  363     -1.31335    0.00160
  364     -1.27167    0.00121

Fermi level: -2.38257

Gap: 0.059 eV
Transition (v -> c):
  (s=0, k=0, n=328, [0.00, 0.00, 0.00]) -> (s=0, k=0, n=329, [0.00, 0.00, 0.00])
No difference between direct/indirect transitions

Forces in eV/Ang:
  0 K    -0.00064   -0.00040   -0.02509
  1 K    -0.00593    0.00515   -0.03033
  2 K    -0.00114   -0.00470   -0.01059
  3 K    -0.00278    0.00152   -0.00356
  4 K     0.00642    0.00008    0.01811
  5 K     0.01954   -0.00684    0.01636
  6 K    -0.01176   -0.00073    0.04147
  7 K     0.00650    0.00211    0.01477
  8 K    -0.00101    0.00066   -0.02658
  9 K     0.00187   -0.00152   -0.02209
 10 K    -0.01665   -0.00230   -0.02376
 11 K    -0.00061   -0.00112    0.00698
 12 K    -0.00441    0.00138    0.02558
 13 K    -0.00737    0.00061    0.02980
 14 K     0.00404   -0.01238    0.02856
 15 K     0.00484   -0.00213    0.02945
 16 K    -0.00267   -0.00027   -0.02687
 17 K    -0.00729   -0.00364   -0.02877
 18 K    -0.00836    0.00710   -0.00309
 19 K    -0.00143   -0.00046   -0.00202
 20 K    -0.00480   -0.00115    0.02313
 21 K    -0.01230    0.00607    0.01749
 22 K     0.00295    0.00525    0.02556
 23 K     0.00479   -0.00090    0.01239
 24 K    -0.00378    0.00090   -0.02146
 25 K     0.00014   -0.00015   -0.02642
 26 K     0.00615   -0.00444   -0.00565
 27 K     0.01169    0.01106   -0.01182
 28 K    -0.00913    0.02960    0.02669
 29 K    -0.02062    0.01353    0.01130
 30 K    -0.01091    0.00777    0.03715
 31 K     0.03222    0.02311   -0.04217
 32 K     0.00594   -0.00686   -0.02755
 33 K     0.00217   -0.00078   -0.02366
 34 K     0.00583    0.00328   -0.01095
 35 K    -0.00498    0.03472   -0.04566
 36 K     0.00483   -0.02671    0.02989
 37 K     0.01114   -0.00010    0.02508
 38 K    -0.00715   -0.00685    0.02114
 39 K    -0.00230   -0.00754    0.02058
 40 K     0.00659    0.00597   -0.02757
 41 K     0.00169    0.00093   -0.02542
 42 K    -0.00162    0.00125    0.00770
 43 K     0.01123   -0.04585   -0.05616
 44 K     0.00302   -0.00129    0.02177
 45 K     0.00682   -0.00022    0.02601
 46 K    -0.01091   -0.00006    0.02010
 47 K    -0.00151    0.01533    0.03445
 48 K     0.00460   -0.00089   -0.02425
 49 K     0.00567    0.00558   -0.03013
 50 K    -0.00497   -0.00033    0.00306
 51 K    -0.00892    0.01126   -0.00577
 52 K     0.00092   -0.00221    0.01876
 53 K    -0.00140   -0.00244    0.01493
 54 K     0.00031    0.00001    0.01845
 55 K    -0.00727    0.00328    0.02468
 56 K    -0.00471   -0.00425   -0.03110
 57 K    -0.00451    0.00121   -0.02658
 58 K     0.01053   -0.01115   -0.00560
 59 K     0.00542   -0.00047    0.00419
 60 K     0.00522    0.00191    0.01306
 61 K     0.00053    0.00053    0.01294
 62 K     0.00799   -0.00579    0.02500
 63 K    -0.00440   -0.00647    0.02234
 64 K    -0.00330    0.00510   -0.03247
 65 K     0.00519   -0.00680   -0.03256
 66 K     0.01013    0.01152   -0.00584
 67 K    -0.00998   -0.01101   -0.00482
 68 K     0.00372   -0.00351    0.01417
 69 K    -0.00192    0.00354    0.01557
 70 K     0.00795    0.00592    0.02490
 71 K    -0.01298    0.00130    0.02833
 72 K    -0.00559   -0.01212    0.03693

System changes: positions 

Initializing position-dependent things.

Density initialized from wave functions
           .------------------------------------------------------.  
          /|                                                      |  
         / |                                                      |  
        /  |                                                      |  
       /   |                                                      |  
      /    |                                                      |  
     /     |                                                      |  
    /      |                                                      |  
   /       |                                                      |  
  /        |                                                      |  
 *         |                                                      |  
 |         |                                                      |  
 |         |                                                      |  
 |         |                                                      |  
 |       K |                K                 K                   |  
 |         |     K                 K                  K           |  
 |         |                                                      |  
 |    K    |       K    K    K             K    K                 K  
 |         |      K                  K                 K          |  
 |         |  K                 K                 K               |  
 | K       |              K            K    K                  K  |  
 |         |         K                                            |  
 |        K|   K            K     K            K    K             |  
 |       K |                K            K    K            K      |  
 |         |           K                                          |  
 |         |K    K            K    K             K   K            |  
 |    K    |            K                  K                      |  
 |         |       K                 K                 K          |  
 |         | K                  K                 K               |  
 |      K  |              K                 K                     |  
 | K       |         K                 K                          |  
 |        K|   K             K   K             K    K             |  
 |  K      |           K                 K                        |  
 |         |                                                      |  
 |         |K                 K                  K                |  
 |         |                                                      |  
 K         |       K                  K                           |  
 |         |                                                      |  
 |         .------------------------------------------------------.  
 |        /                                                      /   
 |       /                                                      /    
 |      /                                                      /     
 |     /                                                      /      
 |    /                                                      /       
 |   /                                                      /        
 |  /                                                      /         
 | /                                                      /          
 |/                                                      /           
 *------------------------------------------------------*            

Atomic positions and initial magnetic moments

Positions:
   0 K      0.000000    0.000000   10.000000    ( 0.0000,  0.0000,  0.0000)
   1 K      3.698168    2.615000   10.000000    ( 0.0000,  0.0000,  0.0000)
   2 K      3.698168    0.000000   13.698168    ( 0.0000,  0.0000,  0.0000)
   3 K      0.000000    2.615000   13.698168    ( 0.0000,  0.0000,  0.0000)
   4 K     -0.009943   -0.002942   17.403617    ( 0.0000,  0.0000,  0.0000)
   5 K      3.651984    2.650536   17.345834    ( 0.0000,  0.0000,  0.0000)
   6 K      3.760895    0.049551   21.095185    ( 0.0000,  0.0000,  0.0000)
   7 K      0.012022    2.602350   21.190706    ( 0.0000,  0.0000,  0.0000)
   8 K      0.000000    5.230000   10.000000    ( 0.0000,  0.0000,  0.0000)
   9 K      3.698168    7.845000   10.000000    ( 0.0000,  0.0000,  0.0000)
  10 K      3.698168    5.230000   13.698168    ( 0.0000,  0.0000,  0.0000)
  11 K      0.000000    7.845000   13.698168    ( 0.0000,  0.0000,  0.0000)
  12 K     -0.005093    5.235229   17.422386    ( 0.0000,  0.0000,  0.0000)
  13 K      3.693998    7.838532   17.430040    ( 0.0000,  0.0000,  0.0000)
  14 K      3.754087    5.168237   21.241137    ( 0.0000,  0.0000,  0.0000)
  15 K      0.006459    7.838883   21.164158    ( 0.0000,  0.0000,  0.0000)
  16 K      0.000000   10.460000   10.000000    ( 0.0000,  0.0000,  0.0000)
  17 K      3.698168   13.075000   10.000000    ( 0.0000,  0.0000,  0.0000)
  18 K      3.698168   10.460000   13.698168    ( 0.0000,  0.0000,  0.0000)
  19 K      0.000000   13.075000   13.698168    ( 0.0000,  0.0000,  0.0000)
  20 K     -0.002106   10.457822   17.414699    ( 0.0000,  0.0000,  0.0000)
  21 K      3.671663   13.043830   17.401219    ( 0.0000,  0.0000,  0.0000)
  22 K      3.699258   10.467844   21.178675    ( 0.0000,  0.0000,  0.0000)
  23 K      0.014049   13.092536   21.190762    ( 0.0000,  0.0000,  0.0000)
  24 K      7.396337    0.000000   10.000000    ( 0.0000,  0.0000,  0.0000)
  25 K     11.094505    2.615000   10.000000    ( 0.0000,  0.0000,  0.0000)
  26 K     11.094505    0.000000   13.698168    ( 0.0000,  0.0000,  0.0000)
  27 K      7.396337    2.615000   13.698168    ( 0.0000,  0.0000,  0.0000)
  28 K      7.395310   -0.194234   17.206145    ( 0.0000,  0.0000,  0.0000)
  29 K     11.142648    2.612762   17.378164    ( 0.0000,  0.0000,  0.0000)
  30 K     11.037970    0.053403   21.233928    ( 0.0000,  0.0000,  0.0000)
  31 K      7.401584    2.616743   20.410821    ( 0.0000,  0.0000,  0.0000)
  32 K      7.396337    5.230000   10.000000    ( 0.0000,  0.0000,  0.0000)
  33 K     11.094505    7.845000   10.000000    ( 0.0000,  0.0000,  0.0000)
  34 K     11.094505    5.230000   13.698168    ( 0.0000,  0.0000,  0.0000)
  35 K      7.396337    7.845000   13.698168    ( 0.0000,  0.0000,  0.0000)
  36 K      7.399612    5.417096   17.208466    ( 0.0000,  0.0000,  0.0000)
  37 K     11.109554    7.840627   17.421491    ( 0.0000,  0.0000,  0.0000)
  38 K     11.041299    5.193549   21.235531    ( 0.0000,  0.0000,  0.0000)
  39 K      7.389956    7.796051   21.216366    ( 0.0000,  0.0000,  0.0000)
  40 K      7.396337   10.460000   10.000000    ( 0.0000,  0.0000,  0.0000)
  41 K     11.094505   13.075000   10.000000    ( 0.0000,  0.0000,  0.0000)
  42 K     11.094505   10.460000   13.698168    ( 0.0000,  0.0000,  0.0000)
  43 K      7.396337   13.075000   13.698168    ( 0.0000,  0.0000,  0.0000)
  44 K      7.406843   10.468907   17.439325    ( 0.0000,  0.0000,  0.0000)
  45 K     11.113749   13.083030   17.431920    ( 0.0000,  0.0000,  0.0000)
  46 K     11.089013   10.453669   21.181908    ( 0.0000,  0.0000,  0.0000)
  47 K      7.388855   13.127636   21.224759    ( 0.0000,  0.0000,  0.0000)
  48 K     14.792674    0.000000   10.000000    ( 0.0000,  0.0000,  0.0000)
  49 K     18.490842    2.615000   10.000000    ( 0.0000,  0.0000,  0.0000)
  50 K     18.490842    0.000000   13.698168    ( 0.0000,  0.0000,  0.0000)
  51 K     14.792674    2.615000   13.698168    ( 0.0000,  0.0000,  0.0000)
  52 K     14.808117   -0.004569   17.417718    ( 0.0000,  0.0000,  0.0000)
  53 K     18.499313    2.623183   17.425087    ( 0.0000,  0.0000,  0.0000)
  54 K     18.480841    0.000956   21.179592    ( 0.0000,  0.0000,  0.0000)
  55 K     14.784768    2.616415   21.170282    ( 0.0000,  0.0000,  0.0000)
  56 K     14.792674    5.230000   10.000000    ( 0.0000,  0.0000,  0.0000)
  57 K     18.490842    7.845000   10.000000    ( 0.0000,  0.0000,  0.0000)
  58 K     18.490842    5.230000   13.698168    ( 0.0000,  0.0000,  0.0000)
  59 K     14.792674    7.845000   13.698168    ( 0.0000,  0.0000,  0.0000)
  60 K     14.787901    5.224805   17.427167    ( 0.0000,  0.0000,  0.0000)
  61 K     18.479598    7.846216   17.408552    ( 0.0000,  0.0000,  0.0000)
  62 K     18.494722    5.227118   21.171531    ( 0.0000,  0.0000,  0.0000)
  63 K     14.796929    7.838861   21.177594    ( 0.0000,  0.0000,  0.0000)
  64 K     14.792674   10.460000   10.000000    ( 0.0000,  0.0000,  0.0000)
  65 K     18.490842   13.075000   10.000000    ( 0.0000,  0.0000,  0.0000)
  66 K     18.490842   10.460000   13.698168    ( 0.0000,  0.0000,  0.0000)
  67 K     14.792674   13.075000   13.698168    ( 0.0000,  0.0000,  0.0000)
  68 K     14.785205   10.467883   17.421398    ( 0.0000,  0.0000,  0.0000)
  69 K     18.499649   13.066057   17.420030    ( 0.0000,  0.0000,  0.0000)
  70 K     18.495347   10.462713   21.172525    ( 0.0000,  0.0000,  0.0000)
  71 K     14.781824   13.079108   21.170134    ( 0.0000,  0.0000,  0.0000)
  72 K      6.786519    2.185397   24.317373    ( 0.0000,  0.0000,  0.0000)

Unit cell:
           periodic     x           y           z      points  spacing
  1. axis:    yes   22.189011    0.000000    0.000000   112     0.1981
  2. axis:    yes    0.000000   15.690000    0.000000    80     0.1961
  3. axis:    no     0.000000    0.000000   31.094505   156     0.1993

  Lengths:  22.189011  15.690000  31.094505
  Angles:   90.000000  90.000000  90.000000

Effective grid spacing dv^(1/3) = 0.1979

     iter     time        total  log10-change:
                         energy   eigst   dens
iter:   1 00:37:10   -61.501329        c
iter:   2 00:38:08   -61.501267        c -3.94
iter:   3 00:39:25   -61.501221c       c -4.07c

Converged after 3 iterations.

Dipole moment: (-90.151559, -51.795620, 0.447228) |e|*Ang

Energy contributions relative to reference atoms: (reference = -1195904.484944)

Kinetic:       +119.750710
Potential:     -103.047638
External:        +0.000000
XC:             -78.605843
Entropy (-ST):   -3.804576
Local:           +2.303839
SIC:             +0.000000
--------------------------
Free energy:    -63.403509
Extrapolated:   -61.501221

 Band  Eigenvalues  Occupancy
    0    -35.25338    2.00000
    1    -34.77124    2.00000
    2    -34.76823    2.00000
    3    -34.76453    2.00000
    4    -34.76342    2.00000
    5    -34.76257    2.00000
    6    -34.76093    2.00000
    7    -34.76040    2.00000
    8    -34.76000    2.00000
    9    -34.75949    2.00000
   10    -34.75901    2.00000
   11    -34.75834    2.00000
   12    -34.75800    2.00000
   13    -34.75768    2.00000
   14    -34.75686    2.00000
   15    -34.75670    2.00000
   16    -34.75641    2.00000
   17    -34.75591    2.00000
   18    -34.75543    2.00000
   19    -34.75513    2.00000
   20    -34.75480    2.00000
   21    -34.75479    2.00000
   22    -34.75470    2.00000
   23    -34.75434    2.00000
   24    -34.75425    2.00000
   25    -34.75411    2.00000
   26    -34.75377    2.00000
   27    -34.75346    2.00000
   28    -34.75288    2.00000
   29    -34.75274    2.00000
   30    -34.74995    2.00000
   31    -34.74896    2.00000
   32    -34.74718    2.00000
   33    -34.74696    2.00000
   34    -34.73068    2.00000
   35    -34.69548    2.00000
   36    -34.65218    2.00000
   37    -34.61539    2.00000
   38    -34.61152    2.00000
   39    -34.61057    2.00000
   40    -34.61002    2.00000
   41    -34.60930    2.00000
   42    -34.60795    2.00000
   43    -34.60704    2.00000
   44    -34.60628    2.00000
   45    -34.60614    2.00000
   46    -34.60557    2.00000
   47    -34.60498    2.00000
   48    -34.60473    2.00000
   49    -34.60428    2.00000
   50    -34.60405    2.00000
   51    -34.60396    2.00000
   52    -34.60365    2.00000
   53    -34.60312    2.00000
   54    -34.60147    2.00000
   55    -34.60119    2.00000
   56    -34.60077    2.00000
   57    -34.59881    2.00000
   58    -34.59842    2.00000
   59    -34.59802    2.00000
   60    -34.59765    2.00000
   61    -34.59737    2.00000
   62    -34.59727    2.00000
   63    -34.59686    2.00000
   64    -34.59646    2.00000
   65    -34.59630    2.00000
   66    -34.59617    2.00000
   67    -34.59534    2.00000
   68    -34.59528    2.00000
   69    -34.59471    2.00000
   70    -34.59437    2.00000
   71    -34.58522    2.00000
   72    -34.58429    2.00000
   73    -18.75243    2.00000
   74    -18.71968    2.00000
   75    -18.71545    2.00000
   76    -18.27493    2.00000
   77    -18.27026    2.00000
   78    -18.26629    2.00000
   79    -18.26588    2.00000
   80    -18.26525    2.00000
   81    -18.26423    2.00000
   82    -18.26316    2.00000
   83    -18.26233    2.00000
   84    -18.26218    2.00000
   85    -18.26163    2.00000
   86    -18.26013    2.00000
   87    -18.25981    2.00000
   88    -18.25967    2.00000
   89    -18.25963    2.00000
   90    -18.25883    2.00000
   91    -18.25872    2.00000
   92    -18.25866    2.00000
   93    -18.25754    2.00000
   94    -18.25730    2.00000
   95    -18.25723    2.00000
   96    -18.25712    2.00000
   97    -18.25580    2.00000
   98    -18.25553    2.00000
   99    -18.25548    2.00000
  100    -18.25532    2.00000
  101    -18.25523    2.00000
  102    -18.25495    2.00000
  103    -18.25452    2.00000
  104    -18.25436    2.00000
  105    -18.25394    2.00000
  106    -18.25358    2.00000
  107    -18.25344    2.00000
  108    -18.25275    2.00000
  109    -18.25264    2.00000
  110    -18.25256    2.00000
  111    -18.25157    2.00000
  112    -18.25152    2.00000
  113    -18.25137    2.00000
  114    -18.25110    2.00000
  115    -18.25076    2.00000
  116    -18.25072    2.00000
  117    -18.25038    2.00000
  118    -18.25014    2.00000
  119    -18.25009    2.00000
  120    -18.25004    2.00000
  121    -18.24995    2.00000
  122    -18.24951    2.00000
  123    -18.24913    2.00000
  124    -18.24861    2.00000
  125    -18.24795    2.00000
  126    -18.24759    2.00000
  127    -18.24745    2.00000
  128    -18.24710    2.00000
  129    -18.24645    2.00000
  130    -18.24537    2.00000
  131    -18.24496    2.00000
  132    -18.24371    2.00000
  133    -18.24310    2.00000
  134    -18.24008    2.00000
  135    -18.23878    2.00000
  136    -18.23871    2.00000
  137    -18.23790    2.00000
  138    -18.23695    2.00000
  139    -18.23502    2.00000
  140    -18.23358    2.00000
  141    -18.23172    2.00000
  142    -18.23104    2.00000
  143    -18.23031    2.00000
  144    -18.23027    2.00000
  145    -18.22877    2.00000
  146    -18.22865    2.00000
  147    -18.22766    2.00000
  148    -18.22670    2.00000
  149    -18.22622    2.00000
  150    -18.22561    2.00000
  151    -18.22539    2.00000
  152    -18.22451    2.00000
  153    -18.22304    2.00000
  154    -18.22228    2.00000
  155    -18.22218    2.00000
  156    -18.22136    2.00000
  157    -18.22115    2.00000
  158    -18.22070    2.00000
  159    -18.22014    2.00000
  160    -18.21951    2.00000
  161    -18.21910    2.00000
  162    -18.21899    2.00000
  163    -18.21813    2.00000
  164    -18.21728    2.00000
  165    -18.21693    2.00000
  166    -18.21667    2.00000
  167    -18.21462    2.00000
  168    -18.21392    2.00000
  169    -18.21221    2.00000
  170    -18.21154    2.00000
  171    -18.21023    2.00000
  172    -18.20911    2.00000
  173    -18.20844    2.00000
  174    -18.20801    2.00000
  175    -18.20665    2.00000
  176    -18.20580    2.00000
  177    -18.20104    2.00000
  178    -18.19197    2.00000
  179    -18.17637    2.00000
  180    -18.17267    2.00000
  181    -18.16887    2.00000
  182    -18.15017    2.00000
  183    -18.13236    2.00000
  184    -18.12832    2.00000
  185    -18.12742    2.00000
  186    -18.12357    2.00000
  187    -18.12230    2.00000
  188    -18.12144    2.00000
  189    -18.12115    2.00000
  190    -18.12054    2.00000
  191    -18.12015    2.00000
  192    -18.11898    2.00000
  193    -18.11641    2.00000
  194    -18.11629    2.00000
  195    -18.11600    2.00000
  196    -18.11528    2.00000
  197    -18.11352    2.00000
  198    -18.11308    2.00000
  199    -18.11261    2.00000
  200    -18.11179    2.00000
  201    -18.10984    2.00000
  202    -18.10956    2.00000
  203    -18.10896    2.00000
  204    -18.10874    2.00000
  205    -18.10837    2.00000
  206    -18.10824    2.00000
  207    -18.10806    2.00000
  208    -18.10649    2.00000
  209    -18.10621    2.00000
  210    -18.10366    2.00000
  211    -18.10344    2.00000
  212    -18.10305    2.00000
  213    -18.10237    2.00000
  214    -18.10173    2.00000
  215    -18.10134    2.00000
  216    -18.10115    2.00000
  217    -18.10066    2.00000
  218    -18.10055    2.00000
  219    -18.10011    2.00000
  220    -18.09743    2.00000
  221    -18.09681    2.00000
  222    -18.09627    2.00000
  223    -18.09493    2.00000
  224    -18.09367    2.00000
  225    -18.09321    2.00000
  226    -18.09238    2.00000
  227    -18.09025    2.00000
  228    -18.08904    2.00000
  229    -18.08834    2.00000
  230    -18.08766    2.00000
  231    -18.08717    2.00000
  232    -18.08692    2.00000
  233    -18.08621    2.00000
  234    -18.08584    2.00000
  235    -18.08570    2.00000
  236    -18.08509    2.00000
  237    -18.08478    2.00000
  238    -18.08457    2.00000
  239    -18.08318    2.00000
  240    -18.08267    2.00000
  241    -18.08168    2.00000
  242    -18.08065    2.00000
  243    -18.08047    2.00000
  244    -18.07969    2.00000
  245    -18.07909    2.00000
  246    -18.07853    2.00000
  247    -18.07842    2.00000
  248    -18.07779    2.00000
  249    -18.07745    2.00000
  250    -18.07726    2.00000
  251    -18.07691    2.00000
  252    -18.07671    2.00000
  253    -18.07579    2.00000
  254    -18.07558    2.00000
  255    -18.07508    2.00000
  256    -18.07501    2.00000
  257    -18.07331    2.00000
  258    -18.07305    2.00000
  259    -18.07271    2.00000
  260    -18.07244    2.00000
  261    -18.07218    2.00000
  262    -18.07190    2.00000
  263    -18.07106    2.00000
  264    -18.07093    2.00000
  265    -18.07088    2.00000
  266    -18.07082    2.00000
  267    -18.06928    2.00000
  268    -18.06908    2.00000
  269    -18.06894    2.00000
  270    -18.06856    2.00000
  271    -18.06837    2.00000
  272    -18.06718    2.00000
  273    -18.06699    2.00000
  274    -18.06690    2.00000
  275    -18.06678    2.00000
  276    -18.06620    2.00000
  277    -18.06587    2.00000
  278    -18.06554    2.00000
  279    -18.06392    2.00000
  280    -18.06302    2.00000
  281    -18.06285    2.00000
  282    -18.06266    2.00000
  283    -18.06225    2.00000
  284    -18.06209    2.00000
  285    -18.06108    2.00000
  286    -18.06082    2.00000
  287    -18.05980    2.00000
  288    -18.05869    2.00000
  289    -18.05757    2.00000
  290    -18.05707    2.00000
  291    -18.05657    2.00000
  292     -4.54035    2.00000
  293     -4.19718    1.99999
  294     -4.18610    1.99999
  295     -4.15105    1.99998
  296     -3.85215    1.99989
  297     -3.85183    1.99989
  298     -3.81601    1.99986
  299     -3.80087    1.99984
  300     -3.53768    1.99909
  301     -3.52345    1.99899
  302     -3.51302    1.99892
  303     -3.51141    1.99891
  304     -3.50888    1.99889
  305     -3.47391    1.99860
  306     -3.46557    1.99852
  307     -3.21735    1.99229
  308     -3.19198    1.99087
  309     -3.18665    1.99055
  310     -3.17460    1.98976
  311     -3.14760    1.98775
  312     -3.14289    1.98736
  313     -3.13940    1.98707
  314     -3.13283    1.98649
  315     -2.88141    1.92986
  316     -2.84821    1.91324
  317     -2.82194    1.89748
  318     -2.81980    1.89608
  319     -2.72883    1.81735
  320     -2.56841    1.54694
  321     -2.54846    1.49866
  322     -2.54377    1.48681
  323     -2.54346    1.48603
  324     -2.54160    1.48129
  325     -2.53517    1.46464
  326     -2.52521    1.43822
  327     -2.51760    1.41750
  328     -2.42156    1.12388
  329     -2.36231    0.92716
  330     -2.22813    0.52212
  331     -2.21498    0.48901
  332     -2.19021    0.43060
  333     -2.18922    0.42836
  334     -2.18777    0.42511
  335     -2.18540    0.41986
  336     -2.10864    0.27479
  337     -2.05038    0.19497
  338     -1.94564    0.10198
  339     -1.94515    0.10167
  340     -1.92246    0.08803
  341     -1.75898    0.03049
  342     -1.75575    0.02985
  343     -1.74084    0.02706
  344     -1.71517    0.02286
  345     -1.67033    0.01700
  346     -1.65276    0.01514
  347     -1.64927    0.01479
  348     -1.64350    0.01424
  349     -1.64270    0.01416
  350     -1.62940    0.01297
  351     -1.62187    0.01234
  352     -1.61313    0.01164
  353     -1.60892    0.01132
  354     -1.60364    0.01093
  355     -1.59053    0.01002
  356     -1.58985    0.00998
  357     -1.58502    0.00966
  358     -1.53517    0.00694
  359     -1.41914    0.00321
  360     -1.41417    0.00310
  361     -1.37238    0.00235
  362     -1.34876    0.00201
  363     -1.31479    0.00160
  364     -1.27380    0.00122

Fermi level: -2.38420

Gap: 0.059 eV
Transition (v -> c):
  (s=0, k=0, n=328, [0.00, 0.00, 0.00]) -> (s=0, k=0, n=329, [0.00, 0.00, 0.00])
No difference between direct/indirect transitions

Forces in eV/Ang:
  0 K    -0.00005   -0.00011   -0.02793
  1 K    -0.00546    0.00515   -0.03423
  2 K    -0.00108   -0.00538   -0.00697
  3 K    -0.00325    0.00170   -0.00017
  4 K     0.00687    0.00020    0.01533
  5 K     0.01946   -0.00662    0.01303
  6 K    -0.01234   -0.00084    0.04259
  7 K     0.00564    0.00203    0.01655
  8 K    -0.00027    0.00026   -0.02929
  9 K     0.00273   -0.00137   -0.02492
 10 K    -0.01660   -0.00143   -0.02000
 11 K    -0.00093   -0.00051    0.01097
 12 K    -0.00379    0.00129    0.02247
 13 K    -0.00684   -0.00046    0.02614
 14 K     0.00315   -0.01192    0.02969
 15 K     0.00459   -0.00231    0.03171
 16 K    -0.00146   -0.00017   -0.02886
 17 K    -0.00655   -0.00379   -0.03181
 18 K    -0.00855    0.00691   -0.00027
 19 K    -0.00191   -0.00125    0.00171
 20 K    -0.00545   -0.00119    0.01909
 21 K    -0.01139    0.00687    0.01432
 22 K     0.00249    0.00515    0.02730
 23 K     0.00457   -0.00066    0.01459
 24 K    -0.00392    0.00080   -0.02532
 25 K    -0.00036   -0.00016   -0.03004
 26 K     0.00630   -0.00516   -0.00207
 27 K     0.01160    0.01124   -0.00765
 28 K    -0.00903    0.02883    0.02250
 29 K    -0.02069    0.01310    0.00863
 30 K    -0.00956    0.00750    0.03826
 31 K     0.03155    0.02246   -0.03910
 32 K     0.00579   -0.00668   -0.03120
 33 K     0.00109   -0.00082   -0.02627
 34 K     0.00602    0.00427   -0.00756
 35 K    -0.00499    0.03486   -0.04243
 36 K     0.00430   -0.02571    0.02515
 37 K     0.01098   -0.00080    0.02160
 38 K    -0.00591   -0.00648    0.02253
 39 K    -0.00216   -0.00663    0.02186
 40 K     0.00632    0.00589   -0.03048
 41 K     0.00075    0.00097   -0.02829
 42 K    -0.00137    0.00104    0.01095
 43 K     0.01122   -0.04618   -0.05261
 44 K     0.00285   -0.00082    0.01864
 45 K     0.00623    0.00074    0.02262
 46 K    -0.01034   -0.00008    0.02206
 47 K    -0.00150    0.01461    0.03524
 48 K     0.00415   -0.00039   -0.02676
 49 K     0.00572    0.00538   -0.03246
 50 K    -0.00516   -0.00074    0.00664
 51 K    -0.00837    0.01136   -0.00244
 52 K     0.00038   -0.00236    0.01575
 53 K    -0.00130   -0.00212    0.01141
 54 K     0.00042    0.00001    0.02114
 55 K    -0.00707    0.00321    0.02679
 56 K    -0.00529   -0.00487   -0.03349
 57 K    -0.00430    0.00071   -0.02846
 58 K     0.01035   -0.01070   -0.00164
 59 K     0.00573   -0.00003    0.00855
 60 K     0.00512    0.00213    0.00969
 61 K     0.00027    0.00115    0.00874
 62 K     0.00799   -0.00562    0.02762
 63 K    -0.00420   -0.00644    0.02445
 64 K    -0.00422    0.00523   -0.03436
 65 K     0.00538   -0.00610   -0.03451
 66 K     0.01012    0.01148   -0.00070
 67 K    -0.00955   -0.01157   -0.00065
 68 K     0.00455   -0.00342    0.00999
 69 K    -0.00213    0.00258    0.01127
 70 K     0.00759    0.00573    0.02722
 71 K    -0.01292    0.00135    0.03057
 72 K    -0.00526   -0.01197    0.03671

System changes: positions 

Initializing position-dependent things.

Density initialized from wave functions
           .------------------------------------------------------.  
          /|                                                      |  
         / |                                                      |  
        /  |                                                      |  
       /   |                                                      |  
      /    |                                                      |  
     /     |                                                      |  
    /      |                                                      |  
   /       |                                                      |  
  /        |                                                      |  
 *         |                                                      |  
 |         |                                                      |  
 |         |                                                      |  
 |         |                                                      |  
 |       K |                K                 K                   |  
 |         |     K                 K                  K           |  
 |         |                                                      |  
 |    K    |       K    K    K             K    K                 K  
 |         |      K                  K                 K          |  
 |         |  K                 K                 K               |  
 | K       |              K            K    K                  K  |  
 |         |         K                                            |  
 |        K|   K            K     K            K    K             |  
 |       K |                K            K    K            K      |  
 |         |           K                                          |  
 |         |K    K            K    K             K   K            |  
 |    K    |            K                  K                      |  
 |         |       K                 K                 K          |  
 |         | K                  K                 K               |  
 |      K  |              K                 K                     |  
 | K       |         K                 K                          |  
 |        K|   K             K   K             K    K             |  
 |  K      |           K                 K                        |  
 |         |                                                      |  
 |         |K                 K                  K                |  
 |         |                                                      |  
 K         |       K                  K                           |  
 |         |                                                      |  
 |         .------------------------------------------------------.  
 |        /                                                      /   
 |       /                                                      /    
 |      /                                                      /     
 |     /                                                      /      
 |    /                                                      /       
 |   /                                                      /        
 |  /                                                      /         
 | /                                                      /          
 |/                                                      /           
 *------------------------------------------------------*            

Atomic positions and initial magnetic moments

Positions:
   0 K      0.000000    0.000000   10.000000    ( 0.0000,  0.0000,  0.0000)
   1 K      3.698168    2.615000   10.000000    ( 0.0000,  0.0000,  0.0000)
   2 K      3.698168    0.000000   13.698168    ( 0.0000,  0.0000,  0.0000)
   3 K      0.000000    2.615000   13.698168    ( 0.0000,  0.0000,  0.0000)
   4 K     -0.009810   -0.002939   17.403946    ( 0.0000,  0.0000,  0.0000)
   5 K      3.652377    2.650408   17.346118    ( 0.0000,  0.0000,  0.0000)
   6 K      3.760651    0.049533   21.095991    ( 0.0000,  0.0000,  0.0000)
   7 K      0.012144    2.602390   21.191022    ( 0.0000,  0.0000,  0.0000)
   8 K      0.000000    5.230000   10.000000    ( 0.0000,  0.0000,  0.0000)
   9 K      3.698168    7.845000   10.000000    ( 0.0000,  0.0000,  0.0000)
  10 K      3.698168    5.230000   13.698168    ( 0.0000,  0.0000,  0.0000)
  11 K      0.000000    7.845000   13.698168    ( 0.0000,  0.0000,  0.0000)
  12 K     -0.005175    5.235255   17.422863    ( 0.0000,  0.0000,  0.0000)
  13 K      3.693857    7.838532   17.430595    ( 0.0000,  0.0000,  0.0000)
  14 K      3.754156    5.167995   21.241719    ( 0.0000,  0.0000,  0.0000)
  15 K      0.006553    7.838839   21.164772    ( 0.0000,  0.0000,  0.0000)
  16 K      0.000000   10.460000   10.000000    ( 0.0000,  0.0000,  0.0000)
  17 K      3.698168   13.075000   10.000000    ( 0.0000,  0.0000,  0.0000)
  18 K      3.698168   10.460000   13.698168    ( 0.0000,  0.0000,  0.0000)
  19 K      0.000000   13.075000   13.698168    ( 0.0000,  0.0000,  0.0000)
  20 K     -0.002209   10.457799   17.415117    ( 0.0000,  0.0000,  0.0000)
  21 K      3.671428   13.043954   17.401524    ( 0.0000,  0.0000,  0.0000)
  22 K      3.699312   10.467949   21.179206    ( 0.0000,  0.0000,  0.0000)
  23 K      0.014143   13.092522   21.191035    ( 0.0000,  0.0000,  0.0000)
  24 K      7.396337    0.000000   10.000000    ( 0.0000,  0.0000,  0.0000)
  25 K     11.094505    2.615000   10.000000    ( 0.0000,  0.0000,  0.0000)
  26 K     11.094505    0.000000   13.698168    ( 0.0000,  0.0000,  0.0000)
  27 K      7.396337    2.615000   13.698168    ( 0.0000,  0.0000,  0.0000)
  28 K      7.395130   -0.193641   17.206639    ( 0.0000,  0.0000,  0.0000)
  29 K     11.142232    2.613028   17.378362    ( 0.0000,  0.0000,  0.0000)
  30 K     11.037769    0.053553   21.234680    ( 0.0000,  0.0000,  0.0000)
  31 K      7.402220    2.617197   20.410046    ( 0.0000,  0.0000,  0.0000)
  32 K      7.396337    5.230000   10.000000    ( 0.0000,  0.0000,  0.0000)
  33 K     11.094505    7.845000   10.000000    ( 0.0000,  0.0000,  0.0000)
  34 K     11.094505    5.230000   13.698168    ( 0.0000,  0.0000,  0.0000)
  35 K      7.396337    7.845000   13.698168    ( 0.0000,  0.0000,  0.0000)
  36 K      7.399703    5.416563   17.209022    ( 0.0000,  0.0000,  0.0000)
  37 K     11.109774    7.840618   17.421954    ( 0.0000,  0.0000,  0.0000)
  38 K     11.041172    5.193418   21.235965    ( 0.0000,  0.0000,  0.0000)
  39 K      7.389911    7.795912   21.216789    ( 0.0000,  0.0000,  0.0000)
  40 K      7.396337   10.460000   10.000000    ( 0.0000,  0.0000,  0.0000)
  41 K     11.094505   13.075000   10.000000    ( 0.0000,  0.0000,  0.0000)
  42 K     11.094505   10.460000   13.698168    ( 0.0000,  0.0000,  0.0000)
  43 K      7.396337   13.075000   13.698168    ( 0.0000,  0.0000,  0.0000)
  44 K      7.406902   10.468887   17.439725    ( 0.0000,  0.0000,  0.0000)
  45 K     11.113878   13.083036   17.432402    ( 0.0000,  0.0000,  0.0000)
  46 K     11.088801   10.453668   21.182331    ( 0.0000,  0.0000,  0.0000)
  47 K      7.388823   13.127934   21.225457    ( 0.0000,  0.0000,  0.0000)
  48 K     14.792674    0.000000   10.000000    ( 0.0000,  0.0000,  0.0000)
  49 K     18.490842    2.615000   10.000000    ( 0.0000,  0.0000,  0.0000)
  50 K     18.490842    0.000000   13.698168    ( 0.0000,  0.0000,  0.0000)
  51 K     14.792674    2.615000   13.698168    ( 0.0000,  0.0000,  0.0000)
  52 K     14.808129   -0.004615   17.418059    ( 0.0000,  0.0000,  0.0000)
  53 K     18.499286    2.623137   17.425346    ( 0.0000,  0.0000,  0.0000)
  54 K     18.480848    0.000956   21.179990    ( 0.0000,  0.0000,  0.0000)
  55 K     14.784625    2.616479   21.170798    ( 0.0000,  0.0000,  0.0000)
  56 K     14.792674    5.230000   10.000000    ( 0.0000,  0.0000,  0.0000)
  57 K     18.490842    7.845000   10.000000    ( 0.0000,  0.0000,  0.0000)
  58 K     18.490842    5.230000   13.698168    ( 0.0000,  0.0000,  0.0000)
  59 K     14.792674    7.845000   13.698168    ( 0.0000,  0.0000,  0.0000)
  60 K     14.788004    5.224845   17.427391    ( 0.0000,  0.0000,  0.0000)
  61 K     18.479606    7.846234   17.408764    ( 0.0000,  0.0000,  0.0000)
  62 K     18.494882    5.227004   21.172059    ( 0.0000,  0.0000,  0.0000)
  63 K     14.796844    7.838732   21.178063    ( 0.0000,  0.0000,  0.0000)
  64 K     14.792674   10.460000   10.000000    ( 0.0000,  0.0000,  0.0000)
  65 K     18.490842   13.075000   10.000000    ( 0.0000,  0.0000,  0.0000)
  66 K     18.490842   10.460000   13.698168    ( 0.0000,  0.0000,  0.0000)
  67 K     14.792674   13.075000   13.698168    ( 0.0000,  0.0000,  0.0000)
  68 K     14.785288   10.467814   17.421635    ( 0.0000,  0.0000,  0.0000)
  69 K     18.499608   13.066117   17.420294    ( 0.0000,  0.0000,  0.0000)
  70 K     18.495502   10.462830   21.173047    ( 0.0000,  0.0000,  0.0000)
  71 K     14.781565   13.079134   21.170725    ( 0.0000,  0.0000,  0.0000)
  72 K      6.786270    2.185056   24.318108    ( 0.0000,  0.0000,  0.0000)

Unit cell:
           periodic     x           y           z      points  spacing
  1. axis:    yes   22.189011    0.000000    0.000000   112     0.1981
  2. axis:    yes    0.000000   15.690000    0.000000    80     0.1961
  3. axis:    no     0.000000    0.000000   31.094505   156     0.1993

  Lengths:  22.189011  15.690000  31.094505
  Angles:   90.000000  90.000000  90.000000

Effective grid spacing dv^(1/3) = 0.1979

     iter     time        total  log10-change:
                         energy   eigst   dens
iter:   1 01:15:05   -61.502105        c
iter:   2 01:16:02   -61.501885        c -3.65
iter:   3 01:16:51   -61.501921c       c -3.93
iter:   4 01:17:38   -61.501966c       c -4.07c

Converged after 4 iterations.

Dipole moment: (-90.188120, -51.848098, 0.443413) |e|*Ang

Energy contributions relative to reference atoms: (reference = -1195904.484944)

Kinetic:       +121.534012
Potential:     -104.666946
External:        +0.000000
XC:             -78.774014
Entropy (-ST):   -3.804209
Local:           +2.307085
SIC:             +0.000000
--------------------------
Free energy:    -63.404071
Extrapolated:   -61.501966

 Band  Eigenvalues  Occupancy
    0    -35.25112    2.00000
    1    -34.76728    2.00000
    2    -34.76464    2.00000
    3    -34.76215    2.00000
    4    -34.75986    2.00000
    5    -34.75909    2.00000
    6    -34.75715    2.00000
    7    -34.75710    2.00000
    8    -34.75677    2.00000
    9    -34.75648    2.00000
   10    -34.75559    2.00000
   11    -34.75516    2.00000
   12    -34.75469    2.00000
   13    -34.75441    2.00000
   14    -34.75381    2.00000
   15    -34.75373    2.00000
   16    -34.75327    2.00000
   17    -34.75302    2.00000
   18    -34.75258    2.00000
   19    -34.75184    2.00000
   20    -34.75176    2.00000
   21    -34.75146    2.00000
   22    -34.75134    2.00000
   23    -34.75118    2.00000
   24    -34.75110    2.00000
   25    -34.75074    2.00000
   26    -34.75033    2.00000
   27    -34.75025    2.00000
   28    -34.74948    2.00000
   29    -34.74907    2.00000
   30    -34.74583    2.00000
   31    -34.74502    2.00000
   32    -34.74321    2.00000
   33    -34.74291    2.00000
   34    -34.72661    2.00000
   35    -34.69129    2.00000
   36    -34.64718    2.00000
   37    -34.61397    2.00000
   38    -34.60958    2.00000
   39    -34.60810    2.00000
   40    -34.60697    2.00000
   41    -34.60641    2.00000
   42    -34.60485    2.00000
   43    -34.60439    2.00000
   44    -34.60370    2.00000
   45    -34.60355    2.00000
   46    -34.60291    2.00000
   47    -34.60268    2.00000
   48    -34.60193    2.00000
   49    -34.60164    2.00000
   50    -34.60143    2.00000
   51    -34.60114    2.00000
   52    -34.60052    2.00000
   53    -34.60027    2.00000
   54    -34.59917    2.00000
   55    -34.59873    2.00000
   56    -34.59821    2.00000
   57    -34.59649    2.00000
   58    -34.59587    2.00000
   59    -34.59543    2.00000
   60    -34.59512    2.00000
   61    -34.59485    2.00000
   62    -34.59467    2.00000
   63    -34.59441    2.00000
   64    -34.59360    2.00000
   65    -34.59336    2.00000
   66    -34.59300    2.00000
   67    -34.59250    2.00000
   68    -34.59180    2.00000
   69    -34.59129    2.00000
   70    -34.59105    2.00000
   71    -34.58322    2.00000
   72    -34.58276    2.00000
   73    -18.75008    2.00000
   74    -18.71755    2.00000
   75    -18.71331    2.00000
   76    -18.27128    2.00000
   77    -18.26748    2.00000
   78    -18.26269    2.00000
   79    -18.26233    2.00000
   80    -18.26186    2.00000
   81    -18.26174    2.00000
   82    -18.25958    2.00000
   83    -18.25952    2.00000
   84    -18.25942    2.00000
   85    -18.25804    2.00000
   86    -18.25692    2.00000
   87    -18.25672    2.00000
   88    -18.25665    2.00000
   89    -18.25612    2.00000
   90    -18.25599    2.00000
   91    -18.25534    2.00000
   92    -18.25520    2.00000
   93    -18.25478    2.00000
   94    -18.25453    2.00000
   95    -18.25383    2.00000
   96    -18.25366    2.00000
   97    -18.25295    2.00000
   98    -18.25275    2.00000
   99    -18.25250    2.00000
  100    -18.25216    2.00000
  101    -18.25186    2.00000
  102    -18.25171    2.00000
  103    -18.25147    2.00000
  104    -18.25104    2.00000
  105    -18.25091    2.00000
  106    -18.25070    2.00000
  107    -18.24997    2.00000
  108    -18.24973    2.00000
  109    -18.24963    2.00000
  110    -18.24931    2.00000
  111    -18.24872    2.00000
  112    -18.24834    2.00000
  113    -18.24807    2.00000
  114    -18.24801    2.00000
  115    -18.24758    2.00000
  116    -18.24735    2.00000
  117    -18.24728    2.00000
  118    -18.24719    2.00000
  119    -18.24713    2.00000
  120    -18.24650    2.00000
  121    -18.24644    2.00000
  122    -18.24643    2.00000
  123    -18.24566    2.00000
  124    -18.24559    2.00000
  125    -18.24454    2.00000
  126    -18.24422    2.00000
  127    -18.24397    2.00000
  128    -18.24374    2.00000
  129    -18.24269    2.00000
  130    -18.24163    2.00000
  131    -18.24151    2.00000
  132    -18.23972    2.00000
  133    -18.23947    2.00000
  134    -18.23719    2.00000
  135    -18.23575    2.00000
  136    -18.23514    2.00000
  137    -18.23435    2.00000
  138    -18.23422    2.00000
  139    -18.23153    2.00000
  140    -18.23003    2.00000
  141    -18.22816    2.00000
  142    -18.22748    2.00000
  143    -18.22732    2.00000
  144    -18.22676    2.00000
  145    -18.22557    2.00000
  146    -18.22516    2.00000
  147    -18.22484    2.00000
  148    -18.22375    2.00000
  149    -18.22292    2.00000
  150    -18.22253    2.00000
  151    -18.22182    2.00000
  152    -18.22096    2.00000
  153    -18.22002    2.00000
  154    -18.21923    2.00000
  155    -18.21852    2.00000
  156    -18.21829    2.00000
  157    -18.21810    2.00000
  158    -18.21712    2.00000
  159    -18.21706    2.00000
  160    -18.21648    2.00000
  161    -18.21606    2.00000
  162    -18.21541    2.00000
  163    -18.21457    2.00000
  164    -18.21399    2.00000
  165    -18.21380    2.00000
  166    -18.21350    2.00000
  167    -18.21114    2.00000
  168    -18.21037    2.00000
  169    -18.20934    2.00000
  170    -18.20864    2.00000
  171    -18.20666    2.00000
  172    -18.20580    2.00000
  173    -18.20498    2.00000
  174    -18.20443    2.00000
  175    -18.20286    2.00000
  176    -18.20240    2.00000
  177    -18.19710    2.00000
  178    -18.18799    2.00000
  179    -18.17235    2.00000
  180    -18.16866    2.00000
  181    -18.16496    2.00000
  182    -18.14702    2.00000
  183    -18.12843    2.00000
  184    -18.12520    2.00000
  185    -18.12449    2.00000
  186    -18.12086    2.00000
  187    -18.11995    2.00000
  188    -18.11858    2.00000
  189    -18.11837    2.00000
  190    -18.11811    2.00000
  191    -18.11747    2.00000
  192    -18.11638    2.00000
  193    -18.11382    2.00000
  194    -18.11374    2.00000
  195    -18.11333    2.00000
  196    -18.11273    2.00000
  197    -18.11115    2.00000
  198    -18.11067    2.00000
  199    -18.11025    2.00000
  200    -18.10924    2.00000
  201    -18.10756    2.00000
  202    -18.10690    2.00000
  203    -18.10646    2.00000
  204    -18.10605    2.00000
  205    -18.10590    2.00000
  206    -18.10554    2.00000
  207    -18.10533    2.00000
  208    -18.10393    2.00000
  209    -18.10376    2.00000
  210    -18.10104    2.00000
  211    -18.10081    2.00000
  212    -18.10053    2.00000
  213    -18.09978    2.00000
  214    -18.09924    2.00000
  215    -18.09863    2.00000
  216    -18.09844    2.00000
  217    -18.09801    2.00000
  218    -18.09791    2.00000
  219    -18.09749    2.00000
  220    -18.09505    2.00000
  221    -18.09423    2.00000
  222    -18.09368    2.00000
  223    -18.09228    2.00000
  224    -18.09104    2.00000
  225    -18.09060    2.00000
  226    -18.08978    2.00000
  227    -18.08768    2.00000
  228    -18.08640    2.00000
  229    -18.08576    2.00000
  230    -18.08510    2.00000
  231    -18.08477    2.00000
  232    -18.08428    2.00000
  233    -18.08360    2.00000
  234    -18.08335    2.00000
  235    -18.08312    2.00000
  236    -18.08263    2.00000
  237    -18.08229    2.00000
  238    -18.08199    2.00000
  239    -18.08052    2.00000
  240    -18.08018    2.00000
  241    -18.07919    2.00000
  242    -18.07821    2.00000
  243    -18.07793    2.00000
  244    -18.07723    2.00000
  245    -18.07642    2.00000
  246    -18.07601    2.00000
  247    -18.07580    2.00000
  248    -18.07549    2.00000
  249    -18.07485    2.00000
  250    -18.07466    2.00000
  251    -18.07431    2.00000
  252    -18.07416    2.00000
  253    -18.07311    2.00000
  254    -18.07284    2.00000
  255    -18.07248    2.00000
  256    -18.07237    2.00000
  257    -18.07088    2.00000
  258    -18.07060    2.00000
  259    -18.07017    2.00000
  260    -18.06969    2.00000
  261    -18.06949    2.00000
  262    -18.06927    2.00000
  263    -18.06861    2.00000
  264    -18.06844    2.00000
  265    -18.06836    2.00000
  266    -18.06810    2.00000
  267    -18.06678    2.00000
  268    -18.06637    2.00000
  269    -18.06630    2.00000
  270    -18.06614    2.00000
  271    -18.06590    2.00000
  272    -18.06481    2.00000
  273    -18.06457    2.00000
  274    -18.06439    2.00000
  275    -18.06429    2.00000
  276    -18.06371    2.00000
  277    -18.06309    2.00000
  278    -18.06288    2.00000
  279    -18.06141    2.00000
  280    -18.06046    2.00000
  281    -18.06021    2.00000
  282    -18.05993    2.00000
  283    -18.05951    2.00000
  284    -18.05941    2.00000
  285    -18.05900    2.00000
  286    -18.05850    2.00000
  287    -18.05772    2.00000
  288    -18.05645    2.00000
  289    -18.05542    2.00000
  290    -18.05485    2.00000
  291    -18.05374    2.00000
  292     -4.53833    2.00000
  293     -4.19520    1.99999
  294     -4.18405    1.99999
  295     -4.14858    1.99998
  296     -3.85013    1.99989
  297     -3.84981    1.99989
  298     -3.81347    1.99986
  299     -3.79842    1.99984
  300     -3.53567    1.99908
  301     -3.52145    1.99899
  302     -3.51100    1.99892
  303     -3.50960    1.99891
  304     -3.50685    1.99889
  305     -3.47150    1.99860
  306     -3.46310    1.99852
  307     -3.21542    1.99229
  308     -3.18996    1.99087
  309     -3.18463    1.99054
  310     -3.17290    1.98977
  311     -3.14525    1.98772
  312     -3.14038    1.98731
  313     -3.13694    1.98702
  314     -3.13038    1.98644
  315     -2.87965    1.92994
  316     -2.84652    1.91337
  317     -2.81948    1.89713
  318     -2.81741    1.89578
  319     -2.72720    1.81767
  320     -2.56663    1.54729
  321     -2.54644    1.49843
  322     -2.54176    1.48659
  323     -2.54145    1.48581
  324     -2.53960    1.48108
  325     -2.53346    1.46520
  326     -2.52350    1.43878
  327     -2.51595    1.41824
  328     -2.41990    1.12476
  329     -2.36064    0.92800
  330     -2.22636    0.52250
  331     -2.21315    0.48922
  332     -2.18793    0.42979
  333     -2.18688    0.42743
  334     -2.18527    0.42383
  335     -2.18291    0.41861
  336     -2.10697    0.27519
  337     -2.04870    0.19526
  338     -1.94363    0.10193
  339     -1.94315    0.10162
  340     -1.92086    0.08821
  341     -1.75722    0.03052
  342     -1.75405    0.02989
  343     -1.73912    0.02710
  344     -1.71353    0.02290
  345     -1.66833    0.01699
  346     -1.65079    0.01513
  347     -1.64733    0.01479
  348     -1.64146    0.01422
  349     -1.64066    0.01415
  350     -1.62776    0.01299
  351     -1.62014    0.01235
  352     -1.61135    0.01165
  353     -1.60702    0.01132
  354     -1.60194    0.01095
  355     -1.58864    0.01002
  356     -1.58746    0.00995
  357     -1.58281    0.00964
  358     -1.53362    0.00696
  359     -1.41761    0.00322
  360     -1.41256    0.00311
  361     -1.36988    0.00234
  362     -1.34719    0.00201
  363     -1.31315    0.00160
  364     -1.27137    0.00121

Fermi level: -2.38228

Gap: 0.059 eV
Transition (v -> c):
  (s=0, k=0, n=328, [0.00, 0.00, 0.00]) -> (s=0, k=0, n=329, [0.00, 0.00, 0.00])
No difference between direct/indirect transitions

Forces in eV/Ang:
  0 K    -0.00019   -0.00052   -0.02447
  1 K    -0.00559    0.00515   -0.02953
  2 K    -0.00104   -0.00491   -0.01085
  3 K    -0.00251    0.00159   -0.00303
  4 K     0.00582    0.00029    0.01778
  5 K     0.01847   -0.00632    0.01564
  6 K    -0.01101   -0.00030    0.04174
  7 K     0.00571    0.00199    0.01442
  8 K    -0.00062    0.00083   -0.02599
  9 K     0.00208   -0.00147   -0.02128
 10 K    -0.01654   -0.00202   -0.02362
 11 K    -0.00033   -0.00099    0.00751
 12 K    -0.00404    0.00121    0.02528
 13 K    -0.00674    0.00037    0.02859
 14 K     0.00390   -0.01195    0.02796
 15 K     0.00444   -0.00188    0.02902
 16 K    -0.00241   -0.00033   -0.02626
 17 K    -0.00704   -0.00370   -0.02794
 18 K    -0.00829    0.00704   -0.00287
 19 K    -0.00121   -0.00065   -0.00155
 20 K    -0.00489   -0.00123    0.02317
 21 K    -0.01125    0.00572    0.01686
 22 K     0.00275    0.00501    0.02498
 23 K     0.00428   -0.00101    0.01208
 24 K    -0.00385    0.00094   -0.02056
 25 K    -0.00031   -0.00014   -0.02566
 26 K     0.00595   -0.00466   -0.00552
 27 K     0.01167    0.01112   -0.01221
 28 K    -0.00864    0.02769    0.02473
 29 K    -0.01948    0.01301    0.01131
 30 K    -0.01021    0.00759    0.03646
 31 K     0.03050    0.02172   -0.03565
 32 K     0.00587   -0.00692   -0.02668
 33 K     0.00189   -0.00067   -0.02290
 34 K     0.00568    0.00368   -0.01100
 35 K    -0.00498    0.03455   -0.04517
 36 K     0.00405   -0.02331    0.02680
 37 K     0.01113   -0.00029    0.02472
 38 K    -0.00639   -0.00644    0.02048
 39 K    -0.00233   -0.00699    0.01996
 40 K     0.00655    0.00597   -0.02672
 41 K     0.00138    0.00081   -0.02467
 42 K    -0.00178    0.00120    0.00802
 43 K     0.01122   -0.04573   -0.05574
 44 K     0.00289   -0.00106    0.02093
 45 K     0.00615    0.00022    0.02522
 46 K    -0.01059   -0.00018    0.01935
 47 K    -0.00176    0.01524    0.03324
 48 K     0.00422   -0.00109   -0.02371
 49 K     0.00579    0.00566   -0.02967
 50 K    -0.00485   -0.00039    0.00381
 51 K    -0.00920    0.01124   -0.00512
 52 K     0.00079   -0.00180    0.01912
 53 K    -0.00133   -0.00226    0.01484
 54 K     0.00021   -0.00014    0.01751
 55 K    -0.00682    0.00316    0.02391
 56 K    -0.00502   -0.00399   -0.03059
 57 K    -0.00446    0.00144   -0.02622
 58 K     0.01065   -0.01109   -0.00492
 59 K     0.00513   -0.00037    0.00459
 60 K     0.00530    0.00151    0.01306
 61 K     0.00049    0.00059    0.01348
 62 K     0.00766   -0.00540    0.02442
 63 K    -0.00395   -0.00622    0.02122
 64 K    -0.00350    0.00505   -0.03197
 65 K     0.00524   -0.00712   -0.03219
 66 K     0.01025    0.01153   -0.00528
 67 K    -0.01025   -0.01114   -0.00430
 68 K     0.00392   -0.00318    0.01426
 69 K    -0.00185    0.00327    0.01566
 70 K     0.00747    0.00562    0.02424
 71 K    -0.01254    0.00118    0.02779
 72 K    -0.00498   -0.01213    0.03368

System changes: positions 

Initializing position-dependent things.

Density initialized from wave functions
           .------------------------------------------------------.  
          /|                                                      |  
         / |                                                      |  
        /  |                                                      |  
       /   |                                                      |  
      /    |                                                      |  
     /     |                                                      |  
    /      |                                                      |  
   /       |                                                      |  
  /        |                                                      |  
 *         |                                                      |  
 |         |                                                      |  
 |         |                                                      |  
[...]

Converged after 3 iterations.

Dipole moment: (-90.313869, -52.033471, 0.443159) |e|*Ang

Energy contributions relative to reference atoms: (reference = -1195904.484944)

Kinetic:       +121.101658
Potential:     -104.286006
External:        +0.000000
XC:             -78.728188
Entropy (-ST):   -3.804921
Local:           +2.311458
SIC:             +0.000000
--------------------------
Free energy:    -63.405999
Extrapolated:   -61.503538

 Band  Eigenvalues  Occupancy
    0    -35.25091    2.00000
    1    -34.76601    2.00000
    2    -34.76359    2.00000
    3    -34.76233    2.00000
    4    -34.75894    2.00000
    5    -34.75843    2.00000
    6    -34.75664    2.00000
    7    -34.75649    2.00000
    8    -34.75616    2.00000
    9    -34.75598    2.00000
   10    -34.75529    2.00000
   11    -34.75485    2.00000
   12    -34.75418    2.00000
   13    -34.75400    2.00000
   14    -34.75346    2.00000
   15    -34.75317    2.00000
   16    -34.75284    2.00000
   17    -34.75239    2.00000
   18    -34.75179    2.00000
   19    -34.75125    2.00000
   20    -34.75108    2.00000
   21    -34.75083    2.00000
   22    -34.75070    2.00000
   23    -34.75065    2.00000
   24    -34.75008    2.00000
   25    -34.74976    2.00000
   26    -34.74925    2.00000
   27    -34.74917    2.00000
   28    -34.74900    2.00000
   29    -34.74785    2.00000
   30    -34.74422    2.00000
   31    -34.74345    2.00000
   32    -34.74235    2.00000
   33    -34.74112    2.00000
   34    -34.72563    2.00000
   35    -34.69025    2.00000
   36    -34.64540    2.00000
   37    -34.61294    2.00000
   38    -34.60851    2.00000
   39    -34.60690    2.00000
   40    -34.60573    2.00000
   41    -34.60511    2.00000
   42    -34.60374    2.00000
   43    -34.60334    2.00000
   44    -34.60288    2.00000
   45    -34.60261    2.00000
   46    -34.60201    2.00000
   47    -34.60177    2.00000
   48    -34.60109    2.00000
   49    -34.60086    2.00000
   50    -34.60068    2.00000
   51    -34.60025    2.00000
   52    -34.59929    2.00000
   53    -34.59897    2.00000
   54    -34.59862    2.00000
   55    -34.59794    2.00000
   56    -34.59692    2.00000
   57    -34.59599    2.00000
   58    -34.59465    2.00000
   59    -34.59449    2.00000
   60    -34.59389    2.00000
   61    -34.59353    2.00000
   62    -34.59345    2.00000
   63    -34.59306    2.00000
   64    -34.59238    2.00000
   65    -34.59197    2.00000
   66    -34.59157    2.00000
   67    -34.59093    2.00000
   68    -34.59027    2.00000
   69    -34.58971    2.00000
   70    -34.58939    2.00000
   71    -34.58201    2.00000
   72    -34.58167    2.00000
   73    -18.74937    2.00000
   74    -18.71739    2.00000
   75    -18.71315    2.00000
   76    -18.27028    2.00000
   77    -18.26694    2.00000
   78    -18.26192    2.00000
   79    -18.26179    2.00000
   80    -18.26128    2.00000
   81    -18.26086    2.00000
   82    -18.25907    2.00000
   83    -18.25891    2.00000
   84    -18.25842    2.00000
   85    -18.25737    2.00000
   86    -18.25629    2.00000
   87    -18.25600    2.00000
   88    -18.25588    2.00000
   89    -18.25557    2.00000
   90    -18.25544    2.00000
   91    -18.25462    2.00000
   92    -18.25458    2.00000
   93    -18.25431    2.00000
   94    -18.25395    2.00000
   95    -18.25323    2.00000
   96    -18.25298    2.00000
   97    -18.25228    2.00000
   98    -18.25193    2.00000
   99    -18.25169    2.00000
  100    -18.25162    2.00000
  101    -18.25128    2.00000
  102    -18.25112    2.00000
  103    -18.25082    2.00000
  104    -18.25041    2.00000
  105    -18.25025    2.00000
  106    -18.24991    2.00000
  107    -18.24929    2.00000
  108    -18.24913    2.00000
  109    -18.24877    2.00000
  110    -18.24875    2.00000
  111    -18.24782    2.00000
  112    -18.24741    2.00000
  113    -18.24738    2.00000
  114    -18.24709    2.00000
  115    -18.24681    2.00000
  116    -18.24661    2.00000
  117    -18.24646    2.00000
  118    -18.24622    2.00000
  119    -18.24612    2.00000
  120    -18.24606    2.00000
  121    -18.24570    2.00000
  122    -18.24543    2.00000
  123    -18.24484    2.00000
  124    -18.24471    2.00000
  125    -18.24365    2.00000
  126    -18.24350    2.00000
  127    -18.24271    2.00000
  128    -18.24245    2.00000
  129    -18.24169    2.00000
  130    -18.24079    2.00000
  131    -18.24007    2.00000
  132    -18.23860    2.00000
  133    -18.23800    2.00000
  134    -18.23658    2.00000
  135    -18.23489    2.00000
  136    -18.23430    2.00000
  137    -18.23360    2.00000
  138    -18.23357    2.00000
  139    -18.23093    2.00000
  140    -18.22927    2.00000
  141    -18.22743    2.00000
  142    -18.22665    2.00000
  143    -18.22657    2.00000
  144    -18.22592    2.00000
  145    -18.22460    2.00000
  146    -18.22442    2.00000
  147    -18.22410    2.00000
  148    -18.22298    2.00000
  149    -18.22236    2.00000
  150    -18.22178    2.00000
  151    -18.22103    2.00000
  152    -18.22021    2.00000
  153    -18.21915    2.00000
  154    -18.21841    2.00000
  155    -18.21773    2.00000
  156    -18.21745    2.00000
  157    -18.21718    2.00000
  158    -18.21649    2.00000
  159    -18.21616    2.00000
  160    -18.21565    2.00000
  161    -18.21522    2.00000
  162    -18.21492    2.00000
  163    -18.21398    2.00000
  164    -18.21333    2.00000
  165    -18.21328    2.00000
  166    -18.21247    2.00000
  167    -18.21055    2.00000
  168    -18.20973    2.00000
  169    -18.20843    2.00000
  170    -18.20773    2.00000
  171    -18.20591    2.00000
  172    -18.20463    2.00000
  173    -18.20371    2.00000
  174    -18.20305    2.00000
  175    -18.20195    2.00000
  176    -18.20117    2.00000
  177    -18.19608    2.00000
  178    -18.18687    2.00000
  179    -18.17129    2.00000
  180    -18.16740    2.00000
  181    -18.16366    2.00000
  182    -18.14585    2.00000
  183    -18.12709    2.00000
  184    -18.12386    2.00000
  185    -18.12299    2.00000
  186    -18.11979    2.00000
  187    -18.11891    2.00000
  188    -18.11756    2.00000
  189    -18.11725    2.00000
  190    -18.11679    2.00000
  191    -18.11621    2.00000
  192    -18.11523    2.00000
  193    -18.11276    2.00000
  194    -18.11259    2.00000
  195    -18.11220    2.00000
  196    -18.11153    2.00000
  197    -18.11019    2.00000
  198    -18.10947    2.00000
  199    -18.10909    2.00000
  200    -18.10816    2.00000
  201    -18.10661    2.00000
  202    -18.10557    2.00000
  203    -18.10535    2.00000
  204    -18.10483    2.00000
  205    -18.10461    2.00000
  206    -18.10432    2.00000
  207    -18.10399    2.00000
  208    -18.10273    2.00000
  209    -18.10267    2.00000
  210    -18.09980    2.00000
  211    -18.09964    2.00000
  212    -18.09941    2.00000
  213    -18.09860    2.00000
  214    -18.09814    2.00000
  215    -18.09735    2.00000
  216    -18.09714    2.00000
  217    -18.09680    2.00000
  218    -18.09672    2.00000
  219    -18.09634    2.00000
  220    -18.09401    2.00000
  221    -18.09310    2.00000
  222    -18.09254    2.00000
  223    -18.09107    2.00000
  224    -18.08987    2.00000
  225    -18.08942    2.00000
  226    -18.08862    2.00000
  227    -18.08647    2.00000
  228    -18.08522    2.00000
  229    -18.08463    2.00000
  230    -18.08399    2.00000
  231    -18.08372    2.00000
  232    -18.08314    2.00000
  233    -18.08251    2.00000
  234    -18.08217    2.00000
  235    -18.08197    2.00000
  236    -18.08154    2.00000
  237    -18.08119    2.00000
  238    -18.08084    2.00000
  239    -18.07939    2.00000
  240    -18.07906    2.00000
  241    -18.07811    2.00000
  242    -18.07712    2.00000
  243    -18.07677    2.00000
  244    -18.07609    2.00000
  245    -18.07529    2.00000
  246    -18.07499    2.00000
  247    -18.07467    2.00000
  248    -18.07457    2.00000
  249    -18.07368    2.00000
  250    -18.07352    2.00000
  251    -18.07315    2.00000
  252    -18.07300    2.00000
  253    -18.07189    2.00000
  254    -18.07163    2.00000
  255    -18.07127    2.00000
  256    -18.07126    2.00000
  257    -18.06971    2.00000
  258    -18.06946    2.00000
  259    -18.06904    2.00000
  260    -18.06834    2.00000
  261    -18.06823    2.00000
  262    -18.06810    2.00000
  263    -18.06755    2.00000
  264    -18.06739    2.00000
  265    -18.06718    2.00000
  266    -18.06673    2.00000
  267    -18.06578    2.00000
  268    -18.06518    2.00000
  269    -18.06506    2.00000
  270    -18.06501    2.00000
  271    -18.06479    2.00000
  272    -18.06381    2.00000
  273    -18.06356    2.00000
  274    -18.06325    2.00000
  275    -18.06319    2.00000
  276    -18.06255    2.00000
  277    -18.06178    2.00000
  278    -18.06169    2.00000
  279    -18.06032    2.00000
  280    -18.05930    2.00000
  281    -18.05880    2.00000
  282    -18.05858    2.00000
  283    -18.05818    2.00000
  284    -18.05807    2.00000
  285    -18.05791    2.00000
  286    -18.05724    2.00000
  287    -18.05654    2.00000
  288    -18.05526    2.00000
  289    -18.05434    2.00000
  290    -18.05352    2.00000
  291    -18.05228    2.00000
  292     -4.53680    2.00000
  293     -4.19370    1.99999
  294     -4.18248    1.99999
  295     -4.14748    1.99998
  296     -3.84872    1.99989
  297     -3.84824    1.99989
  298     -3.81221    1.99986
  299     -3.79732    1.99984
  300     -3.53436    1.99908
  301     -3.51986    1.99899
  302     -3.50951    1.99892
  303     -3.50841    1.99891
  304     -3.50532    1.99889
  305     -3.47038    1.99860
  306     -3.46198    1.99852
  307     -3.21428    1.99228
  308     -3.18845    1.99084
  309     -3.18312    1.99051
  310     -3.17193    1.98978
  311     -3.14410    1.98771
  312     -3.13921    1.98731
  313     -3.13582    1.98702
  314     -3.12928    1.98644
  315     -2.87869    1.92999
  316     -2.84553    1.91342
  317     -2.81836    1.89711
  318     -2.81631    1.89576
  319     -2.72652    1.81811
  320     -2.56558    1.54736
  321     -2.54490    1.49726
  322     -2.54027    1.48556
  323     -2.53991    1.48463
  324     -2.53815    1.48013
  325     -2.53241    1.46527
  326     -2.52249    1.43897
  327     -2.51499    1.41858
  328     -2.41914    1.12581
  329     -2.35993    0.92921
  330     -2.22548    0.52301
  331     -2.21214    0.48940
  332     -2.18681    0.42969
  333     -2.18577    0.42736
  334     -2.18410    0.42364
  335     -2.18178    0.41850
  336     -2.10629    0.27583
  337     -2.04797    0.19567
  338     -1.94208    0.10163
  339     -1.94163    0.10134
  340     -1.92021    0.08844
  341     -1.75637    0.03057
  342     -1.75329    0.02996
  343     -1.73838    0.02716
  344     -1.71284    0.02296
  345     -1.66678    0.01694
  346     -1.64929    0.01509
  347     -1.64590    0.01475
  348     -1.63990    0.01418
  349     -1.63911    0.01411
  350     -1.62701    0.01302
  351     -1.61913    0.01236
  352     -1.61036    0.01166
  353     -1.60566    0.01130
  354     -1.60092    0.01095
  355     -1.58773    0.01003
  356     -1.58633    0.00994
  357     -1.58176    0.00965
  358     -1.53297    0.00698
  359     -1.41703    0.00323
  360     -1.41189    0.00312
  361     -1.36870    0.00234
  362     -1.34659    0.00202
  363     -1.31248    0.00161
  364     -1.27023    0.00121

Fermi level: -2.38120

Gap: 0.059 eV
Transition (v -> c):
  (s=0, k=0, n=328, [0.00, 0.00, 0.00]) -> (s=0, k=0, n=329, [0.00, 0.00, 0.00])
No difference between direct/indirect transitions

Forces in eV/Ang:
  0 K    -0.00048   -0.00059   -0.02294
  1 K    -0.00596    0.00510   -0.02752
  2 K    -0.00113   -0.00473   -0.01106
  3 K    -0.00240    0.00162   -0.00268
  4 K     0.00497    0.00093    0.01701
  5 K     0.01699   -0.00557    0.01571
  6 K    -0.00883    0.00040    0.04197
  7 K     0.00549    0.00175    0.01364
  8 K    -0.00108    0.00100   -0.02453
  9 K     0.00135   -0.00167   -0.01947
 10 K    -0.01666   -0.00222   -0.02319
 11 K    -0.00017   -0.00125    0.00735
 12 K    -0.00302    0.00062    0.02462
 13 K    -0.00532    0.00021    0.02698
 14 K     0.00424   -0.01097    0.02653
 15 K     0.00464   -0.00145    0.02803
 16 K    -0.00327   -0.00043   -0.02504
 17 K    -0.00763   -0.00344   -0.02604
 18 K    -0.00843    0.00704   -0.00243
 19 K    -0.00111   -0.00043   -0.00163
 20 K    -0.00422   -0.00135    0.02386
 21 K    -0.00910    0.00504    0.01648
 22 K     0.00344    0.00452    0.02381
 23 K     0.00434   -0.00105    0.01152
 24 K    -0.00372    0.00122   -0.01844
 25 K     0.00001   -0.00020   -0.02377
 26 K     0.00590   -0.00455   -0.00519
 27 K     0.01174    0.01108   -0.01274
 28 K    -0.00782    0.02493    0.02347
 29 K    -0.01777    0.01210    0.01216
 30 K    -0.01011    0.00739    0.03450
 31 K     0.02733    0.01919   -0.02759
 32 K     0.00599   -0.00731   -0.02464
 33 K     0.00276   -0.00068   -0.02122
 34 K     0.00569    0.00370   -0.01104
 35 K    -0.00489    0.03388   -0.04389
 36 K     0.00286   -0.01785    0.02349
 37 K     0.01107   -0.00063    0.02495
 38 K    -0.00619   -0.00598    0.01912
 39 K    -0.00260   -0.00641    0.01874
 40 K     0.00680    0.00609   -0.02475
 41 K     0.00211    0.00087   -0.02292
 42 K    -0.00173    0.00128    0.00821
 43 K     0.01133   -0.04496   -0.05453
 44 K     0.00269   -0.00081    0.02020
 45 K     0.00466    0.00105    0.02422
 46 K    -0.01122   -0.00037    0.01785
 47 K    -0.00234    0.01513    0.02988
 48 K     0.00438   -0.00140   -0.02239
 49 K     0.00585    0.00585   -0.02845
 50 K    -0.00476   -0.00005    0.00390
 51 K    -0.00936    0.01109   -0.00482
 52 K     0.00023   -0.00067    0.01976
 53 K    -0.00106   -0.00206    0.01440
 54 K     0.00016   -0.00017    0.01505
 55 K    -0.00696    0.00279    0.02215
 56 K    -0.00468   -0.00359   -0.02934
 57 K    -0.00458    0.00181   -0.02542
 58 K     0.01080   -0.01149   -0.00511
 59 K     0.00492   -0.00057    0.00386
 60 K     0.00498    0.00027    0.01293
 61 K     0.00057    0.00013    0.01451
 62 K     0.00714   -0.00498    0.02297
 63 K    -0.00408   -0.00594    0.01887
 64 K    -0.00289    0.00496   -0.03097
 65 K     0.00510   -0.00767   -0.03133
 66 K     0.01035    0.01162   -0.00619
 67 K    -0.01051   -0.01085   -0.00465
 68 K     0.00351   -0.00240    0.01464
 69 K    -0.00152    0.00351    0.01576
 70 K     0.00679    0.00508    0.02306
 71 K    -0.01245    0.00133    0.02643
 72 K    -0.00381   -0.01226    0.02925

Timing:                                       incl.     excl.
--------------------------------------------------------------------
Basic WFS set positions:                      0.159     0.013   0.0% |
 Redistribute:                                0.145     0.145   0.0% |
Basis functions set positions:                7.324     7.324   0.0% |
Forces:                                     803.614     4.433   0.0% |
 LCAO forces:                               799.181     0.429   0.0% |
  Atomic Hamiltonian force:                   6.478     6.478   0.0% |
  Initial:                                    0.131     0.000   0.0% |
   Get density matrix:                        0.131     0.131   0.0% |
  Paw correction:                             6.899     6.899   0.0% |
  Potential:                                771.635   771.635   4.7% |-|
  TCI derivative:                            13.609    13.609   0.1% |
  Wait for sum:                               0.000     0.000   0.0% |
LCAO WFS Initialize:                        191.178     0.709   0.0% |
 Density initialized from wave functions:   150.722    12.875   0.1% |
  Calculate density matrix:                   1.610     1.610   0.0% |
  Construct density:                        136.236   136.236   0.8% |
  Symmetrize density:                         0.001     0.001   0.0% |
 Hamiltonian:                                39.747     0.009   0.0% |
  Atomic:                                     8.981     0.031   0.0% |
   XC Correction:                             8.950     8.950   0.1% |
  Calculate atomic Hamiltonians:              0.790     0.790   0.0% |
  Communicate:                                0.000     0.000   0.0% |
  Hartree integrate/restrict:                 1.145     1.145   0.0% |
  Initialize Hamiltonian:                     0.000     0.000   0.0% |
  Poisson:                                   16.603     7.838   0.0% |
   Communicate from 1D:                       1.191     1.191   0.0% |
   Communicate from 2D:                       0.785     0.785   0.0% |
   Communicate to 1D:                         0.440     0.440   0.0% |
   Communicate to 2D:                         1.439     1.439   0.0% |
   FFT 1D:                                    2.925     2.925   0.0% |
   FFT 2D:                                    1.985     1.985   0.0% |
  XC 3D grid:                                 9.431     9.431   0.1% |
  vbar:                                       2.788     2.788   0.0% |
P tci:                                        8.552     8.552   0.1% |
Redistribute:                                 0.001     0.001   0.0% |
SCF-cycle:                                 1666.203     0.067   0.0% |
 Density:                                   620.285     0.001   0.0% |
  Atomic density matrices:                    0.165     0.165   0.0% |
  Mix:                                        8.077     8.077   0.0% |
  Multipole moments:                          0.022     0.022   0.0% |
  Normalize:                                  0.023     0.023   0.0% |
  Pseudo density:                           611.996     0.198   0.0% |
   Calculate density matrix:                  0.319     0.319   0.0% |
   Construct density:                       611.476   611.476   3.7% ||
   Symmetrize density:                        0.003     0.003   0.0% |
 Hamiltonian:                               126.587     0.010   0.0% |
  Atomic:                                    36.585     0.099   0.0% |
   XC Correction:                            36.487    36.487   0.2% |
  Calculate atomic Hamiltonians:              2.010     2.010   0.0% |
  Communicate:                                0.001     0.001   0.0% |
  Hartree integrate/restrict:                 1.431     1.431   0.0% |
  Poisson:                                   35.640     2.278   0.0% |
   Communicate from 1D:                       4.710     4.710   0.0% |
   Communicate from 2D:                       2.827     2.827   0.0% |
   Communicate to 1D:                         2.005     2.005   0.0% |
   Communicate to 2D:                         5.394     5.394   0.0% |
   FFT 1D:                                    8.945     8.945   0.1% |
   FFT 2D:                                    9.481     9.481   0.1% |
  XC 3D grid:                                49.042    49.042   0.3% |
  vbar:                                       1.867     1.867   0.0% |
 LCAO eigensolver:                          919.264     0.223   0.0% |
  Calculate projections:                      0.520     0.520   0.0% |
  DenseAtomicCorrection:                      7.989     7.989   0.0% |
  Distribute overlap matrix:                  0.004     0.004   0.0% |
  Orbital Layouts:                           14.748    14.748   0.1% |
  Potential matrix:                         895.781   895.781   5.5% |-|
ST tci:                                       7.240     7.240   0.0% |
Set symmetry:                                 0.000     0.000   0.0% |
TCI: Evaluate splines:                        0.046     0.046   0.0% |
mktci:                                        0.254     0.254   0.0% |
Other:                                    13622.209 13622.209  83.5% |--------------------------------|
--------------------------------------------------------------------
Total:                                              16306.780 100.0%

Memory usage: 3.67 GiB
Date: Wed Nov 26 03:07:07 2025
