
  ___ ___ ___ _ _ _  
 |   |   |_  | | | | 
 | | | | | . | | | | 
 |__ |  _|___|_____|  25.7.0
 |___|_|             

User:   tew@Mathuss-MacBook-Air-357.local
Date:   Tue Nov 25 22:35:20 2025
Arch:   arm64
Pid:    88448
CWD:    /Users/tew/Documents/Project/GitHub/chem-com
Python: 3.13.5
gpaw:   /Users/tew/Documents/Project/GitHub/chem-com/.venv/lib/python3.13/site-packages/gpaw
_gpaw:  /Users/tew/Documents/Project/GitHub/chem-com/.venv/lib/python3.13/site-packages/
        _gpaw.cpython-313-darwin.so
ase:    /Users/tew/Documents/Project/GitHub/chem-com/.venv/lib/python3.13/site-packages/ase (version 3.26.0)
numpy:  /Users/tew/Documents/Project/GitHub/chem-com/.venv/lib/python3.13/site-packages/numpy (version 2.3.5)
scipy:  /Users/tew/Documents/Project/GitHub/chem-com/.venv/lib/python3.13/site-packages/scipy (version 1.16.3)
libxc:  2.x.y
units:  Angstrom and eV
cores: 1
OpenMP: False
OMP_NUM_THREADS: 1

Input parameters:
  basis: dzp
  convergence: {density: 0.0001,
                eigenstates: 5e-06}
  kpts: [1 1 1]
  mode: {interpolation: 3,
         name: lcao}
  occupations: {fixmagmom: False,
                name: fermi-dirac,
                width: 0.15}
  xc: PBE

System changes: positions, numbers, cell, pbc, initial_charges, initial_magmoms 

Initialize ...

species:
  K:
    name: Potassium
    id: 04190408da443a44668134082ce1c192
    Z: 19.0
    valence: 9
    core: 10
    charge: 0.0
    file: /Users/tew/Documents/Project/GitHub/chem-com/.venv/lib/python3.13/site-packages/gpaw_data/setups/K.PBE.gz
    compensation charges: {type: gauss,
                           rc: 0.35,
                           lmax: 2}
    cutoffs: {filter: 1.91,
              core: 1.27}
    projectors:
      #              energy  rcut
      - 3s(2.00)   -35.338   1.122
      - 4s(1.00)    -2.319   1.122
      - 3p(6.00)   -18.813   1.106
      -  p           8.398   1.106
      -  d           0.000   0.937
  
    # LCAO basis set for K:
    #   Name: dzp
    #   File: /Users/tew/Documents/Project/GitHub/chem-com/.venv/lib/python3.13/site-packages/gpaw_data/setups/K.dzp.basis.gz
    #   Number of radial functions: 9
    #   Number of spherical harmonics: 19
    #     l=0, rc=4.2656 Bohr: 3s-sz confined orbital
    #     l=0, rc=13.1094 Bohr: 4s-sz confined orbital
    #     l=1, rc=5.0312 Bohr: 3p-sz confined orbital
    #     l=1, rc=16.0000 Bohr: 4p-sz confined orbital
    #     l=0, rc=2.3594 Bohr: 3s-dz split-valence wave
    #     l=0, rc=8.1719 Bohr: 4s-dz split-valence wave
    #     l=1, rc=2.8906 Bohr: 3p-dz split-valence wave
    #     l=1, rc=10.2812 Bohr: 4p-dz split-valence wave
    #     l=1, rc=13.1094 Bohr: p-type Gaussian polarization
    #   Number of RI-basis functions 0

Reference energy: -1195904.484944  # eV

Spin-paired calculation

Convergence criteria:
 Maximum [total energy] change in last 3 cyles: 0.0005 eV / valence electron
 Maximum integral of absolute [dens]ity change: 0.0001 electrons / valence electron
 Maximum integral of absolute [eigenst]ate change: 5e-06 eV^2 / valence electron
 Maximum number of scf [iter]ations: 333
 (Square brackets indicate name in SCF output, whereas a 'c' in
 the SCF output indicates the quantity has converged.)

Symmetries present (total): 2

  ( 1  0  0)  ( 1  0  0)
  ( 0  1  0)  ( 0 -1  0)
  ( 0  0  1)  ( 0  0  1)

1 k-point (Gamma)
1 k-point in the irreducible part of the Brillouin zone
       k-points in crystal coordinates                weights
   0:     0.00000000    0.00000000    0.00000000          1/1

Wave functions: LCAO
  Diagonalizer: Serial LAPACK
  Atomic Correction: dense with blas
  Data-type: float
 

Occupation numbers: Fermi-Dirac:
  width: 0.1500  # eV
 

Eigensolver
   LCAO using direct dense diagonalizer 

Densities:
  Coarse grid: 112*80*156 grid
  Fine grid: 224*160*312 grid
  Total Charge: 0.000000 

Density mixing:
  Method: separate
  Backend: pulay
  Linear mixing parameter: 0.05
  old densities: 5
  Damping of long wavelength oscillations: 50 

Hamiltonian:
  XC and Coulomb potentials evaluated on a 224*160*312 grid
  Using the PBE Exchange-Correlation functional
  Interpolation: tri-quintic (5. degree polynomial)
  Poisson solver: FastPoissonSolver using
    Stencil: 6*3+1=19 point O(h^6) finite-difference Laplacian
    FFT axes: [np.int64(0), np.int64(1)]
    FST axes: [np.int64(2)]
 

XC parameters: PBE with 2 nearest neighbor stencil

Memory estimate:
  Process memory now: 3762.67 MiB
  Calculator: 2004.64 MiB
    Density: 627.85 MiB
      Arrays: 276.31 MiB
      Localized functions: 245.59 MiB
      Mixer: 105.96 MiB
    Hamiltonian: 197.33 MiB
      Arrays: 180.67 MiB
      XC: 0.00 MiB
      Poisson: 0.00 MiB
      vbar: 16.66 MiB
    Wavefunctions: 1179.45 MiB
      C [qnM]: 3.86 MiB
      S, T [2 x qmm]: 29.35 MiB
      P [aqMi]: 1.26 MiB
      BasisFunctions: 1144.98 MiB
      Eigensolver: 0.00 MiB

Total number of cores used: 1

Number of atoms: 73
Number of atomic orbitals: 1387
Number of bands in calculation: 365
Number of valence electrons: 657
Bands to converge: occupied

... initialized

Initializing position-dependent things.

Density initialized from atomic densities
           .------------------------------------------------------.  
          /|                                                      |  
         / |                                                      |  
        /  |                                                      |  
       /   |                                                      |  
      /    |                                                      |  
     /     |                                                      |  
    /      |                                                      |  
   /       |                                                      |  
  /        |                                                      |  
 *         |                                                      |  
 |         |                                                      |  
 |         |                                                      |  
 |         |                                                      |  
 |       K |                K                 K                   |  
 |         |     K                 K                  K           |  
 |         |                                                      |  
 |         |            K                  K                 K    K  
 |        K|                         K                 K          |  
 |         | K    K             K                 K               |  
 | K       |         K    K            K    K                  K  |  
 |         |                                                      |  
 |         |   K             K   K             K    K             |  
 |       KK|           K    K            K    K            K      |  
 |         |                                                      |  
 |         |K    K            K    K             K   K            |  
 |    K    |            K                  K                      |  
 |         |       K                 KK                K          |  
 |         | K                  K                 K               |  
 |      K  |              K                 K                     |  
 | K       |         K                 K                          |  
 |        K|   K             K   K             K    K             |  
 |  K      |           K                 K                        |  
 |         |                                                      |  
 |         |K                 K                  K                |  
 |         |                                                      |  
 K         |       K                  K                           |  
 |         |                                                      |  
 |         .------------------------------------------------------.  
 |        /                                                      /   
 |       /                                                      /    
 |      /                                                      /     
 |     /                                                      /      
 |    /                                                      /       
 |   /                                                      /        
 |  /                                                      /         
 | /                                                      /          
 |/                                                      /           
 *------------------------------------------------------*            

Atomic positions and initial magnetic moments

Positions:
   0 K      0.000000    0.000000   10.000000    ( 0.0000,  0.0000,  0.0000)
   1 K      3.698168    2.615000   10.000000    ( 0.0000,  0.0000,  0.0000)
   2 K      3.698168    0.000000   13.698168    ( 0.0000,  0.0000,  0.0000)
   3 K      0.000000    2.615000   13.698168    ( 0.0000,  0.0000,  0.0000)
   4 K     -0.036850   -0.000000   17.344455    ( 0.0000,  0.0000,  0.0000)
   5 K      3.697330    2.797703   17.186811    ( 0.0000,  0.0000,  0.0000)
   6 K      3.709421   -0.000000   20.301150    ( 0.0000,  0.0000,  0.0000)
   7 K      0.038124    2.578572   21.211190    ( 0.0000,  0.0000,  0.0000)
   8 K      0.000000    5.230000   10.000000    ( 0.0000,  0.0000,  0.0000)
   9 K      3.698168    7.845000   10.000000    ( 0.0000,  0.0000,  0.0000)
  10 K      3.698168    5.230000   13.698168    ( 0.0000,  0.0000,  0.0000)
  11 K      0.000000    7.845000   13.698168    ( 0.0000,  0.0000,  0.0000)
  12 K     -0.003213    5.227475   17.396190    ( 0.0000,  0.0000,  0.0000)
  13 K      3.706617    7.845000   17.397274    ( 0.0000,  0.0000,  0.0000)
  14 K      3.699558    5.193542   21.188805    ( 0.0000,  0.0000,  0.0000)
  15 K     -0.001203    7.845000   21.142378    ( 0.0000,  0.0000,  0.0000)
  16 K      0.000000   10.460000   10.000000    ( 0.0000,  0.0000,  0.0000)
  17 K      3.698168   13.075000   10.000000    ( 0.0000,  0.0000,  0.0000)
  18 K      3.698168   10.460000   13.698168    ( 0.0000,  0.0000,  0.0000)
  19 K      0.000000   13.075000   13.698168    ( 0.0000,  0.0000,  0.0000)
  20 K     -0.003213   10.462525   17.396190    ( 0.0000,  0.0000,  0.0000)
  21 K      3.697330   12.892297   17.186811    ( 0.0000,  0.0000,  0.0000)
  22 K      3.699558   10.496458   21.188805    ( 0.0000,  0.0000,  0.0000)
  23 K      0.038124   13.111428   21.211190    ( 0.0000,  0.0000,  0.0000)
  24 K      7.396337    0.000000   10.000000    ( 0.0000,  0.0000,  0.0000)
  25 K     11.094505    2.615000   10.000000    ( 0.0000,  0.0000,  0.0000)
  26 K     11.094505    0.000000   13.698168    ( 0.0000,  0.0000,  0.0000)
  27 K      7.396337    2.615000   13.698168    ( 0.0000,  0.0000,  0.0000)
  28 K      7.429035    0.000000   17.349236    ( 0.0000,  0.0000,  0.0000)
  29 K     11.097962    2.614860   17.398584    ( 0.0000,  0.0000,  0.0000)
  30 K     11.096478    0.000000   21.140303    ( 0.0000,  0.0000,  0.0000)
  31 K      7.357314    2.581694   21.200117    ( 0.0000,  0.0000,  0.0000)
  32 K      7.396337    5.230000   10.000000    ( 0.0000,  0.0000,  0.0000)
  33 K     11.094505    7.845000   10.000000    ( 0.0000,  0.0000,  0.0000)
  34 K     11.094505    5.230000   13.698168    ( 0.0000,  0.0000,  0.0000)
  35 K      7.396337    7.845000   13.698168    ( 0.0000,  0.0000,  0.0000)
  36 K      7.408876    5.216141   17.402687    ( 0.0000,  0.0000,  0.0000)
  37 K     11.094279    7.845000   17.391141    ( 0.0000,  0.0000,  0.0000)
  38 K     11.095524    5.232408   21.147988    ( 0.0000,  0.0000,  0.0000)
  39 K      7.392057    7.845000   21.148985    ( 0.0000,  0.0000,  0.0000)
  40 K      7.396337   10.460000   10.000000    ( 0.0000,  0.0000,  0.0000)
  41 K     11.094505   13.075000   10.000000    ( 0.0000,  0.0000,  0.0000)
  42 K     11.094505   10.460000   13.698168    ( 0.0000,  0.0000,  0.0000)
  43 K      7.396337   13.075000   13.698168    ( 0.0000,  0.0000,  0.0000)
  44 K      7.408876   10.473859   17.402687    ( 0.0000,  0.0000,  0.0000)
  45 K     11.097962   13.075140   17.398584    ( 0.0000,  0.0000,  0.0000)
  46 K     11.095524   10.457592   21.147988    ( 0.0000,  0.0000,  0.0000)
  47 K      7.357314   13.108306   21.200117    ( 0.0000,  0.0000,  0.0000)
  48 K     14.792674    0.000000   10.000000    ( 0.0000,  0.0000,  0.0000)
  49 K     18.490842    2.615000   10.000000    ( 0.0000,  0.0000,  0.0000)
  50 K     18.490842    0.000000   13.698168    ( 0.0000,  0.0000,  0.0000)
  51 K     14.792674    2.615000   13.698168    ( 0.0000,  0.0000,  0.0000)
  52 K     14.801074    0.000000   17.398626    ( 0.0000,  0.0000,  0.0000)
  53 K     18.497222    2.626252   17.406087    ( 0.0000,  0.0000,  0.0000)
  54 K     18.482056   -0.000000   21.147532    ( 0.0000,  0.0000,  0.0000)
  55 K     14.790888    2.615682   21.141376    ( 0.0000,  0.0000,  0.0000)
  56 K     14.792674    5.230000   10.000000    ( 0.0000,  0.0000,  0.0000)
  57 K     18.490842    7.845000   10.000000    ( 0.0000,  0.0000,  0.0000)
  58 K     18.490842    5.230000   13.698168    ( 0.0000,  0.0000,  0.0000)
  59 K     14.792674    7.845000   13.698168    ( 0.0000,  0.0000,  0.0000)
  60 K     14.782725    5.219772   17.405161    ( 0.0000,  0.0000,  0.0000)
  61 K     18.482899    7.845000   17.396287    ( 0.0000,  0.0000,  0.0000)
  62 K     18.492055    5.228688   21.143407    ( 0.0000,  0.0000,  0.0000)
  63 K     14.799372    7.845000   21.141357    ( 0.0000,  0.0000,  0.0000)
  64 K     14.792674   10.460000   10.000000    ( 0.0000,  0.0000,  0.0000)
  65 K     18.490842   13.075000   10.000000    ( 0.0000,  0.0000,  0.0000)
  66 K     18.490842   10.460000   13.698168    ( 0.0000,  0.0000,  0.0000)
  67 K     14.792674   13.075000   13.698168    ( 0.0000,  0.0000,  0.0000)
  68 K     14.782725   10.470228   17.405161    ( 0.0000,  0.0000,  0.0000)
  69 K     18.497222   13.063748   17.406087    ( 0.0000,  0.0000,  0.0000)
  70 K     18.492055   10.461312   21.143407    ( 0.0000,  0.0000,  0.0000)
  71 K     14.790888   13.074318   21.141376    ( 0.0000,  0.0000,  0.0000)
  72 K      3.700996    0.000000   24.266488    ( 0.0000,  0.0000,  0.0000)

Unit cell:
           periodic     x           y           z      points  spacing
  1. axis:    yes   22.189011    0.000000    0.000000   112     0.1981
  2. axis:    yes    0.000000   15.690000    0.000000    80     0.1961
  3. axis:    no     0.000000    0.000000   31.094505   156     0.1993

  Lengths:  22.189011  15.690000  31.094505
  Angles:   90.000000  90.000000  90.000000

Effective grid spacing dv^(1/3) = 0.1979

     iter     time        total  log10-change:
                         energy   eigst   dens
iter:   1 02:25:27   -65.451169        c
iter:   2 02:26:23   -64.370885        c -1.50
iter:   3 02:27:16   -62.755958        c -1.57
iter:   4 02:28:06   -61.547962        c -1.74
iter:   5 02:28:59   -61.535113        c -2.05
iter:   6 02:29:53   -61.515578c       c -2.12
iter:   7 02:30:47   -61.504749c       c -2.25
iter:   8 02:31:36   -61.499658c       c -2.47
iter:   9 02:32:25   -61.486069c       c -2.52
iter:  10 02:33:16   -61.481980c       c -2.75
iter:  11 02:34:09   -61.481002c       c -2.95
iter:  12 02:35:03   -61.480865c       c -3.26
iter:  13 02:35:55   -61.480450c       c -3.32
iter:  14 02:36:47   -61.479758c       c -3.35
iter:  15 02:37:41   -61.479618c       c -3.40
iter:  16 02:38:32   -61.480164c       c -3.52
iter:  17 02:39:23   -61.480549c       c -3.69
iter:  18 02:40:14   -61.480599c       c -3.76
iter:  19 02:41:12   -61.480541c       c -3.84
iter:  20 02:42:00   -61.480439c       c -3.92
iter:  21 02:42:56   -61.480444c       c -4.03c

Converged after 21 iterations.

Dipole moment: (-92.200001, -65.404079, 0.428373) |e|*Ang

Energy contributions relative to reference atoms: (reference = -1195904.484944)

Kinetic:       +125.572525
Potential:     -108.133306
External:        +0.000000
XC:             -79.219272
Entropy (-ST):   -3.797978
Local:           +2.198597
SIC:             +0.000000
--------------------------
Free energy:    -63.379433
Extrapolated:   -61.480444

 Band  Eigenvalues  Occupancy
    0    -35.25385    2.00000
    1    -34.76428    2.00000
    2    -34.76117    2.00000
    3    -34.76062    2.00000
    4    -34.75972    2.00000
    5    -34.75910    2.00000
    6    -34.75756    2.00000
    7    -34.75696    2.00000
    8    -34.75688    2.00000
    9    -34.75668    2.00000
   10    -34.75642    2.00000
   11    -34.75589    2.00000
   12    -34.75541    2.00000
   13    -34.75525    2.00000
   14    -34.75505    2.00000
   15    -34.75498    2.00000
   16    -34.75497    2.00000
   17    -34.75490    2.00000
   18    -34.75450    2.00000
   19    -34.75391    2.00000
   20    -34.75346    2.00000
   21    -34.75344    2.00000
   22    -34.75297    2.00000
   23    -34.75289    2.00000
   24    -34.75253    2.00000
   25    -34.75237    2.00000
   26    -34.75194    2.00000
   27    -34.75189    2.00000
   28    -34.74915    2.00000
   29    -34.74872    2.00000
   30    -34.74530    2.00000
   31    -34.74469    2.00000
   32    -34.73456    2.00000
   33    -34.73408    2.00000
   34    -34.73358    2.00000
   35    -34.73333    2.00000
   36    -34.65583    2.00000
   37    -34.61666    2.00000
   38    -34.61617    2.00000
   39    -34.60805    2.00000
   40    -34.60727    2.00000
   41    -34.60682    2.00000
   42    -34.60590    2.00000
   43    -34.60375    2.00000
   44    -34.60308    2.00000
   45    -34.60298    2.00000
   46    -34.60240    2.00000
   47    -34.60211    2.00000
   48    -34.60207    2.00000
   49    -34.60166    2.00000
   50    -34.60163    2.00000
   51    -34.60069    2.00000
   52    -34.60036    2.00000
   53    -34.60012    2.00000
   54    -34.59849    2.00000
   55    -34.59780    2.00000
   56    -34.59672    2.00000
   57    -34.59614    2.00000
   58    -34.59597    2.00000
   59    -34.59577    2.00000
   60    -34.59543    2.00000
   61    -34.59498    2.00000
   62    -34.59475    2.00000
   63    -34.59410    2.00000
   64    -34.59318    2.00000
   65    -34.59285    2.00000
   66    -34.59269    2.00000
   67    -34.59257    2.00000
   68    -34.59217    2.00000
   69    -34.59176    2.00000
   70    -34.59153    2.00000
   71    -34.58123    2.00000
   72    -34.57906    2.00000
   73    -18.75440    2.00000
   74    -18.71873    2.00000
   75    -18.71566    2.00000
   76    -18.26938    2.00000
   77    -18.26897    2.00000
   78    -18.26409    2.00000
   79    -18.26200    2.00000
   80    -18.26133    2.00000
   81    -18.26133    2.00000
   82    -18.26124    2.00000
   83    -18.25923    2.00000
   84    -18.25875    2.00000
   85    -18.25866    2.00000
   86    -18.25848    2.00000
   87    -18.25798    2.00000
   88    -18.25737    2.00000
   89    -18.25662    2.00000
   90    -18.25646    2.00000
   91    -18.25625    2.00000
   92    -18.25583    2.00000
   93    -18.25541    2.00000
   94    -18.25531    2.00000
   95    -18.25422    2.00000
   96    -18.25394    2.00000
   97    -18.25359    2.00000
   98    -18.25348    2.00000
   99    -18.25312    2.00000
  100    -18.25300    2.00000
  101    -18.25275    2.00000
  102    -18.25259    2.00000
  103    -18.25197    2.00000
  104    -18.25172    2.00000
  105    -18.25164    2.00000
  106    -18.25142    2.00000
  107    -18.25138    2.00000
  108    -18.25127    2.00000
  109    -18.25115    2.00000
  110    -18.25067    2.00000
  111    -18.25012    2.00000
  112    -18.24978    2.00000
  113    -18.24976    2.00000
  114    -18.24938    2.00000
  115    -18.24924    2.00000
  116    -18.24888    2.00000
  117    -18.24880    2.00000
  118    -18.24855    2.00000
  119    -18.24848    2.00000
  120    -18.24824    2.00000
  121    -18.24801    2.00000
  122    -18.24749    2.00000
  123    -18.24704    2.00000
  124    -18.24637    2.00000
  125    -18.24616    2.00000
  126    -18.24541    2.00000
  127    -18.24501    2.00000
  128    -18.24464    2.00000
  129    -18.24240    2.00000
  130    -18.24161    2.00000
  131    -18.24145    2.00000
  132    -18.23996    2.00000
  133    -18.23902    2.00000
  134    -18.23735    2.00000
  135    -18.23595    2.00000
  136    -18.23553    2.00000
  137    -18.23237    2.00000
  138    -18.23069    2.00000
  139    -18.22909    2.00000
  140    -18.22880    2.00000
  141    -18.22720    2.00000
  142    -18.22712    2.00000
  143    -18.22710    2.00000
  144    -18.22652    2.00000
  145    -18.22631    2.00000
  146    -18.22629    2.00000
  147    -18.22601    2.00000
  148    -18.22530    2.00000
  149    -18.22474    2.00000
  150    -18.22359    2.00000
  151    -18.22245    2.00000
  152    -18.22158    2.00000
  153    -18.22068    2.00000
  154    -18.22048    2.00000
  155    -18.22035    2.00000
  156    -18.22010    2.00000
  157    -18.21985    2.00000
  158    -18.21950    2.00000
  159    -18.21856    2.00000
  160    -18.21845    2.00000
  161    -18.21774    2.00000
  162    -18.21710    2.00000
  163    -18.21674    2.00000
  164    -18.21577    2.00000
  165    -18.21531    2.00000
  166    -18.21503    2.00000
  167    -18.21084    2.00000
  168    -18.21016    2.00000
  169    -18.20662    2.00000
  170    -18.20657    2.00000
  171    -18.20657    2.00000
  172    -18.20646    2.00000
  173    -18.20636    2.00000
  174    -18.20634    2.00000
  175    -18.20589    2.00000
  176    -18.20539    2.00000
  177    -18.20443    2.00000
  178    -18.20414    2.00000
  179    -18.20172    2.00000
  180    -18.20073    2.00000
  181    -18.18031    2.00000
  182    -18.15969    2.00000
  183    -18.13472    2.00000
  184    -18.12775    2.00000
  185    -18.12631    2.00000
  186    -18.12317    2.00000
  187    -18.12114    2.00000
  188    -18.12031    2.00000
  189    -18.11929    2.00000
  190    -18.11869    2.00000
  191    -18.11792    2.00000
  192    -18.11675    2.00000
  193    -18.11458    2.00000
  194    -18.11442    2.00000
  195    -18.11398    2.00000
  196    -18.11282    2.00000
  197    -18.11190    2.00000
  198    -18.11177    2.00000
  199    -18.11148    2.00000
  200    -18.10876    2.00000
  201    -18.10840    2.00000
  202    -18.10739    2.00000
  203    -18.10734    2.00000
  204    -18.10692    2.00000
  205    -18.10623    2.00000
  206    -18.10619    2.00000
  207    -18.10582    2.00000
  208    -18.10429    2.00000
  209    -18.10412    2.00000
  210    -18.10154    2.00000
  211    -18.10120    2.00000
  212    -18.10071    2.00000
  213    -18.10059    2.00000
  214    -18.09975    2.00000
  215    -18.09916    2.00000
  216    -18.09871    2.00000
  217    -18.09860    2.00000
  218    -18.09802    2.00000
  219    -18.09801    2.00000
  220    -18.09496    2.00000
  221    -18.09455    2.00000
  222    -18.09438    2.00000
  223    -18.09295    2.00000
  224    -18.09152    2.00000
  225    -18.09150    2.00000
  226    -18.09077    2.00000
  227    -18.08841    2.00000
  228    -18.08694    2.00000
  229    -18.08638    2.00000
  230    -18.08637    2.00000
  231    -18.08556    2.00000
  232    -18.08496    2.00000
  233    -18.08367    2.00000
  234    -18.08363    2.00000
  235    -18.08331    2.00000
  236    -18.08325    2.00000
  237    -18.08269    2.00000
  238    -18.08222    2.00000
  239    -18.08042    2.00000
  240    -18.08034    2.00000
  241    -18.07987    2.00000
  242    -18.07852    2.00000
  243    -18.07823    2.00000
  244    -18.07801    2.00000
  245    -18.07679    2.00000
  246    -18.07629    2.00000
  247    -18.07598    2.00000
  248    -18.07578    2.00000
  249    -18.07507    2.00000
  250    -18.07464    2.00000
  251    -18.07459    2.00000
  252    -18.07417    2.00000
  253    -18.07355    2.00000
  254    -18.07297    2.00000
  255    -18.07267    2.00000
  256    -18.07227    2.00000
  257    -18.07107    2.00000
  258    -18.07083    2.00000
  259    -18.07024    2.00000
  260    -18.06975    2.00000
  261    -18.06968    2.00000
  262    -18.06942    2.00000
  263    -18.06840    2.00000
  264    -18.06823    2.00000
  265    -18.06815    2.00000
  266    -18.06814    2.00000
  267    -18.06650    2.00000
  268    -18.06634    2.00000
  269    -18.06626    2.00000
  270    -18.06620    2.00000
  271    -18.06542    2.00000
  272    -18.06465    2.00000
  273    -18.06433    2.00000
  274    -18.06433    2.00000
  275    -18.06403    2.00000
  276    -18.06331    2.00000
  277    -18.06308    2.00000
  278    -18.06281    2.00000
  279    -18.06150    2.00000
  280    -18.06060    2.00000
  281    -18.06035    2.00000
  282    -18.05976    2.00000
  283    -18.05967    2.00000
  284    -18.05940    2.00000
  285    -18.05799    2.00000
  286    -18.05743    2.00000
  287    -18.05608    2.00000
  288    -18.05499    2.00000
  289    -18.05436    2.00000
  290    -18.05379    2.00000
  291    -18.05306    2.00000
  292     -4.54497    2.00000
  293     -4.20262    1.99999
  294     -4.18929    1.99999
  295     -4.15038    1.99998
  296     -3.85646    1.99989
  297     -3.85585    1.99989
  298     -3.81528    1.99986
  299     -3.79995    1.99984
  300     -3.53649    1.99908
  301     -3.52867    1.99903
  302     -3.51627    1.99894
  303     -3.51475    1.99893
  304     -3.51330    1.99892
  305     -3.47389    1.99860
  306     -3.46520    1.99851
  307     -3.21410    1.99211
  308     -3.19664    1.99113
  309     -3.19099    1.99080
  310     -3.17492    1.98976
  311     -3.14852    1.98780
  312     -3.14239    1.98730
  313     -3.13788    1.98691
  314     -3.13277    1.98646
  315     -2.87955    1.92888
  316     -2.84914    1.91359
  317     -2.82161    1.89708
  318     -2.81950    1.89570
  319     -2.72655    1.81448
  320     -2.56511    1.53851
  321     -2.55298    1.50919
  322     -2.54824    1.49739
  323     -2.54746    1.49544
  324     -2.54622    1.49230
  325     -2.53528    1.46417
  326     -2.52551    1.43825
  327     -2.51893    1.42035
  328     -2.41903    1.11462
  329     -2.35969    0.91753
  330     -2.22600    0.51591
  331     -2.21520    0.48883
  332     -2.19062    0.43086
  333     -2.18989    0.42923
  334     -2.18692    0.42258
  335     -2.18609    0.42075
  336     -2.10560    0.26957
  337     -2.04844    0.19237
  338     -1.95022    0.10479
  339     -1.94961    0.10438
  340     -1.91783    0.08530
  341     -1.75530    0.02971
  342     -1.75252    0.02917
  343     -1.73872    0.02664
  344     -1.71323    0.02252
  345     -1.67476    0.01747
  346     -1.65806    0.01565
  347     -1.65443    0.01527
  348     -1.64683    0.01452
  349     -1.64567    0.01441
  350     -1.62728    0.01276
  351     -1.62134    0.01227
  352     -1.61430    0.01171
  353     -1.61267    0.01158
  354     -1.60497    0.01101
  355     -1.59033    0.00999
  356     -1.59011    0.00997
  357     -1.58299    0.00951
  358     -1.53192    0.00678
  359     -1.41610    0.00314
  360     -1.41231    0.00306
  361     -1.37256    0.00235
  362     -1.34592    0.00197
  363     -1.31022    0.00155
  364     -1.27310    0.00121

Fermi level: -2.38449

Gap: 0.059 eV
Transition (v -> c):
  (s=0, k=0, n=328, [0.00, 0.00, 0.00]) -> (s=0, k=0, n=329, [0.00, 0.00, 0.00])
No difference between direct/indirect transitions
Timing:                              incl.     excl.
-----------------------------------------------------------
Basic WFS set positions:             0.003     0.003   0.0% |
Basis functions set positions:       1.890     1.890   0.0% |
LCAO WFS Initialize:                 6.784     1.034   0.0% |
 Hamiltonian:                        5.749     0.000   0.0% |
  Atomic:                            1.352     0.005   0.0% |
   XC Correction:                    1.347     1.347   0.0% |
  Calculate atomic Hamiltonians:     0.161     0.161   0.0% |
  Communicate:                       0.000     0.000   0.0% |
  Hartree integrate/restrict:        0.146     0.146   0.0% |
  Initialize Hamiltonian:            0.000     0.000   0.0% |
  Poisson:                           1.790     0.096   0.0% |
   Communicate from 1D:              0.306     0.306   0.0% |
   Communicate from 2D:              0.114     0.114   0.0% |
   Communicate to 1D:                0.080     0.080   0.0% |
   Communicate to 2D:                0.356     0.356   0.0% |
   FFT 1D:                           0.402     0.402   0.0% |
   FFT 2D:                           0.436     0.436   0.0% |
  XC 3D grid:                        2.271     2.271   0.0% |
  vbar:                              0.028     0.028   0.0% |
P tci:                               0.866     0.866   0.0% |
SCF-cycle:                        1080.268     0.042   0.0% |
 Density:                          436.393     0.001   0.0% |
  Atomic density matrices:           0.099     0.099   0.0% |
  Mix:                               5.218     5.218   0.0% |
  Multipole moments:                 0.014     0.014   0.0% |
  Normalize:                         0.015     0.015   0.0% |
  Pseudo density:                  431.046     0.138   0.0% |
   Calculate density matrix:         0.232     0.232   0.0% |
   Construct density:              430.306   430.306   2.6% ||
   Symmetrize density:               0.370     0.370   0.0% |
 Hamiltonian:                       84.019     0.004   0.0% |
  Atomic:                           25.397     0.067   0.0% |
   XC Correction:                   25.330    25.330   0.2% |
  Calculate atomic Hamiltonians:     0.991     0.991   0.0% |
  Communicate:                       0.000     0.000   0.0% |
  Hartree integrate/restrict:        0.895     0.895   0.0% |
  Poisson:                          25.353     1.573   0.0% |
   Communicate from 1D:              4.381     4.381   0.0% |
   Communicate from 2D:              2.411     2.411   0.0% |
   Communicate to 1D:                1.308     1.308   0.0% |
   Communicate to 2D:                3.542     3.542   0.0% |
   FFT 1D:                           6.054     6.054   0.0% |
   FFT 2D:                           6.084     6.084   0.0% |
  XC 3D grid:                       30.127    30.127   0.2% |
  vbar:                              1.252     1.252   0.0% |
 LCAO eigensolver:                 559.813     0.125   0.0% |
  Calculate projections:             0.353     0.353   0.0% |
  DenseAtomicCorrection:             5.068     5.068   0.0% |
  Distribute overlap matrix:         0.002     0.002   0.0% |
  Orbital Layouts:                   9.243     9.243   0.1% |
  Potential matrix:                545.022   545.022   3.3% ||
ST tci:                              1.594     1.594   0.0% |
Set symmetry:                        0.001     0.001   0.0% |
TCI: Evaluate splines:               0.063     0.063   0.0% |
mktci:                               0.048     0.048   0.0% |
Other:                           15215.268 15215.268  93.3% |------------------------------------|
-----------------------------------------------------------
Total:                                     16306.785 100.0%

Memory usage: 3.67 GiB
Date: Wed Nov 26 03:07:07 2025
