
  ___ ___ ___ _ _ _  
 |   |   |_  | | | | 
 | | | | | . | | | | 
 |__ |  _|___|_____|  25.7.0
 |___|_|             

User:   tew@Mathuss-MacBook-Air-357.local
Date:   Tue Nov 25 22:35:20 2025
Arch:   arm64
Pid:    88448
CWD:    /Users/tew/Documents/Project/GitHub/chem-com
Python: 3.13.5
gpaw:   /Users/tew/Documents/Project/GitHub/chem-com/.venv/lib/python3.13/site-packages/gpaw
_gpaw:  /Users/tew/Documents/Project/GitHub/chem-com/.venv/lib/python3.13/site-packages/
        _gpaw.cpython-313-darwin.so
ase:    /Users/tew/Documents/Project/GitHub/chem-com/.venv/lib/python3.13/site-packages/ase (version 3.26.0)
numpy:  /Users/tew/Documents/Project/GitHub/chem-com/.venv/lib/python3.13/site-packages/numpy (version 2.3.5)
scipy:  /Users/tew/Documents/Project/GitHub/chem-com/.venv/lib/python3.13/site-packages/scipy (version 1.16.3)
libxc:  2.x.y
units:  Angstrom and eV
cores: 1
OpenMP: False
OMP_NUM_THREADS: 1

Input parameters:
  basis: dzp
  convergence: {density: 0.0001,
                eigenstates: 5e-06}
  kpts: [1 1 1]
  mode: {interpolation: 3,
         name: lcao}
  occupations: {fixmagmom: False,
                name: fermi-dirac,
                width: 0.15}
  xc: PBE

System changes: positions, numbers, cell, pbc, initial_charges, initial_magmoms 

Initialize ...

species:
  K:
    name: Potassium
    id: 04190408da443a44668134082ce1c192
    Z: 19.0
    valence: 9
    core: 10
    charge: 0.0
    file: /Users/tew/Documents/Project/GitHub/chem-com/.venv/lib/python3.13/site-packages/gpaw_data/setups/K.PBE.gz
    compensation charges: {type: gauss,
                           rc: 0.35,
                           lmax: 2}
    cutoffs: {filter: 1.91,
              core: 1.27}
    projectors:
      #              energy  rcut
      - 3s(2.00)   -35.338   1.122
      - 4s(1.00)    -2.319   1.122
      - 3p(6.00)   -18.813   1.106
      -  p           8.398   1.106
      -  d           0.000   0.937
  
    # LCAO basis set for K:
    #   Name: dzp
    #   File: /Users/tew/Documents/Project/GitHub/chem-com/.venv/lib/python3.13/site-packages/gpaw_data/setups/K.dzp.basis.gz
    #   Number of radial functions: 9
    #   Number of spherical harmonics: 19
    #     l=0, rc=4.2656 Bohr: 3s-sz confined orbital
    #     l=0, rc=13.1094 Bohr: 4s-sz confined orbital
    #     l=1, rc=5.0312 Bohr: 3p-sz confined orbital
    #     l=1, rc=16.0000 Bohr: 4p-sz confined orbital
    #     l=0, rc=2.3594 Bohr: 3s-dz split-valence wave
    #     l=0, rc=8.1719 Bohr: 4s-dz split-valence wave
    #     l=1, rc=2.8906 Bohr: 3p-dz split-valence wave
    #     l=1, rc=10.2812 Bohr: 4p-dz split-valence wave
    #     l=1, rc=13.1094 Bohr: p-type Gaussian polarization
    #   Number of RI-basis functions 0

Reference energy: -1195904.484944  # eV

Spin-paired calculation

Convergence criteria:
 Maximum [total energy] change in last 3 cyles: 0.0005 eV / valence electron
 Maximum integral of absolute [dens]ity change: 0.0001 electrons / valence electron
 Maximum integral of absolute [eigenst]ate change: 5e-06 eV^2 / valence electron
 Maximum number of scf [iter]ations: 333
 (Square brackets indicate name in SCF output, whereas a 'c' in
 the SCF output indicates the quantity has converged.)

Symmetries present (total): 1

  ( 1  0  0)
  ( 0  1  0)
  ( 0  0  1)

1 k-point (Gamma)
1 k-point in the irreducible part of the Brillouin zone
       k-points in crystal coordinates                weights
   0:     0.00000000    0.00000000    0.00000000          1/1

Wave functions: LCAO
  Diagonalizer: Serial LAPACK
  Atomic Correction: dense with blas
  Data-type: float
 

Occupation numbers: Fermi-Dirac:
  width: 0.1500  # eV
 

Eigensolver
   LCAO using direct dense diagonalizer 

Densities:
  Coarse grid: 112*80*156 grid
  Fine grid: 224*160*312 grid
  Total Charge: 0.000000 

Density mixing:
  Method: separate
  Backend: pulay
  Linear mixing parameter: 0.05
  old densities: 5
  Damping of long wavelength oscillations: 50 

Hamiltonian:
  XC and Coulomb potentials evaluated on a 224*160*312 grid
  Using the PBE Exchange-Correlation functional
  Interpolation: tri-quintic (5. degree polynomial)
  Poisson solver: FastPoissonSolver using
    Stencil: 6*3+1=19 point O(h^6) finite-difference Laplacian
    FFT axes: [np.int64(0), np.int64(1)]
    FST axes: [np.int64(2)]
 

XC parameters: PBE with 2 nearest neighbor stencil

Memory estimate:
  Process memory now: 3762.67 MiB
  Calculator: 2004.64 MiB
    Density: 627.85 MiB
      Arrays: 276.31 MiB
      Localized functions: 245.59 MiB
      Mixer: 105.96 MiB
    Hamiltonian: 197.33 MiB
      Arrays: 180.67 MiB
      XC: 0.00 MiB
      Poisson: 0.00 MiB
      vbar: 16.66 MiB
    Wavefunctions: 1179.45 MiB
      C [qnM]: 3.86 MiB
      S, T [2 x qmm]: 29.35 MiB
      P [aqMi]: 1.26 MiB
      BasisFunctions: 1144.98 MiB
      Eigensolver: 0.00 MiB

Total number of cores used: 1

Number of atoms: 73
Number of atomic orbitals: 1387
Number of bands in calculation: 365
Number of valence electrons: 657
Bands to converge: occupied

... initialized

Initializing position-dependent things.

Density initialized from atomic densities
           .------------------------------------------------------.  
          /|                                                      |  
         / |                                                      |  
        /  |                                                      |  
       /   |                                                      |  
      /    |                                                      |  
     /     |                                                      |  
    /      |                                                      |  
   /       |                                                      |  
  /        |                                                      |  
 *         |                                                      |  
 |         |                                                      |  
 |         |                                                      |  
 |         |                                                      |  
 |       K |                K                 K                   |  
 |         |     K                 K                  K           |  
 |         |                                                      |  
 |    K    |    K       K    K             K    K                 K  
 |         |                         K                 K          |  
 |         |  K   K             K                 K               |  
 | K       |              K            K    K                  K  |  
 |         |         K                                            |  
 |         |   K            K     K            K    K             |  
 |       KK|           K    K            K    K            K      |  
 |         |                                                      |  
 |         |K    K            K    K             K   K            |  
 |    K    |            K                  K                      |  
 |         |       K                 K                 K          |  
 |         | K                  K                 K               |  
 |      K  |              K                 K                     |  
 | K       |         K                 K                          |  
 |        K|   K             K   K             K    K             |  
 |  K      |           K                 K                        |  
 |         |                                                      |  
 |         |K                 K                  K                |  
 |         |                                                      |  
 K         |       K                  K                           |  
 |         |                                                      |  
 |         .------------------------------------------------------.  
 |        /                                                      /   
 |       /                                                      /    
 |      /                                                      /     
 |     /                                                      /      
 |    /                                                      /       
 |   /                                                      /        
 |  /                                                      /         
 | /                                                      /          
 |/                                                      /           
 *------------------------------------------------------*            

Atomic positions and initial magnetic moments

Positions:
   0 K      0.000000    0.000000   10.000000    ( 0.0000,  0.0000,  0.0000)
   1 K      3.698168    2.615000   10.000000    ( 0.0000,  0.0000,  0.0000)
   2 K      3.698168    0.000000   13.698168    ( 0.0000,  0.0000,  0.0000)
   3 K      0.000000    2.615000   13.698168    ( 0.0000,  0.0000,  0.0000)
   4 K     -0.020744   -0.001766   17.379844    ( 0.0000,  0.0000,  0.0000)
   5 K      3.670005    2.709442   17.282129    ( 0.0000,  0.0000,  0.0000)
   6 K      3.740377    0.029736   20.777333    ( 0.0000,  0.0000,  0.0000)
   7 K      0.022424    2.592827   21.198810    ( 0.0000,  0.0000,  0.0000)
   8 K      0.000000    5.230000   10.000000    ( 0.0000,  0.0000,  0.0000)
   9 K      3.698168    7.845000   10.000000    ( 0.0000,  0.0000,  0.0000)
  10 K      3.698168    5.230000   13.698168    ( 0.0000,  0.0000,  0.0000)
  11 K      0.000000    7.845000   13.698168    ( 0.0000,  0.0000,  0.0000)
  12 K     -0.004315    5.232119   17.411755    ( 0.0000,  0.0000,  0.0000)
  13 K      3.699090    7.841115   17.416755    ( 0.0000,  0.0000,  0.0000)
  14 K      3.732252    5.178433   21.220033    ( 0.0000,  0.0000,  0.0000)
  15 K      0.003365    7.841343   21.155270    ( 0.0000,  0.0000,  0.0000)
  16 K      0.000000   10.460000   10.000000    ( 0.0000,  0.0000,  0.0000)
  17 K      3.698168   13.075000   10.000000    ( 0.0000,  0.0000,  0.0000)
  18 K      3.698168   10.460000   13.698168    ( 0.0000,  0.0000,  0.0000)
  19 K      0.000000   13.075000   13.698168    ( 0.0000,  0.0000,  0.0000)
  20 K     -0.002520   10.459710   17.407157    ( 0.0000,  0.0000,  0.0000)
  21 K      3.682003   12.983183   17.315354    ( 0.0000,  0.0000,  0.0000)
  22 K      3.699361   10.479258   21.182573    ( 0.0000,  0.0000,  0.0000)
  23 K      0.023650   13.100098   21.198859    ( 0.0000,  0.0000,  0.0000)
  24 K      7.396337    0.000000   10.000000    ( 0.0000,  0.0000,  0.0000)
  25 K     11.094505    2.615000   10.000000    ( 0.0000,  0.0000,  0.0000)
  26 K     11.094505    0.000000   13.698168    ( 0.0000,  0.0000,  0.0000)
  27 K      7.396337    2.615000   13.698168    ( 0.0000,  0.0000,  0.0000)
  28 K      7.408854   -0.116720   17.263219    ( 0.0000,  0.0000,  0.0000)
  29 K     11.124898    2.613520   17.386264    ( 0.0000,  0.0000,  0.0000)
  30 K     11.061438    0.031996   21.196257    ( 0.0000,  0.0000,  0.0000)
  31 K      7.383684    2.602585   20.726781    ( 0.0000,  0.0000,  0.0000)
  32 K      7.396337    5.230000   10.000000    ( 0.0000,  0.0000,  0.0000)
  33 K     11.094505    7.845000   10.000000    ( 0.0000,  0.0000,  0.0000)
  34 K     11.094505    5.230000   13.698168    ( 0.0000,  0.0000,  0.0000)
  35 K      7.396337    7.845000   13.698168    ( 0.0000,  0.0000,  0.0000)
  36 K      7.403288    5.336877   17.285973    ( 0.0000,  0.0000,  0.0000)
  37 K     11.103377    7.842377   17.409201    ( 0.0000,  0.0000,  0.0000)
  38 K     11.063031    5.209133   21.200388    ( 0.0000,  0.0000,  0.0000)
  39 K      7.390810    7.815675   21.189291    ( 0.0000,  0.0000,  0.0000)
  40 K      7.396337   10.460000   10.000000    ( 0.0000,  0.0000,  0.0000)
  41 K     11.094505   13.075000   10.000000    ( 0.0000,  0.0000,  0.0000)
  42 K     11.094505   10.460000   13.698168    ( 0.0000,  0.0000,  0.0000)
  43 K      7.396337   13.075000   13.698168    ( 0.0000,  0.0000,  0.0000)
  44 K      7.407638   10.470896   17.424540    ( 0.0000,  0.0000,  0.0000)
  45 K     11.107393   13.079875   17.418430    ( 0.0000,  0.0000,  0.0000)
  46 K     11.091682   10.455239   21.168220    ( 0.0000,  0.0000,  0.0000)
  47 K      7.376248   13.119812   21.214696    ( 0.0000,  0.0000,  0.0000)
  48 K     14.792674    0.000000   10.000000    ( 0.0000,  0.0000,  0.0000)
  49 K     18.490842    2.615000   10.000000    ( 0.0000,  0.0000,  0.0000)
  50 K     18.490842    0.000000   13.698168    ( 0.0000,  0.0000,  0.0000)
  51 K     14.792674    2.615000   13.698168    ( 0.0000,  0.0000,  0.0000)
  52 K     14.805295   -0.002728   17.409968    ( 0.0000,  0.0000,  0.0000)
  53 K     18.498485    2.624425   17.417398    ( 0.0000,  0.0000,  0.0000)
  54 K     18.481325    0.000573   21.166658    ( 0.0000,  0.0000,  0.0000)
  55 K     14.787260    2.616102   21.158572    ( 0.0000,  0.0000,  0.0000)
  56 K     14.792674    5.230000   10.000000    ( 0.0000,  0.0000,  0.0000)
  57 K     18.490842    7.845000   10.000000    ( 0.0000,  0.0000,  0.0000)
  58 K     18.490842    5.230000   13.698168    ( 0.0000,  0.0000,  0.0000)
  59 K     14.792674    7.845000   13.698168    ( 0.0000,  0.0000,  0.0000)
  60 K     14.785799    5.222780   17.418287    ( 0.0000,  0.0000,  0.0000)
  61 K     18.480915    7.845727   17.403568    ( 0.0000,  0.0000,  0.0000)
  62 K     18.493607    5.227781   21.160132    ( 0.0000,  0.0000,  0.0000)
  63 K     14.797933    7.841355   21.162966    ( 0.0000,  0.0000,  0.0000)
  64 K     14.792674   10.460000   10.000000    ( 0.0000,  0.0000,  0.0000)
  65 K     18.490842   13.075000   10.000000    ( 0.0000,  0.0000,  0.0000)
  66 K     18.490842   10.460000   13.698168    ( 0.0000,  0.0000,  0.0000)
  67 K     14.792674   13.075000   13.698168    ( 0.0000,  0.0000,  0.0000)
  68 K     14.784191   10.468842   17.414818    ( 0.0000,  0.0000,  0.0000)
  69 K     18.498690   13.065112   17.414360    ( 0.0000,  0.0000,  0.0000)
  70 K     18.493982   10.462117   21.160729    ( 0.0000,  0.0000,  0.0000)
  71 K     14.785528   13.077184   21.158461    ( 0.0000,  0.0000,  0.0000)
  72 K      5.552386    1.311341   24.296798    ( 0.0000,  0.0000,  0.0000)

Unit cell:
           periodic     x           y           z      points  spacing
  1. axis:    yes   22.189011    0.000000    0.000000   112     0.1981
  2. axis:    yes    0.000000   15.690000    0.000000    80     0.1961
  3. axis:    no     0.000000    0.000000   31.094505   156     0.1993

  Lengths:  22.189011  15.690000  31.094505
  Angles:   90.000000  90.000000  90.000000

Effective grid spacing dv^(1/3) = 0.1979

     iter     time        total  log10-change:
                         energy   eigst   dens
iter:   1 23:18:12   -65.454868        c
iter:   2 23:19:32   -64.376596        c -1.50
iter:   3 23:20:51   -62.763231        c -1.57
iter:   4 23:22:03   -61.561185        c -1.74
iter:   5 23:23:13   -61.548403        c -2.05
iter:   6 23:24:09   -61.527826c       c -2.12
iter:   7 23:25:05   -61.517483c       c -2.25
iter:   8 23:26:01   -61.512501c       c -2.47
iter:   9 23:27:02   -61.499106c       c -2.52
iter:  10 23:28:01   -61.495139c       c -2.75
iter:  11 23:29:01   -61.494226c       c -2.96
iter:  12 23:29:58   -61.494059c       c -3.26
iter:  13 23:30:59   -61.493658c       c -3.33
iter:  14 23:31:59   -61.493003c       c -3.35
iter:  15 23:32:57   -61.492900c       c -3.42
iter:  16 23:33:52   -61.493449c       c -3.53
iter:  17 23:34:49   -61.493813c       c -3.70
iter:  18 23:35:46   -61.493849c       c -3.77
iter:  19 23:36:28   -61.493788c       c -3.85
iter:  20 23:37:05   -61.493692c       c -3.94
iter:  21 23:37:42   -61.493702c       c -4.04c

Converged after 21 iterations.

Dipole moment: (-90.993400, -57.603842, 0.451755) |e|*Ang

Energy contributions relative to reference atoms: (reference = -1195904.484944)

Kinetic:       +125.404653
Potential:     -108.015398
External:        +0.000000
XC:             -79.190310
Entropy (-ST):   -3.799193
Local:           +2.206949
SIC:             +0.000000
--------------------------
Free energy:    -63.393299
Extrapolated:   -61.493702

 Band  Eigenvalues  Occupancy
    0    -35.23569    2.00000
    1    -34.76918    2.00000
    2    -34.76864    2.00000
    3    -34.76752    2.00000
    4    -34.76695    2.00000
    5    -34.75920    2.00000
    6    -34.75853    2.00000
    7    -34.75805    2.00000
    8    -34.75665    2.00000
    9    -34.75632    2.00000
   10    -34.75627    2.00000
   11    -34.75414    2.00000
   12    -34.75410    2.00000
   13    -34.75354    2.00000
   14    -34.75296    2.00000
   15    -34.75162    2.00000
   16    -34.75118    2.00000
   17    -34.75111    2.00000
   18    -34.75106    2.00000
   19    -34.75085    2.00000
   20    -34.75063    2.00000
   21    -34.75053    2.00000
   22    -34.75044    2.00000
   23    -34.75037    2.00000
   24    -34.74979    2.00000
   25    -34.74945    2.00000
   26    -34.74937    2.00000
   27    -34.74873    2.00000
   28    -34.74737    2.00000
   29    -34.74669    2.00000
   30    -34.74649    2.00000
   31    -34.74223    2.00000
   32    -34.74142    2.00000
   33    -34.72826    2.00000
   34    -34.72740    2.00000
   35    -34.64641    2.00000
   36    -34.64354    2.00000
   37    -34.60530    2.00000
   38    -34.60432    2.00000
   39    -34.60280    2.00000
   40    -34.60121    2.00000
   41    -34.60096    2.00000
   42    -34.60065    2.00000
   43    -34.60048    2.00000
   44    -34.60007    2.00000
   45    -34.59994    2.00000
   46    -34.59963    2.00000
   47    -34.59907    2.00000
   48    -34.59901    2.00000
   49    -34.59884    2.00000
   50    -34.59796    2.00000
   51    -34.59715    2.00000
   52    -34.59672    2.00000
   53    -34.59627    2.00000
   54    -34.59574    2.00000
   55    -34.59561    2.00000
   56    -34.59493    2.00000
   57    -34.59491    2.00000
   58    -34.59396    2.00000
   59    -34.59331    2.00000
   60    -34.59292    2.00000
   61    -34.59244    2.00000
   62    -34.59188    2.00000
   63    -34.59177    2.00000
   64    -34.59157    2.00000
   65    -34.59135    2.00000
   66    -34.59072    2.00000
   67    -34.58981    2.00000
   68    -34.58921    2.00000
   69    -34.58859    2.00000
   70    -34.58858    2.00000
   71    -34.58796    2.00000
   72    -34.58731    2.00000
   73    -18.72638    2.00000
   74    -18.71621    2.00000
   75    -18.69693    2.00000
   76    -18.27363    2.00000
   77    -18.26626    2.00000
   78    -18.26555    2.00000
   79    -18.26363    2.00000
   80    -18.26320    2.00000
   81    -18.26155    2.00000
   82    -18.26106    2.00000
   83    -18.26056    2.00000
   84    -18.26034    2.00000
   85    -18.25989    2.00000
   86    -18.25981    2.00000
   87    -18.25854    2.00000
   88    -18.25831    2.00000
   89    -18.25668    2.00000
   90    -18.25576    2.00000
   91    -18.25571    2.00000
   92    -18.25541    2.00000
   93    -18.25454    2.00000
   94    -18.25410    2.00000
   95    -18.25380    2.00000
   96    -18.25342    2.00000
   97    -18.25325    2.00000
   98    -18.25247    2.00000
   99    -18.25156    2.00000
  100    -18.25150    2.00000
  101    -18.25101    2.00000
  102    -18.25098    2.00000
  103    -18.25061    2.00000
  104    -18.25055    2.00000
  105    -18.25011    2.00000
  106    -18.24996    2.00000
  107    -18.24929    2.00000
  108    -18.24885    2.00000
  109    -18.24882    2.00000
  110    -18.24840    2.00000
  111    -18.24837    2.00000
  112    -18.24822    2.00000
  113    -18.24808    2.00000
  114    -18.24781    2.00000
  115    -18.24674    2.00000
  116    -18.24672    2.00000
  117    -18.24669    2.00000
  118    -18.24624    2.00000
  119    -18.24619    2.00000
  120    -18.24570    2.00000
  121    -18.24551    2.00000
  122    -18.24538    2.00000
  123    -18.24517    2.00000
  124    -18.24470    2.00000
  125    -18.24453    2.00000
  126    -18.24406    2.00000
  127    -18.24329    2.00000
  128    -18.24296    2.00000
  129    -18.24262    2.00000
  130    -18.24259    2.00000
  131    -18.24220    2.00000
  132    -18.24035    2.00000
  133    -18.23803    2.00000
  134    -18.23622    2.00000
  135    -18.23585    2.00000
  136    -18.23481    2.00000
  137    -18.23372    2.00000
  138    -18.23310    2.00000
  139    -18.23303    2.00000
  140    -18.22978    2.00000
  141    -18.22938    2.00000
  142    -18.22876    2.00000
  143    -18.22658    2.00000
  144    -18.22622    2.00000
  145    -18.22500    2.00000
  146    -18.22423    2.00000
  147    -18.22340    2.00000
  148    -18.22271    2.00000
  149    -18.22128    2.00000
  150    -18.22126    2.00000
  151    -18.22042    2.00000
  152    -18.21963    2.00000
  153    -18.21932    2.00000
  154    -18.21805    2.00000
  155    -18.21746    2.00000
  156    -18.21645    2.00000
  157    -18.21618    2.00000
  158    -18.21571    2.00000
  159    -18.21517    2.00000
  160    -18.21502    2.00000
  161    -18.21420    2.00000
  162    -18.21413    2.00000
  163    -18.21385    2.00000
  164    -18.21295    2.00000
  165    -18.21199    2.00000
  166    -18.21194    2.00000
  167    -18.21023    2.00000
  168    -18.20765    2.00000
  169    -18.20665    2.00000
  170    -18.20586    2.00000
  171    -18.20560    2.00000
  172    -18.20465    2.00000
  173    -18.20372    2.00000
  174    -18.20290    2.00000
  175    -18.20083    2.00000
  176    -18.19777    2.00000
  177    -18.19669    2.00000
  178    -18.15194    2.00000
  179    -18.14722    2.00000
  180    -18.14600    2.00000
  181    -18.13090    2.00000
  182    -18.12865    2.00000
  183    -18.12295    2.00000
  184    -18.12076    2.00000
  185    -18.11703    2.00000
  186    -18.11647    2.00000
  187    -18.11621    2.00000
  188    -18.11542    2.00000
  189    -18.11465    2.00000
  190    -18.11428    2.00000
  191    -18.11378    2.00000
  192    -18.11296    2.00000
  193    -18.11134    2.00000
  194    -18.10940    2.00000
  195    -18.10881    2.00000
  196    -18.10834    2.00000
  197    -18.10798    2.00000
  198    -18.10684    2.00000
  199    -18.10601    2.00000
  200    -18.10576    2.00000
  201    -18.10514    2.00000
  202    -18.10423    2.00000
  203    -18.10415    2.00000
  204    -18.10387    2.00000
  205    -18.10330    2.00000
  206    -18.10246    2.00000
  207    -18.10182    2.00000
  208    -18.10113    2.00000
  209    -18.10029    2.00000
  210    -18.09890    2.00000
  211    -18.09836    2.00000
  212    -18.09820    2.00000
  213    -18.09791    2.00000
  214    -18.09718    2.00000
  215    -18.09644    2.00000
  216    -18.09631    2.00000
  217    -18.09599    2.00000
  218    -18.09541    2.00000
  219    -18.09433    2.00000
  220    -18.09290    2.00000
  221    -18.09177    2.00000
  222    -18.09083    2.00000
  223    -18.09037    2.00000
  224    -18.08950    2.00000
  225    -18.08773    2.00000
  226    -18.08541    2.00000
  227    -18.08513    2.00000
  228    -18.08477    2.00000
  229    -18.08448    2.00000
  230    -18.08261    2.00000
  231    -18.08203    2.00000
  232    -18.08168    2.00000
  233    -18.08140    2.00000
  234    -18.08132    2.00000
  235    -18.08039    2.00000
  236    -18.08019    2.00000
  237    -18.08007    2.00000
  238    -18.07849    2.00000
  239    -18.07833    2.00000
  240    -18.07740    2.00000
  241    -18.07677    2.00000
  242    -18.07615    2.00000
  243    -18.07543    2.00000
  244    -18.07383    2.00000
  245    -18.07316    2.00000
  246    -18.07279    2.00000
  247    -18.07233    2.00000
  248    -18.07184    2.00000
  249    -18.07176    2.00000
  250    -18.07127    2.00000
  251    -18.07080    2.00000
  252    -18.07031    2.00000
  253    -18.07004    2.00000
  254    -18.06973    2.00000
  255    -18.06930    2.00000
  256    -18.06883    2.00000
  257    -18.06814    2.00000
  258    -18.06785    2.00000
  259    -18.06742    2.00000
  260    -18.06731    2.00000
  261    -18.06699    2.00000
  262    -18.06693    2.00000
  263    -18.06641    2.00000
  264    -18.06578    2.00000
  265    -18.06565    2.00000
  266    -18.06537    2.00000
  267    -18.06529    2.00000
  268    -18.06507    2.00000
  269    -18.06390    2.00000
  270    -18.06354    2.00000
  271    -18.06315    2.00000
  272    -18.06298    2.00000
  273    -18.06270    2.00000
  274    -18.06218    2.00000
  275    -18.06150    2.00000
  276    -18.06108    2.00000
  277    -18.06068    2.00000
  278    -18.06028    2.00000
  279    -18.05945    2.00000
  280    -18.05912    2.00000
  281    -18.05910    2.00000
  282    -18.05841    2.00000
  283    -18.05801    2.00000
  284    -18.05754    2.00000
  285    -18.05689    2.00000
  286    -18.05658    2.00000
  287    -18.05635    2.00000
  288    -18.05590    2.00000
  289    -18.05528    2.00000
  290    -18.05284    2.00000
  291    -18.05156    2.00000
  292     -4.53943    2.00000
  293     -4.19500    1.99999
  294     -4.18653    1.99999
  295     -4.14913    1.99998
  296     -3.85223    1.99989
  297     -3.84997    1.99989
  298     -3.81455    1.99986
  299     -3.79838    1.99984
  300     -3.53889    1.99911
  301     -3.51901    1.99898
  302     -3.51350    1.99894
  303     -3.50986    1.99892
  304     -3.50881    1.99891
  305     -3.47145    1.99860
  306     -3.46358    1.99853
  307     -3.22057    1.99258
  308     -3.18916    1.99086
  309     -3.18631    1.99069
  310     -3.17185    1.98975
  311     -3.14564    1.98780
  312     -3.13999    1.98734
  313     -3.13527    1.98694
  314     -3.13177    1.98663
  315     -2.88467    1.93246
  316     -2.84421    1.91247
  317     -2.81861    1.89701
  318     -2.81767    1.89640
  319     -2.72478    1.81574
  320     -2.57081    1.55855
  321     -2.54443    1.49511
  322     -2.54301    1.49151
  323     -2.54247    1.49015
  324     -2.54010    1.48411
  325     -2.53282    1.46532
  326     -2.51968    1.43033
  327     -2.51625    1.42096
  328     -2.41798    1.12071
  329     -2.35681    0.91759
  330     -2.22742    0.52702
  331     -2.21062    0.48469
  332     -2.18768    0.43078
  333     -2.18659    0.42832
  334     -2.18610    0.42722
  335     -2.18205    0.41822
  336     -2.10501    0.27318
  337     -2.04405    0.19065
  338     -1.94491    0.10320
  339     -1.94462    0.10301
  340     -1.91934    0.08774
  341     -1.75338    0.02990
  342     -1.75275    0.02977
  343     -1.73188    0.02596
  344     -1.71203    0.02278
  345     -1.66876    0.01712
  346     -1.64956    0.01508
  347     -1.64910    0.01503
  348     -1.64346    0.01448
  349     -1.64271    0.01441
  350     -1.62646    0.01294
  351     -1.62173    0.01254
  352     -1.60826    0.01147
  353     -1.60581    0.01128
  354     -1.59962    0.01083
  355     -1.58728    0.00998
  356     -1.58604    0.00990
  357     -1.58552    0.00986
  358     -1.52996    0.00682
  359     -1.41562    0.00319
  360     -1.40975    0.00307
  361     -1.36954    0.00235
  362     -1.34240    0.00196
  363     -1.31432    0.00162
  364     -1.27206    0.00123

Fermi level: -2.38159

Gap: 0.061 eV
Transition (v -> c):
  (s=0, k=0, n=328, [0.00, 0.00, 0.00]) -> (s=0, k=0, n=329, [0.00, 0.00, 0.00])
No difference between direct/indirect transitions

Forces in eV/Ang:
  0 K    -0.00031    0.00006   -0.02521
  1 K    -0.00598    0.00484   -0.02947
  2 K     0.00133   -0.00327   -0.01221
  3 K    -0.00457    0.00264   -0.01038
  4 K     0.01261   -0.00098    0.03472
  5 K     0.02058   -0.02094    0.02384
  6 K    -0.07091   -0.04517   -0.01484
  7 K     0.01271    0.00238    0.02660
  8 K    -0.00123   -0.00002   -0.02633
  9 K     0.00207   -0.00146   -0.02136
 10 K    -0.01378    0.00632   -0.03736
 11 K    -0.00027   -0.00114    0.00608
 12 K    -0.01041    0.00145    0.02428
 13 K    -0.00482   -0.00104    0.02965
 14 K    -0.01156   -0.00654    0.03740
 15 K     0.00616   -0.00106    0.02959
 16 K    -0.00249   -0.00005   -0.02574
 17 K    -0.00649   -0.00335   -0.02838
 18 K    -0.00904   -0.00267   -0.02416
 19 K    -0.00318   -0.00162   -0.00877
 20 K    -0.00970   -0.00083    0.02278
 21 K    -0.00355    0.01997    0.01487
 22 K     0.00700   -0.00232    0.02048
 23 K     0.00240   -0.00156    0.01663
 24 K    -0.00368    0.00038   -0.02277
 25 K     0.00031   -0.00014   -0.02643
 26 K     0.00480   -0.00278   -0.00433
 27 K     0.01375    0.01291   -0.01888
 28 K    -0.00966    0.02102    0.02609
 29 K    -0.02280    0.00700    0.02488
 30 K    -0.00855   -0.00131    0.03193
 31 K     0.05662    0.03993   -0.00319
 32 K     0.00647   -0.00723   -0.02806
 33 K     0.00252    0.00002   -0.02448
 34 K     0.00368    0.00139   -0.00836
 35 K    -0.00544    0.01887   -0.02286
 36 K     0.01955   -0.01628    0.02316
 37 K     0.00270    0.00091    0.01942
 38 K    -0.00412    0.00288    0.01755
 39 K     0.00239    0.00955    0.02045
 40 K     0.00764    0.00680   -0.02801
 41 K     0.00123    0.00011   -0.02638
 42 K    -0.00033    0.00154    0.00255
 43 K     0.01316   -0.03231   -0.04120
 44 K     0.00717   -0.00383    0.02633
 45 K     0.00873    0.00003    0.02558
 46 K    -0.00902    0.00020    0.02866
 47 K     0.00251    0.00836    0.03839
 48 K     0.00422   -0.00075   -0.02393
 49 K     0.00545    0.00601   -0.03054
 50 K    -0.00530   -0.00003    0.00104
 51 K    -0.00965    0.01142   -0.00746
 52 K     0.00172   -0.00145    0.01280
 53 K    -0.00330   -0.00349    0.01526
 54 K     0.00144   -0.00010    0.02732
 55 K    -0.00280    0.00103    0.02604
 56 K    -0.00461   -0.00381   -0.03171
 57 K    -0.00565    0.00068   -0.02661
 58 K     0.01034   -0.01130   -0.00729
 59 K     0.00544   -0.00001    0.00241
 60 K     0.00460    0.00418    0.01314
 61 K    -0.00088    0.00050    0.01115
 62 K     0.00684   -0.00451    0.02709
 63 K    -0.00303   -0.00471    0.03027
 64 K    -0.00404    0.00454   -0.03331
 65 K     0.00462   -0.00669   -0.03171
 66 K     0.00962    0.01131   -0.00746
 67 K    -0.01032   -0.01146   -0.00708
 68 K     0.00347   -0.00469    0.01255
 69 K    -0.00301    0.00353    0.01503
 70 K     0.00737    0.00505    0.02702
 71 K    -0.00694    0.00168    0.02827
 72 K     0.00769    0.00830    0.07785

System changes: positions 

Initializing position-dependent things.

Density initialized from wave functions
           .------------------------------------------------------.  
          /|                                                      |  
         / |                                                      |  
        /  |                                                      |  
       /   |                                                      |  
      /    |                                                      |  
     /     |                                                      |  
    /      |                                                      |  
   /       |                                                      |  
  /        |                                                      |  
 *         |                                                      |  
 |         |                                                      |  
 |         |                                                      |  
 |         |                                                      |  
 |       K |                K                 K                   |  
 |         |     K                 K                  K           |  
 |         |                                                      |  
 |    K    |    K       K    K             K    K                 K  
 |         |                         K                 K          |  
 |         |  K   K             K                 K               |  
 | K       |              K            K    K                  K  |  
 |         |         K                                            |  
 |         |   K            K     K            K    K             |  
 |       KK|           K    K            K    K            K      |  
 |         |                                                      |  
 |         |K    K            K    K             K   K            |  
 |    K    |            K                  K                      |  
 |         |       K                 K                 K          |  
 |         | K                  K                 K               |  
 |      K  |              K                 K                     |  
 | K       |         K                 K                          |  
 |        K|   K             K   K             K    K             |  
 |  K      |           K                 K                        |  
 |         |                                                      |  
 |         |K                 K                  K                |  
 |         |                                                      |  
 K         |       K                  K                           |  
 |         |                                                      |  
 |         .------------------------------------------------------.  
 |        /                                                      /   
 |       /                                                      /    
 |      /                                                      /     
 |     /                                                      /      
 |    /                                                      /       
 |   /                                                      /        
 |  /                                                      /         
 | /                                                      /          
 |/                                                      /           
 *------------------------------------------------------*            

Atomic positions and initial magnetic moments

Positions:
   0 K      0.000000    0.000000   10.000000    ( 0.0000,  0.0000,  0.0000)
   1 K      3.698168    2.615000   10.000000    ( 0.0000,  0.0000,  0.0000)
   2 K      3.698168    0.000000   13.698168    ( 0.0000,  0.0000,  0.0000)
   3 K      0.000000    2.615000   13.698168    ( 0.0000,  0.0000,  0.0000)
   4 K     -0.020619   -0.001776   17.380190    ( 0.0000,  0.0000,  0.0000)
   5 K      3.670212    2.709237   17.282362    ( 0.0000,  0.0000,  0.0000)
   6 K      3.739666    0.029282   20.777159    ( 0.0000,  0.0000,  0.0000)
   7 K      0.022552    2.592850   21.199077    ( 0.0000,  0.0000,  0.0000)
   8 K      0.000000    5.230000   10.000000    ( 0.0000,  0.0000,  0.0000)
   9 K      3.698168    7.845000   10.000000    ( 0.0000,  0.0000,  0.0000)
  10 K      3.698168    5.230000   13.698168    ( 0.0000,  0.0000,  0.0000)
  11 K      0.000000    7.845000   13.698168    ( 0.0000,  0.0000,  0.0000)
  12 K     -0.004419    5.232133   17.411997    ( 0.0000,  0.0000,  0.0000)
  13 K      3.699042    7.841105   17.417051    ( 0.0000,  0.0000,  0.0000)
  14 K      3.732135    5.178368   21.220406    ( 0.0000,  0.0000,  0.0000)
  15 K      0.003427    7.841332   21.155565    ( 0.0000,  0.0000,  0.0000)
  16 K      0.000000   10.460000   10.000000    ( 0.0000,  0.0000,  0.0000)
  17 K      3.698168   13.075000   10.000000    ( 0.0000,  0.0000,  0.0000)
  18 K      3.698168   10.460000   13.698168    ( 0.0000,  0.0000,  0.0000)
  19 K      0.000000   13.075000   13.698168    ( 0.0000,  0.0000,  0.0000)
  20 K     -0.002617   10.459702   17.407384    ( 0.0000,  0.0000,  0.0000)
  21 K      3.681969   12.983377   17.315495    ( 0.0000,  0.0000,  0.0000)
  22 K      3.699430   10.479236   21.182778    ( 0.0000,  0.0000,  0.0000)
  23 K      0.023674   13.100083   21.199026    ( 0.0000,  0.0000,  0.0000)
  24 K      7.396337    0.000000   10.000000    ( 0.0000,  0.0000,  0.0000)
  25 K     11.094505    2.615000   10.000000    ( 0.0000,  0.0000,  0.0000)
  26 K     11.094505    0.000000   13.698168    ( 0.0000,  0.0000,  0.0000)
  27 K      7.396337    2.615000   13.698168    ( 0.0000,  0.0000,  0.0000)
  28 K      7.408759   -0.116504   17.263485    ( 0.0000,  0.0000,  0.0000)
  29 K     11.124668    2.613590   17.386514    ( 0.0000,  0.0000,  0.0000)
  30 K     11.061355    0.031981   21.196573    ( 0.0000,  0.0000,  0.0000)
  31 K      7.384248    2.602984   20.726776    ( 0.0000,  0.0000,  0.0000)
  32 K      7.396337    5.230000   10.000000    ( 0.0000,  0.0000,  0.0000)
  33 K     11.094505    7.845000   10.000000    ( 0.0000,  0.0000,  0.0000)
  34 K     11.094505    5.230000   13.698168    ( 0.0000,  0.0000,  0.0000)
  35 K      7.396337    7.845000   13.698168    ( 0.0000,  0.0000,  0.0000)
  36 K      7.403484    5.336708   17.286211    ( 0.0000,  0.0000,  0.0000)
  37 K     11.103404    7.842386   17.409394    ( 0.0000,  0.0000,  0.0000)
  38 K     11.062991    5.209163   21.200561    ( 0.0000,  0.0000,  0.0000)
  39 K      7.390834    7.815772   21.189493    ( 0.0000,  0.0000,  0.0000)
  40 K      7.396337   10.460000   10.000000    ( 0.0000,  0.0000,  0.0000)
  41 K     11.094505   13.075000   10.000000    ( 0.0000,  0.0000,  0.0000)
  42 K     11.094505   10.460000   13.698168    ( 0.0000,  0.0000,  0.0000)
  43 K      7.396337   13.075000   13.698168    ( 0.0000,  0.0000,  0.0000)
  44 K      7.407710   10.470858   17.424802    ( 0.0000,  0.0000,  0.0000)
  45 K     11.107480   13.079875   17.418685    ( 0.0000,  0.0000,  0.0000)
  46 K     11.091593   10.455241   21.168505    ( 0.0000,  0.0000,  0.0000)
  47 K      7.376272   13.119895   21.215079    ( 0.0000,  0.0000,  0.0000)
  48 K     14.792674    0.000000   10.000000    ( 0.0000,  0.0000,  0.0000)
  49 K     18.490842    2.615000   10.000000    ( 0.0000,  0.0000,  0.0000)
  50 K     18.490842    0.000000   13.698168    ( 0.0000,  0.0000,  0.0000)
  51 K     14.792674    2.615000   13.698168    ( 0.0000,  0.0000,  0.0000)
  52 K     14.805312   -0.002743   17.410096    ( 0.0000,  0.0000,  0.0000)
  53 K     18.498452    2.624390   17.417550    ( 0.0000,  0.0000,  0.0000)
  54 K     18.481339    0.000572   21.166930    ( 0.0000,  0.0000,  0.0000)
  55 K     14.787232    2.616112   21.158831    ( 0.0000,  0.0000,  0.0000)
  56 K     14.792674    5.230000   10.000000    ( 0.0000,  0.0000,  0.0000)
  57 K     18.490842    7.845000   10.000000    ( 0.0000,  0.0000,  0.0000)
  58 K     18.490842    5.230000   13.698168    ( 0.0000,  0.0000,  0.0000)
  59 K     14.792674    7.845000   13.698168    ( 0.0000,  0.0000,  0.0000)
  60 K     14.785845    5.222822   17.418417    ( 0.0000,  0.0000,  0.0000)
  61 K     18.480906    7.845732   17.403679    ( 0.0000,  0.0000,  0.0000)
  62 K     18.493676    5.227736   21.160402    ( 0.0000,  0.0000,  0.0000)
  63 K     14.797902    7.841309   21.163267    ( 0.0000,  0.0000,  0.0000)
  64 K     14.792674   10.460000   10.000000    ( 0.0000,  0.0000,  0.0000)
  65 K     18.490842   13.075000   10.000000    ( 0.0000,  0.0000,  0.0000)
  66 K     18.490842   10.460000   13.698168    ( 0.0000,  0.0000,  0.0000)
  67 K     14.792674   13.075000   13.698168    ( 0.0000,  0.0000,  0.0000)
  68 K     14.784225   10.468795   17.414943    ( 0.0000,  0.0000,  0.0000)
  69 K     18.498659   13.065147   17.414509    ( 0.0000,  0.0000,  0.0000)
  70 K     18.494056   10.462168   21.160998    ( 0.0000,  0.0000,  0.0000)
  71 K     14.785458   13.077201   21.158743    ( 0.0000,  0.0000,  0.0000)
  72 K      5.552361    1.311352   24.297575    ( 0.0000,  0.0000,  0.0000)

Unit cell:
           periodic     x           y           z      points  spacing
  1. axis:    yes   22.189011    0.000000    0.000000   112     0.1981
  2. axis:    yes    0.000000   15.690000    0.000000    80     0.1961
  3. axis:    no     0.000000    0.000000   31.094505   156     0.1993

  Lengths:  22.189011  15.690000  31.094505
  Angles:   90.000000  90.000000  90.000000

Effective grid spacing dv^(1/3) = 0.1979

     iter     time        total  log10-change:
                         energy   eigst   dens
iter:   1 00:24:52   -61.493963        c
iter:   2 00:25:39   -61.493923        c -3.96
iter:   3 00:26:27   -61.493890c       c -4.10c

Converged after 3 iterations.

Dipole moment: (-91.016343, -57.579442, 0.456489) |e|*Ang

Energy contributions relative to reference atoms: (reference = -1195904.484944)

Kinetic:       +120.561228
Potential:     -103.657912
External:        +0.000000
XC:             -78.801916
Entropy (-ST):   -3.799681
Local:           +2.304550
SIC:             +0.000000
--------------------------
Free energy:    -63.393730
Extrapolated:   -61.493890

 Band  Eigenvalues  Occupancy
    0    -35.23901    2.00000
    1    -34.77347    2.00000
    2    -34.77289    2.00000
    3    -34.77133    2.00000
    4    -34.77075    2.00000
    5    -34.76191    2.00000
    6    -34.76171    2.00000
    7    -34.76103    2.00000
    8    -34.76043    2.00000
    9    -34.76007    2.00000
   10    -34.76003    2.00000
   11    -34.75712    2.00000
   12    -34.75679    2.00000
   13    -34.75670    2.00000
   14    -34.75652    2.00000
   15    -34.75489    2.00000
   16    -34.75470    2.00000
   17    -34.75454    2.00000
   18    -34.75446    2.00000
   19    -34.75425    2.00000
   20    -34.75410    2.00000
   21    -34.75384    2.00000
   22    -34.75378    2.00000
   23    -34.75360    2.00000
   24    -34.75316    2.00000
   25    -34.75278    2.00000
   26    -34.75267    2.00000
   27    -34.75227    2.00000
   28    -34.75092    2.00000
   29    -34.75083    2.00000
   30    -34.75064    2.00000
   31    -34.74694    2.00000
   32    -34.74612    2.00000
   33    -34.73320    2.00000
   34    -34.73234    2.00000
   35    -34.65172    2.00000
   36    -34.64888    2.00000
   37    -34.60868    2.00000
   38    -34.60771    2.00000
   39    -34.60560    2.00000
   40    -34.60443    2.00000
   41    -34.60421    2.00000
   42    -34.60382    2.00000
   43    -34.60370    2.00000
   44    -34.60349    2.00000
   45    -34.60313    2.00000
   46    -34.60293    2.00000
   47    -34.60244    2.00000
   48    -34.60232    2.00000
   49    -34.60209    2.00000
   50    -34.60144    2.00000
   51    -34.60064    2.00000
   52    -34.60046    2.00000
   53    -34.59999    2.00000
   54    -34.59920    2.00000
   55    -34.59887    2.00000
   56    -34.59881    2.00000
   57    -34.59810    2.00000
   58    -34.59779    2.00000
   59    -34.59679    2.00000
   60    -34.59640    2.00000
   61    -34.59569    2.00000
   62    -34.59528    2.00000
   63    -34.59521    2.00000
   64    -34.59506    2.00000
   65    -34.59475    2.00000
   66    -34.59394    2.00000
   67    -34.59305    2.00000
   68    -34.59286    2.00000
   69    -34.59230    2.00000
   70    -34.59134    2.00000
   71    -34.59067    2.00000
   72    -34.59043    2.00000
   73    -18.72944    2.00000
   74    -18.71928    2.00000
   75    -18.70006    2.00000
   76    -18.27744    2.00000
   77    -18.26949    2.00000
   78    -18.26911    2.00000
   79    -18.26742    2.00000
   80    -18.26704    2.00000
   81    -18.26511    2.00000
   82    -18.26462    2.00000
   83    -18.26419    2.00000
   84    -18.26391    2.00000
   85    -18.26350    2.00000
   86    -18.26216    2.00000
   87    -18.26129    2.00000
   88    -18.26111    2.00000
   89    -18.25906    2.00000
   90    -18.25882    2.00000
   91    -18.25872    2.00000
   92    -18.25861    2.00000
   93    -18.25798    2.00000
   94    -18.25754    2.00000
   95    -18.25686    2.00000
   96    -18.25653    2.00000
   97    -18.25601    2.00000
   98    -18.25589    2.00000
   99    -18.25504    2.00000
  100    -18.25459    2.00000
  101    -18.25448    2.00000
  102    -18.25414    2.00000
  103    -18.25388    2.00000
  104    -18.25364    2.00000
  105    -18.25317    2.00000
  106    -18.25303    2.00000
  107    -18.25256    2.00000
  108    -18.25199    2.00000
  109    -18.25197    2.00000
  110    -18.25185    2.00000
  111    -18.25166    2.00000
  112    -18.25162    2.00000
  113    -18.25131    2.00000
  114    -18.25075    2.00000
  115    -18.25014    2.00000
  116    -18.24998    2.00000
  117    -18.24989    2.00000
  118    -18.24951    2.00000
  119    -18.24928    2.00000
  120    -18.24878    2.00000
  121    -18.24872    2.00000
  122    -18.24863    2.00000
  123    -18.24853    2.00000
  124    -18.24824    2.00000
  125    -18.24796    2.00000
  126    -18.24779    2.00000
  127    -18.24673    2.00000
  128    -18.24638    2.00000
  129    -18.24609    2.00000
  130    -18.24590    2.00000
  131    -18.24580    2.00000
  132    -18.24460    2.00000
  133    -18.24235    2.00000
  134    -18.23968    2.00000
  135    -18.23881    2.00000
  136    -18.23795    2.00000
  137    -18.23731    2.00000
  138    -18.23668    2.00000
  139    -18.23586    2.00000
  140    -18.23338    2.00000
  141    -18.23313    2.00000
  142    -18.23222    2.00000
  143    -18.23011    2.00000
  144    -18.22923    2.00000
  145    -18.22851    2.00000
  146    -18.22770    2.00000
  147    -18.22641    2.00000
  148    -18.22580    2.00000
  149    -18.22558    2.00000
  150    -18.22479    2.00000
  151    -18.22414    2.00000
  152    -18.22321    2.00000
  153    -18.22240    2.00000
  154    -18.22114    2.00000
  155    -18.22052    2.00000
  156    -18.21979    2.00000
  157    -18.21945    2.00000
  158    -18.21906    2.00000
  159    -18.21832    2.00000
  160    -18.21809    2.00000
  161    -18.21777    2.00000
  162    -18.21750    2.00000
  163    -18.21744    2.00000
  164    -18.21590    2.00000
  165    -18.21540    2.00000
  166    -18.21534    2.00000
  167    -18.21354    2.00000
  168    -18.21092    2.00000
  169    -18.20995    2.00000
  170    -18.20973    2.00000
  171    -18.20927    2.00000
  172    -18.20875    2.00000
  173    -18.20740    2.00000
  174    -18.20670    2.00000
  175    -18.20454    2.00000
  176    -18.20230    2.00000
  177    -18.20125    2.00000
  178    -18.15658    2.00000
  179    -18.15188    2.00000
  180    -18.15070    2.00000
  181    -18.13555    2.00000
  182    -18.13320    2.00000
  183    -18.12604    2.00000
  184    -18.12523    2.00000
  185    -18.12028    2.00000
  186    -18.11967    2.00000
  187    -18.11936    2.00000
  188    -18.11876    2.00000
  189    -18.11757    2.00000
  190    -18.11721    2.00000
  191    -18.11692    2.00000
  192    -18.11630    2.00000
  193    -18.11461    2.00000
  194    -18.11252    2.00000
  195    -18.11189    2.00000
  196    -18.11131    2.00000
  197    -18.11101    2.00000
  198    -18.11007    2.00000
  199    -18.10908    2.00000
  200    -18.10879    2.00000
  201    -18.10835    2.00000
  202    -18.10744    2.00000
  203    -18.10736    2.00000
  204    -18.10693    2.00000
  205    -18.10633    2.00000
  206    -18.10551    2.00000
  207    -18.10489    2.00000
  208    -18.10421    2.00000
  209    -18.10337    2.00000
  210    -18.10198    2.00000
  211    -18.10150    2.00000
  212    -18.10139    2.00000
  213    -18.10104    2.00000
  214    -18.10037    2.00000
  215    -18.09956    2.00000
  216    -18.09932    2.00000
  217    -18.09917    2.00000
  218    -18.09862    2.00000
  219    -18.09750    2.00000
  220    -18.09609    2.00000
  221    -18.09461    2.00000
  222    -18.09395    2.00000
  223    -18.09347    2.00000
  224    -18.09265    2.00000
  225    -18.09077    2.00000
  226    -18.08850    2.00000
  227    -18.08827    2.00000
  228    -18.08781    2.00000
  229    -18.08768    2.00000
  230    -18.08573    2.00000
  231    -18.08513    2.00000
  232    -18.08475    2.00000
  233    -18.08453    2.00000
  234    -18.08447    2.00000
  235    -18.08355    2.00000
  236    -18.08324    2.00000
  237    -18.08314    2.00000
  238    -18.08148    2.00000
  239    -18.08133    2.00000
  240    -18.08050    2.00000
  241    -18.07991    2.00000
  242    -18.07930    2.00000
  243    -18.07857    2.00000
  244    -18.07695    2.00000
  245    -18.07627    2.00000
  246    -18.07596    2.00000
  247    -18.07550    2.00000
  248    -18.07497    2.00000
  249    -18.07476    2.00000
  250    -18.07436    2.00000
  251    -18.07381    2.00000
  252    -18.07337    2.00000
  253    -18.07305    2.00000
  254    -18.07269    2.00000
  255    -18.07244    2.00000
  256    -18.07201    2.00000
  257    -18.07144    2.00000
  258    -18.07091    2.00000
  259    -18.07054    2.00000
  260    -18.07044    2.00000
  261    -18.07017    2.00000
  262    -18.07008    2.00000
  263    -18.06951    2.00000
  264    -18.06889    2.00000
  265    -18.06868    2.00000
  266    -18.06838    2.00000
  267    -18.06828    2.00000
  268    -18.06810    2.00000
  269    -18.06694    2.00000
  270    -18.06664    2.00000
  271    -18.06622    2.00000
  272    -18.06590    2.00000
  273    -18.06568    2.00000
  274    -18.06529    2.00000
  275    -18.06459    2.00000
  276    -18.06436    2.00000
  277    -18.06373    2.00000
  278    -18.06316    2.00000
  279    -18.06257    2.00000
  280    -18.06221    2.00000
  281    -18.06212    2.00000
  282    -18.06156    2.00000
  283    -18.06130    2.00000
  284    -18.06071    2.00000
  285    -18.06027    2.00000
  286    -18.05944    2.00000
  287    -18.05922    2.00000
  288    -18.05905    2.00000
  289    -18.05856    2.00000
  290    -18.05538    2.00000
  291    -18.05490    2.00000
  292     -4.54102    2.00000
  293     -4.19660    1.99999
  294     -4.18817    1.99999
  295     -4.15113    1.99998
  296     -3.85385    1.99989
  297     -3.85156    1.99989
  298     -3.81661    1.99986
  299     -3.80045    1.99984
  300     -3.54046    1.99911
  301     -3.52056    1.99898
  302     -3.51501    1.99894
  303     -3.51152    1.99892
  304     -3.51034    1.99891
  305     -3.47337    1.99861
  306     -3.46563    1.99853
  307     -3.22207    1.99258
  308     -3.19078    1.99086
  309     -3.18792    1.99069
  310     -3.17320    1.98973
  311     -3.14753    1.98783
  312     -3.14205    1.98738
  313     -3.13736    1.98698
  314     -3.13386    1.98668
  315     -2.88599    1.93235
  316     -2.84553    1.91232
  317     -2.82055    1.89726
  318     -2.81974    1.89673
  319     -2.72620    1.81558
  320     -2.57223    1.55821
  321     -2.54604    1.49520
  322     -2.54463    1.49163
  323     -2.54407    1.49024
  324     -2.54171    1.48423
  325     -2.53411    1.46460
  326     -2.52103    1.42971
  327     -2.51759    1.42033
  328     -2.41940    1.12021
  329     -2.35827    0.91721
  330     -2.22879    0.52651
  331     -2.21203    0.48433
  332     -2.18953    0.43141
  333     -2.18866    0.42944
  334     -2.18806    0.42810
  335     -2.18415    0.41940
  336     -2.10646    0.27300
  337     -2.04547    0.19048
  338     -1.94651    0.10322
  339     -1.94621    0.10303
  340     -1.92076    0.08765
  341     -1.75484    0.02988
  342     -1.75422    0.02975
  343     -1.73336    0.02594
  344     -1.71345    0.02275
  345     -1.67032    0.01712
  346     -1.65111    0.01507
  347     -1.65068    0.01503
  348     -1.64510    0.01449
  349     -1.64435    0.01441
  350     -1.62773    0.01291
  351     -1.62313    0.01252
  352     -1.60965    0.01146
  353     -1.60724    0.01127
  354     -1.60097    0.01081
  355     -1.58901    0.00999
  356     -1.58802    0.00992
  357     -1.58720    0.00987
  358     -1.53136    0.00681
  359     -1.41682    0.00318
  360     -1.41104    0.00306
  361     -1.37162    0.00235
  362     -1.34378    0.00196
  363     -1.31582    0.00162
  364     -1.27409    0.00123

Fermi level: -2.38316

Gap: 0.061 eV
Transition (v -> c):
  (s=0, k=0, n=328, [0.00, 0.00, 0.00]) -> (s=0, k=0, n=329, [0.00, 0.00, 0.00])
No difference between direct/indirect transitions

Forces in eV/Ang:
  0 K     0.00018    0.00016   -0.02840
  1 K    -0.00565    0.00486   -0.03334
  2 K     0.00147   -0.00361   -0.00829
  3 K    -0.00487    0.00297   -0.00682
  4 K     0.01296   -0.00068    0.03160
  5 K     0.02049   -0.02022    0.01994
  6 K    -0.06904   -0.04428   -0.01248
  7 K     0.01117    0.00245    0.02802
  8 K    -0.00042   -0.00026   -0.02913
  9 K     0.00268   -0.00127   -0.02416
 10 K    -0.01368    0.00695   -0.03354
 11 K    -0.00052   -0.00065    0.00967
 12 K    -0.00971    0.00090    0.02140
 13 K    -0.00443   -0.00196    0.02653
 14 K    -0.01148   -0.00617    0.03829
 15 K     0.00551   -0.00108    0.03166
 16 K    -0.00131    0.00009   -0.02794
 17 K    -0.00610   -0.00356   -0.03168
 18 K    -0.00909   -0.00296   -0.02129
 19 K    -0.00359   -0.00244   -0.00532
 20 K    -0.00978   -0.00055    0.01912
 21 K    -0.00302    0.01982    0.01127
 22 K     0.00650   -0.00273    0.02179
 23 K     0.00147   -0.00184    0.01849
 24 K    -0.00401    0.00037   -0.02660
 25 K    -0.00017   -0.00022   -0.02962
 26 K     0.00511   -0.00317   -0.00085
 27 K     0.01358    0.01328   -0.01499
 28 K    -0.00967    0.02030    0.02245
 29 K    -0.02263    0.00634    0.02225
 30 K    -0.00724   -0.00122    0.03315
 31 K     0.05462    0.03868   -0.00110
 32 K     0.00608   -0.00703   -0.03135
 33 K     0.00135   -0.00013   -0.02669
 34 K     0.00411    0.00227   -0.00506
 35 K    -0.00542    0.01907   -0.01999
 36 K     0.01834   -0.01622    0.01955
 37 K     0.00311    0.00075    0.01571
 38 K    -0.00314    0.00301    0.01949
 39 K     0.00252    0.00960    0.02188
 40 K     0.00703    0.00661   -0.03082
 41 K     0.00043    0.00033   -0.02918
 42 K    -0.00006    0.00109    0.00614
 43 K     0.01312   -0.03287   -0.03739
 44 K     0.00685   -0.00269    0.02304
 45 K     0.00801    0.00043    0.02260
 46 K    -0.00837    0.00035    0.03067
 47 K     0.00258    0.00841    0.03944
 48 K     0.00406   -0.00031   -0.02631
 49 K     0.00561    0.00559   -0.03292
 50 K    -0.00573   -0.00031    0.00436
 51 K    -0.00922    0.01170   -0.00410
 52 K     0.00130   -0.00168    0.00967
 53 K    -0.00300   -0.00304    0.01204
 54 K     0.00163   -0.00006    0.02987
 55 K    -0.00309    0.00108    0.02854
 56 K    -0.00503   -0.00456   -0.03382
 57 K    -0.00513    0.00036   -0.02850
 58 K     0.00992   -0.01088   -0.00324
 59 K     0.00555    0.00017    0.00711
 60 K     0.00474    0.00464    0.00935
 61 K    -0.00151    0.00082    0.00710
 62 K     0.00708   -0.00447    0.02944
 63 K    -0.00274   -0.00453    0.03265
 64 K    -0.00458    0.00485   -0.03521
 65 K     0.00502   -0.00595   -0.03381
 66 K     0.00951    0.01117   -0.00270
 67 K    -0.00990   -0.01194   -0.00300
 68 K     0.00406   -0.00488    0.00851
 69 K    -0.00328    0.00276    0.01120
 70 K     0.00708    0.00495    0.02933
 71 K    -0.00716    0.00148    0.03061
 72 K     0.00734    0.00829    0.07748

System changes: positions 

Initializing position-dependent things.

Density initialized from wave functions
           .------------------------------------------------------.  
          /|                                                      |  
         / |                                                      |  
        /  |                                                      |  
       /   |                                                      |  
      /    |                                                      |  
     /     |                                                      |  
    /      |                                                      |  
   /       |                                                      |  
  /        |                                                      |  
 *         |                                                      |  
 |         |                                                      |  
 |         |                                                      |  
 |         |                                                      |  
 |       K |                K                 K                   |  
 |         |     K                 K                  K           |  
 |         |                                                      |  
 |    K    |    K       K    K             K    K                 K  
 |         |                         K                 K          |  
 |         |  K   K             K                 K               |  
 | K       |              K            K    K                  K  |  
 |         |         K                                            |  
 |         |   K            K     K            K    K             |  
 |       KK|           K    K            K    K            K      |  
 |         |                                                      |  
 |         |K    K            K    K             K   K            |  
 |    K    |            K                  K                      |  
 |         |       K                 K                 K          |  
 |         | K                  K                 K               |  
 |      K  |              K                 K                     |  
 | K       |         K                 K                          |  
 |        K|   K             K   K             K    K             |  
 |  K      |           K                 K                        |  
 |         |                                                      |  
 |         |K                 K                  K                |  
 |         |                                                      |  
 K         |       K                  K                           |  
 |         |                                                      |  
 |         .------------------------------------------------------.  
 |        /                                                      /   
 |       /                                                      /    
 |      /                                                      /     
 |     /                                                      /      
 |    /                                                      /       
 |   /                                                      /        
 |  /                                                      /         
 | /                                                      /          
 |/                                                      /           
 *------------------------------------------------------*            

Atomic positions and initial magnetic moments

Positions:
   0 K      0.000000    0.000000   10.000000    ( 0.0000,  0.0000,  0.0000)
   1 K      3.698168    2.615000   10.000000    ( 0.0000,  0.0000,  0.0000)
   2 K      3.698168    0.000000   13.698168    ( 0.0000,  0.0000,  0.0000)
   3 K      0.000000    2.615000   13.698168    ( 0.0000,  0.0000,  0.0000)
   4 K     -0.020364   -0.001792   17.380846    ( 0.0000,  0.0000,  0.0000)
   5 K      3.670626    2.708835   17.282786    ( 0.0000,  0.0000,  0.0000)
   6 K      3.738264    0.028384   20.776836    ( 0.0000,  0.0000,  0.0000)
   7 K      0.022791    2.592896   21.199627    ( 0.0000,  0.0000,  0.0000)
   8 K      0.000000    5.230000   10.000000    ( 0.0000,  0.0000,  0.0000)
   9 K      3.698168    7.845000   10.000000    ( 0.0000,  0.0000,  0.0000)
  10 K      3.698168    5.230000   13.698168    ( 0.0000,  0.0000,  0.0000)
  11 K      0.000000    7.845000   13.698168    ( 0.0000,  0.0000,  0.0000)
  12 K     -0.004619    5.232156   17.412449    ( 0.0000,  0.0000,  0.0000)
  13 K      3.698951    7.841075   17.417608    ( 0.0000,  0.0000,  0.0000)
  14 K      3.731900    5.178243   21.221161    ( 0.0000,  0.0000,  0.0000)
  15 K      0.003542    7.841311   21.156179    ( 0.0000,  0.0000,  0.0000)
  16 K      0.000000   10.460000   10.000000    ( 0.0000,  0.0000,  0.0000)
  17 K      3.698168   13.075000   10.000000    ( 0.0000,  0.0000,  0.0000)
  18 K      3.698168   10.460000   13.698168    ( 0.0000,  0.0000,  0.0000)
  19 K      0.000000   13.075000   13.698168    ( 0.0000,  0.0000,  0.0000)
  20 K     -0.002812   10.459689   17.407799    ( 0.0000,  0.0000,  0.0000)
  21 K      3.681905   12.983766   17.315739    ( 0.0000,  0.0000,  0.0000)
  22 K      3.699565   10.479186   21.183204    ( 0.0000,  0.0000,  0.0000)
  23 K      0.023714   13.100050   21.199380    ( 0.0000,  0.0000,  0.0000)
  24 K      7.396337    0.000000   10.000000    ( 0.0000,  0.0000,  0.0000)
  25 K     11.094505    2.615000   10.000000    ( 0.0000,  0.0000,  0.0000)
  26 K     11.094505    0.000000   13.698168    ( 0.0000,  0.0000,  0.0000)
  27 K      7.396337    2.615000   13.698168    ( 0.0000,  0.0000,  0.0000)
  28 K      7.408567   -0.116078   17.263976    ( 0.0000,  0.0000,  0.0000)
  29 K     11.124211    2.613723   17.386984    ( 0.0000,  0.0000,  0.0000)
  30 K     11.061202    0.031952   21.197219    ( 0.0000,  0.0000,  0.0000)
  31 K      7.385357    2.603767   20.726786    ( 0.0000,  0.0000,  0.0000)
  32 K      7.396337    5.230000   10.000000    ( 0.0000,  0.0000,  0.0000)
  33 K     11.094505    7.845000   10.000000    ( 0.0000,  0.0000,  0.0000)
  34 K     11.094505    5.230000   13.698168    ( 0.0000,  0.0000,  0.0000)
  35 K      7.396337    7.845000   13.698168    ( 0.0000,  0.0000,  0.0000)
  36 K      7.403863    5.336369   17.286648    ( 0.0000,  0.0000,  0.0000)
  37 K     11.103461    7.842403   17.409740    ( 0.0000,  0.0000,  0.0000)
  38 K     11.062923    5.209225   21.200928    ( 0.0000,  0.0000,  0.0000)
  39 K      7.390883    7.815967   21.189914    ( 0.0000,  0.0000,  0.0000)
  40 K      7.396337   10.460000   10.000000    ( 0.0000,  0.0000,  0.0000)
  41 K     11.094505   13.075000   10.000000    ( 0.0000,  0.0000,  0.0000)
  42 K     11.094505   10.460000   13.698168    ( 0.0000,  0.0000,  0.0000)
  43 K      7.396337   13.075000   13.698168    ( 0.0000,  0.0000,  0.0000)
  44 K      7.407850   10.470794   17.425291    ( 0.0000,  0.0000,  0.0000)
  45 K     11.107646   13.079880   17.419162    ( 0.0000,  0.0000,  0.0000)
  46 K     11.091420   10.455247   21.169099    ( 0.0000,  0.0000,  0.0000)
  47 K      7.376321   13.120062   21.215858    ( 0.0000,  0.0000,  0.0000)
  48 K     14.792674    0.000000   10.000000    ( 0.0000,  0.0000,  0.0000)
  49 K     18.490842    2.615000   10.000000    ( 0.0000,  0.0000,  0.0000)
  50 K     18.490842    0.000000   13.698168    ( 0.0000,  0.0000,  0.0000)
  51 K     14.792674    2.615000   13.698168    ( 0.0000,  0.0000,  0.0000)
  52 K     14.805341   -0.002774   17.410316    ( 0.0000,  0.0000,  0.0000)
  53 K     18.498389    2.624326   17.417819    ( 0.0000,  0.0000,  0.0000)
  54 K     18.481370    0.000571   21.167503    ( 0.0000,  0.0000,  0.0000)
  55 K     14.787173    2.616133   21.159378    ( 0.0000,  0.0000,  0.0000)
  56 K     14.792674    5.230000   10.000000    ( 0.0000,  0.0000,  0.0000)
  57 K     18.490842    7.845000   10.000000    ( 0.0000,  0.0000,  0.0000)
  58 K     18.490842    5.230000   13.698168    ( 0.0000,  0.0000,  0.0000)
  59 K     14.792674    7.845000   13.698168    ( 0.0000,  0.0000,  0.0000)
  60 K     14.785938    5.222910   17.418637    ( 0.0000,  0.0000,  0.0000)
  61 K     18.480882    7.845745   17.403857    ( 0.0000,  0.0000,  0.0000)
  62 K     18.493815    5.227646   21.160968    ( 0.0000,  0.0000,  0.0000)
  63 K     14.797845    7.841217   21.163897    ( 0.0000,  0.0000,  0.0000)
  64 K     14.792674   10.460000   10.000000    ( 0.0000,  0.0000,  0.0000)
  65 K     18.490842   13.075000   10.000000    ( 0.0000,  0.0000,  0.0000)
  66 K     18.490842   10.460000   13.698168    ( 0.0000,  0.0000,  0.0000)
  67 K     14.792674   13.075000   13.698168    ( 0.0000,  0.0000,  0.0000)
  68 K     14.784301   10.468700   17.415149    ( 0.0000,  0.0000,  0.0000)
  69 K     18.498596   13.065209   17.414767    ( 0.0000,  0.0000,  0.0000)
  70 K     18.494200   10.462267   21.161563    ( 0.0000,  0.0000,  0.0000)
  71 K     14.785318   13.077232   21.159333    ( 0.0000,  0.0000,  0.0000)
  72 K      5.552309    1.311375   24.299126    ( 0.0000,  0.0000,  0.0000)

Unit cell:
           periodic     x           y           z      points  spacing
  1. axis:    yes   22.189011    0.000000    0.000000   112     0.1981
  2. axis:    yes    0.000000   15.690000    0.000000    80     0.1961
  3. axis:    no     0.000000    0.000000   31.094505   156     0.1993

  Lengths:  22.189011  15.690000  31.094505
  Angles:   90.000000  90.000000  90.000000

Effective grid spacing dv^(1/3) = 0.1979

     iter     time        total  log10-change:
                         energy   eigst   dens
iter:   1 01:00:53   -61.494970        c
iter:   2 01:01:53   -61.494819        c -3.69
iter:   3 01:02:46   -61.494862c       c -3.95
iter:   4 01:03:43   -61.494908c       c -4.08c

Converged after 4 iterations.

Dipole moment: (-91.051187, -57.524137, 0.452823) |e|*Ang

Energy contributions relative to reference atoms: (reference = -1195904.484944)

Kinetic:       +122.304595
Potential:     -105.242237
External:        +0.000000
XC:             -78.965611
Entropy (-ST):   -3.799342
Local:           +2.308016
SIC:             +0.000000
--------------------------
Free energy:    -63.394579
Extrapolated:   -61.494908

 Band  Eigenvalues  Occupancy
    0    -35.23688    2.00000
    1    -34.76976    2.00000
    2    -34.76919    2.00000
    3    -34.76784    2.00000
    4    -34.76726    2.00000
    5    -34.75922    2.00000
    6    -34.75860    2.00000
    7    -34.75851    2.00000
    8    -34.75705    2.00000
    9    -34.75664    2.00000
   10    -34.75656    2.00000
   11    -34.75417    2.00000
   12    -34.75411    2.00000
   13    -34.75351    2.00000
   14    -34.75292    2.00000
   15    -34.75194    2.00000
   16    -34.75146    2.00000
   17    -34.75140    2.00000
   18    -34.75136    2.00000
   19    -34.75106    2.00000
   20    -34.75093    2.00000
   21    -34.75087    2.00000
   22    -34.75073    2.00000
   23    -34.75043    2.00000
   24    -34.75030    2.00000
   25    -34.74990    2.00000
   26    -34.74975    2.00000
   27    -34.74881    2.00000
   28    -34.74747    2.00000
   29    -34.74738    2.00000
   30    -34.74719    2.00000
   31    -34.74270    2.00000
   32    -34.74190    2.00000
   33    -34.72919    2.00000
   34    -34.72837    2.00000
   35    -34.64708    2.00000
   36    -34.64431    2.00000
   37    -34.60574    2.00000
   38    -34.60474    2.00000
   39    -34.60370    2.00000
   40    -34.60209    2.00000
   41    -34.60162    2.00000
   42    -34.60134    2.00000
   43    -34.60110    2.00000
   44    -34.60077    2.00000
   45    -34.60064    2.00000
   46    -34.60048    2.00000
   47    -34.60001    2.00000
   48    -34.59983    2.00000
   49    -34.59961    2.00000
   50    -34.59894    2.00000
   51    -34.59794    2.00000
   52    -34.59728    2.00000
   53    -34.59686    2.00000
   54    -34.59642    2.00000
   55    -34.59623    2.00000
   56    -34.59556    2.00000
   57    -34.59551    2.00000
   58    -34.59459    2.00000
   59    -34.59431    2.00000
   60    -34.59388    2.00000
   61    -34.59335    2.00000
   62    -34.59285    2.00000
   63    -34.59267    2.00000
   64    -34.59239    2.00000
   65    -34.59217    2.00000
   66    -34.59156    2.00000
   67    -34.59067    2.00000
   68    -34.59020    2.00000
   69    -34.58958    2.00000
   70    -34.58938    2.00000
   71    -34.58878    2.00000
   72    -34.58816    2.00000
   73    -18.72720    2.00000
   74    -18.71720    2.00000
   75    -18.69807    2.00000
   76    -18.27393    2.00000
   77    -18.26635    2.00000
   78    -18.26594    2.00000
   79    -18.26392    2.00000
   80    -18.26353    2.00000
   81    -18.26170    2.00000
   82    -18.26124    2.00000
   83    -18.26078    2.00000
   84    -18.26046    2.00000
   85    -18.26008    2.00000
   86    -18.25970    2.00000
   87    -18.25861    2.00000
   88    -18.25837    2.00000
   89    -18.25657    2.00000
   90    -18.25578    2.00000
   91    -18.25576    2.00000
   92    -18.25547    2.00000
   93    -18.25463    2.00000
   94    -18.25418    2.00000
   95    -18.25384    2.00000
   96    -18.25352    2.00000
   97    -18.25322    2.00000
   98    -18.25268    2.00000
   99    -18.25185    2.00000
  100    -18.25173    2.00000
  101    -18.25143    2.00000
  102    -18.25121    2.00000
  103    -18.25080    2.00000
  104    -18.25047    2.00000
  105    -18.25016    2.00000
  106    -18.25015    2.00000
  107    -18.24921    2.00000
  108    -18.24903    2.00000
  109    -18.24900    2.00000
  110    -18.24866    2.00000
  111    -18.24850    2.00000
  112    -18.24839    2.00000
  113    -18.24828    2.00000
  114    -18.24796    2.00000
  115    -18.24708    2.00000
  116    -18.24687    2.00000
  117    -18.24678    2.00000
  118    -18.24645    2.00000
  119    -18.24618    2.00000
  120    -18.24590    2.00000
  121    -18.24582    2.00000
  122    -18.24558    2.00000
  123    -18.24530    2.00000
  124    -18.24482    2.00000
  125    -18.24463    2.00000
  126    -18.24451    2.00000
  127    -18.24371    2.00000
  128    -18.24317    2.00000
  129    -18.24277    2.00000
  130    -18.24257    2.00000
  131    -18.24240    2.00000
  132    -18.24070    2.00000
  133    -18.23836    2.00000
  134    -18.23627    2.00000
  135    -18.23596    2.00000
  136    -18.23497    2.00000
  137    -18.23392    2.00000
  138    -18.23328    2.00000
  139    -18.23314    2.00000
  140    -18.22997    2.00000
  141    -18.22964    2.00000
  142    -18.22887    2.00000
  143    -18.22667    2.00000
  144    -18.22633    2.00000
  145    -18.22513    2.00000
  146    -18.22451    2.00000
  147    -18.22364    2.00000
  148    -18.22291    2.00000
  149    -18.22186    2.00000
  150    -18.22148    2.00000
  151    -18.22107    2.00000
  152    -18.21981    2.00000
  153    -18.21954    2.00000
  154    -18.21823    2.00000
  155    -18.21764    2.00000
  156    -18.21668    2.00000
  157    -18.21642    2.00000
  158    -18.21559    2.00000
  159    -18.21526    2.00000
  160    -18.21507    2.00000
  161    -18.21432    2.00000
  162    -18.21412    2.00000
  163    -18.21399    2.00000
  164    -18.21295    2.00000
  165    -18.21221    2.00000
  166    -18.21195    2.00000
  167    -18.21018    2.00000
  168    -18.20809    2.00000
  169    -18.20704    2.00000
  170    -18.20626    2.00000
  171    -18.20609    2.00000
  172    -18.20513    2.00000
  173    -18.20400    2.00000
  174    -18.20319    2.00000
  175    -18.20107    2.00000
  176    -18.19846    2.00000
  177    -18.19743    2.00000
  178    -18.15250    2.00000
  179    -18.14780    2.00000
  180    -18.14643    2.00000
  181    -18.13153    2.00000
  182    -18.12931    2.00000
  183    -18.12355    2.00000
  184    -18.12140    2.00000
  185    -18.11758    2.00000
  186    -18.11693    2.00000
  187    -18.11668    2.00000
  188    -18.11605    2.00000
  189    -18.11524    2.00000
  190    -18.11484    2.00000
  191    -18.11426    2.00000
  192    -18.11348    2.00000
  193    -18.11186    2.00000
  194    -18.11001    2.00000
  195    -18.10940    2.00000
  196    -18.10901    2.00000
  197    -18.10864    2.00000
  198    -18.10739    2.00000
  199    -18.10662    2.00000
  200    -18.10637    2.00000
  201    -18.10575    2.00000
  202    -18.10485    2.00000
  203    -18.10476    2.00000
  204    -18.10451    2.00000
  205    -18.10389    2.00000
  206    -18.10301    2.00000
  207    -18.10243    2.00000
  208    -18.10174    2.00000
  209    -18.10086    2.00000
  210    -18.09945    2.00000
  211    -18.09896    2.00000
  212    -18.09883    2.00000
  213    -18.09852    2.00000
  214    -18.09777    2.00000
  215    -18.09700    2.00000
  216    -18.09687    2.00000
  217    -18.09660    2.00000
  218    -18.09598    2.00000
  219    -18.09488    2.00000
  220    -18.09347    2.00000
  221    -18.09239    2.00000
  222    -18.09142    2.00000
  223    -18.09096    2.00000
  224    -18.09004    2.00000
  225    -18.08826    2.00000
  226    -18.08608    2.00000
  227    -18.08572    2.00000
  228    -18.08534    2.00000
  229    -18.08506    2.00000
  230    -18.08318    2.00000
  231    -18.08260    2.00000
  232    -18.08228    2.00000
  233    -18.08200    2.00000
  234    -18.08187    2.00000
  235    -18.08096    2.00000
  236    -18.08080    2.00000
  237    -18.08067    2.00000
  238    -18.07918    2.00000
  239    -18.07904    2.00000
  240    -18.07797    2.00000
  241    -18.07737    2.00000
  242    -18.07679    2.00000
  243    -18.07609    2.00000
  244    -18.07437    2.00000
  245    -18.07375    2.00000
  246    -18.07338    2.00000
  247    -18.07297    2.00000
  248    -18.07246    2.00000
  249    -18.07229    2.00000
  250    -18.07194    2.00000
  251    -18.07142    2.00000
  252    -18.07090    2.00000
  253    -18.07069    2.00000
  254    -18.07029    2.00000
  255    -18.06994    2.00000
  256    -18.06946    2.00000
  257    -18.06872    2.00000
  258    -18.06847    2.00000
  259    -18.06808    2.00000
  260    -18.06797    2.00000
  261    -18.06763    2.00000
  262    -18.06758    2.00000
  263    -18.06706    2.00000
  264    -18.06643    2.00000
  265    -18.06634    2.00000
  266    -18.06604    2.00000
  267    -18.06596    2.00000
  268    -18.06572    2.00000
  269    -18.06455    2.00000
  270    -18.06418    2.00000
  271    -18.06378    2.00000
  272    -18.06363    2.00000
  273    -18.06333    2.00000
  274    -18.06285    2.00000
  275    -18.06216    2.00000
  276    -18.06173    2.00000
  277    -18.06134    2.00000
  278    -18.06094    2.00000
  279    -18.06011    2.00000
  280    -18.05977    2.00000
  281    -18.05975    2.00000
  282    -18.05907    2.00000
  283    -18.05867    2.00000
  284    -18.05820    2.00000
  285    -18.05753    2.00000
  286    -18.05726    2.00000
  287    -18.05705    2.00000
  288    -18.05654    2.00000
  289    -18.05591    2.00000
  290    -18.05359    2.00000
  291    -18.05219    2.00000
  292     -4.53904    2.00000
  293     -4.19465    1.99999
  294     -4.18616    1.99999
  295     -4.14870    1.99998
  296     -3.85185    1.99989
  297     -3.84959    1.99989
  298     -3.81409    1.99986
  299     -3.79808    1.99984
  300     -3.53841    1.99911
  301     -3.51860    1.99898
  302     -3.51312    1.99894
  303     -3.50953    1.99892
  304     -3.50852    1.99891
  305     -3.47101    1.99860
  306     -3.46323    1.99853
  307     -3.22009    1.99257
  308     -3.18880    1.99086
  309     -3.18594    1.99068
  310     -3.17155    1.98975
  311     -3.14525    1.98780
  312     -3.13958    1.98733
  313     -3.13496    1.98694
  314     -3.13149    1.98663
  315     -2.88422    1.93240
  316     -2.84388    1.91246
  317     -2.81827    1.89699
  318     -2.81734    1.89639
  319     -2.72460    1.81588
  320     -2.57047    1.55847
  321     -2.54407    1.49496
  322     -2.54264    1.49138
  323     -2.54210    1.49001
  324     -2.53974    1.48399
  325     -2.53245    1.46518
  326     -2.51938    1.43035
  327     -2.51598    1.42106
  328     -2.41779    1.12111
  329     -2.35664    0.91805
  330     -2.22706    0.52688
  331     -2.21025    0.48457
  332     -2.18732    0.43065
  333     -2.18621    0.42817
  334     -2.18575    0.42715
  335     -2.18174    0.41822
  336     -2.10482    0.27337
  337     -2.04383    0.19075
  338     -1.94454    0.10317
  339     -1.94425    0.10298
  340     -1.91921    0.08784
  341     -1.75316    0.02992
  342     -1.75250    0.02978
  343     -1.73171    0.02598
  344     -1.71185    0.02280
  345     -1.66838    0.01711
  346     -1.64920    0.01507
  347     -1.64875    0.01503
  348     -1.64310    0.01447
  349     -1.64236    0.01440
  350     -1.62618    0.01294
  351     -1.62128    0.01253
  352     -1.60788    0.01146
  353     -1.60551    0.01128
  354     -1.59930    0.01083
  355     -1.58702    0.00998
  356     -1.58570    0.00990
  357     -1.58521    0.00986
  358     -1.52985    0.00683
  359     -1.41536    0.00319
  360     -1.40947    0.00307
  361     -1.36918    0.00235
  362     -1.34226    0.00196
  363     -1.31410    0.00163
  364     -1.27167    0.00122

Fermi level: -2.38128

Gap: 0.061 eV
Transition (v -> c):
  (s=0, k=0, n=328, [0.00, 0.00, 0.00]) -> (s=0, k=0, n=329, [0.00, 0.00, 0.00])
No difference between direct/indirect transitions

Forces in eV/Ang:
  0 K     0.00016    0.00003   -0.02455
  1 K    -0.00579    0.00482   -0.02866
  2 K     0.00135   -0.00331   -0.01256
  3 K    -0.00433    0.00265   -0.00990
  4 K     0.01168   -0.00079    0.03321
  5 K     0.01979   -0.01936    0.02220
  6 K    -0.06647   -0.04344   -0.01115
  7 K     0.01157    0.00241    0.02641
  8 K    -0.00089    0.00012   -0.02567
  9 K     0.00218   -0.00145   -0.02056
 10 K    -0.01372    0.00642   -0.03701
 11 K    -0.00006   -0.00104    0.00647
 12 K    -0.00977    0.00115    0.02436
 13 K    -0.00441   -0.00130    0.02935
 14 K    -0.01071   -0.00644    0.03666
 15 K     0.00548   -0.00079    0.02914
 16 K    -0.00223   -0.00015   -0.02506
 17 K    -0.00632   -0.00333   -0.02754
 18 K    -0.00901   -0.00275   -0.02388
 19 K    -0.00302   -0.00173   -0.00833
 20 K    -0.00944   -0.00068    0.02258
 21 K    -0.00339    0.01798    0.01365
 22 K     0.00657   -0.00250    0.01967
 23 K     0.00147   -0.00225    0.01647
 24 K    -0.00387    0.00040   -0.02193
 25 K    -0.00016   -0.00011   -0.02576
 26 K     0.00457   -0.00283   -0.00395
 27 K     0.01372    0.01300   -0.01919
 28 K    -0.00897    0.01946    0.02507
 29 K    -0.02078    0.00591    0.02438
 30 K    -0.00796   -0.00089    0.03129
 31 K     0.05139    0.03694    0.00019
 32 K     0.00630   -0.00726   -0.02723
 33 K     0.00226    0.00013   -0.02380
 34 K     0.00353    0.00158   -0.00811
 35 K    -0.00550    0.01881   -0.02254
 36 K     0.01798   -0.01440    0.02180
 37 K     0.00298    0.00091    0.01899
 38 K    -0.00313    0.00331    0.01766
 39 K     0.00202    0.00889    0.01995
 40 K     0.00752    0.00681   -0.02721
 41 K     0.00090   -0.00003   -0.02573
 42 K    -0.00053    0.00147    0.00293
 43 K     0.01315   -0.03232   -0.04084
 44 K     0.00700   -0.00312    0.02560
 45 K     0.00796    0.00009    0.02540
 46 K    -0.00849    0.00020    0.02802
 47 K     0.00192    0.00936    0.03812
 48 K     0.00394   -0.00092   -0.02345
 49 K     0.00573    0.00618   -0.03007
 50 K    -0.00504   -0.00007    0.00176
 51 K    -0.00992    0.01146   -0.00668
 52 K     0.00152   -0.00113    0.01315
 53 K    -0.00330   -0.00345    0.01535
 54 K     0.00124   -0.00015    0.02667
 55 K    -0.00291    0.00129    0.02546
 56 K    -0.00477   -0.00350   -0.03130
 57 K    -0.00554    0.00081   -0.02621
 58 K     0.01055   -0.01124   -0.00674
 59 K     0.00519    0.00004    0.00282
 60 K     0.00442    0.00374    0.01327
 61 K    -0.00101    0.00056    0.01150
 62 K     0.00681   -0.00445    0.02657
 63 K    -0.00259   -0.00446    0.02995
 64 K    -0.00416    0.00441   -0.03291
 65 K     0.00477   -0.00700   -0.03130
 66 K     0.00986    0.01129   -0.00696
 67 K    -0.01053   -0.01158   -0.00653
 68 K     0.00357   -0.00451    0.01296
 69 K    -0.00308    0.00343    0.01516
 70 K     0.00705    0.00499    0.02647
 71 K    -0.00690    0.00123    0.02779
 72 K     0.00682    0.00836    0.07478

System changes: positions 

Initializing position-dependent things.

Density initialized from wave functions
           .------------------------------------------------------.  
          /|                                                      |  
         / |                                                      |  
        /  |                                                      |  
       /   |                                                      |  
      /    |                                                      |  
     /     |                                                      |  
    /      |                                                      |  
   /       |                                                      |  
  /        |                                                      |  
 *         |                                                      |  
 |         |                                                      |  
 |         |                                                      |  
[...]

Converged after 3 iterations.

Dipole moment: (-91.170632, -57.335089, 0.453167) |e|*Ang

Energy contributions relative to reference atoms: (reference = -1195904.484944)

Kinetic:       +121.864610
Potential:     -104.858552
External:        +0.000000
XC:             -78.916850
Entropy (-ST):   -3.800162
Local:           +2.313475
SIC:             +0.000000
--------------------------
Free energy:    -63.397479
Extrapolated:   -61.497398

 Band  Eigenvalues  Occupancy
    0    -35.23731    2.00000
    1    -34.76829    2.00000
    2    -34.76776    2.00000
    3    -34.76673    2.00000
    4    -34.76617    2.00000
    5    -34.75905    2.00000
    6    -34.75837    2.00000
    7    -34.75790    2.00000
    8    -34.75626    2.00000
    9    -34.75576    2.00000
   10    -34.75565    2.00000
   11    -34.75377    2.00000
   12    -34.75373    2.00000
   13    -34.75303    2.00000
   14    -34.75241    2.00000
   15    -34.75104    2.00000
   16    -34.75052    2.00000
   17    -34.75045    2.00000
   18    -34.75040    2.00000
   19    -34.75022    2.00000
   20    -34.75018    2.00000
   21    -34.74992    2.00000
   22    -34.74985    2.00000
   23    -34.74978    2.00000
   24    -34.74937    2.00000
   25    -34.74894    2.00000
   26    -34.74881    2.00000
   27    -34.74819    2.00000
   28    -34.74687    2.00000
   29    -34.74605    2.00000
   30    -34.74585    2.00000
   31    -34.74086    2.00000
   32    -34.74006    2.00000
   33    -34.72825    2.00000
   34    -34.72748    2.00000
   35    -34.64527    2.00000
   36    -34.64271    2.00000
   37    -34.60437    2.00000
   38    -34.60337    2.00000
   39    -34.60259    2.00000
   40    -34.60103    2.00000
   41    -34.60052    2.00000
   42    -34.60015    2.00000
   43    -34.59984    2.00000
   44    -34.59970    2.00000
   45    -34.59955    2.00000
   46    -34.59920    2.00000
   47    -34.59904    2.00000
   48    -34.59883    2.00000
   49    -34.59846    2.00000
   50    -34.59797    2.00000
   51    -34.59708    2.00000
   52    -34.59618    2.00000
   53    -34.59568    2.00000
   54    -34.59551    2.00000
   55    -34.59489    2.00000
   56    -34.59451    2.00000
   57    -34.59389    2.00000
   58    -34.59287    2.00000
   59    -34.59281    2.00000
   60    -34.59237    2.00000
   61    -34.59203    2.00000
   62    -34.59142    2.00000
   63    -34.59120    2.00000
   64    -34.59091    2.00000
   65    -34.59058    2.00000
   66    -34.59005    2.00000
   67    -34.58938    2.00000
   68    -34.58901    2.00000
   69    -34.58841    2.00000
   70    -34.58761    2.00000
   71    -34.58698    2.00000
   72    -34.58681    2.00000
   73    -18.72706    2.00000
   74    -18.71749    2.00000
   75    -18.69863    2.00000
   76    -18.27269    2.00000
   77    -18.26563    2.00000
   78    -18.26452    2.00000
   79    -18.26269    2.00000
   80    -18.26220    2.00000
   81    -18.26080    2.00000
   82    -18.26014    2.00000
   83    -18.25973    2.00000
   84    -18.25952    2.00000
   85    -18.25940    2.00000
   86    -18.25895    2.00000
   87    -18.25800    2.00000
   88    -18.25768    2.00000
   89    -18.25627    2.00000
   90    -18.25492    2.00000
   91    -18.25488    2.00000
   92    -18.25477    2.00000
   93    -18.25382    2.00000
   94    -18.25335    2.00000
   95    -18.25315    2.00000
   96    -18.25266    2.00000
   97    -18.25261    2.00000
   98    -18.25187    2.00000
   99    -18.25095    2.00000
  100    -18.25092    2.00000
  101    -18.25055    2.00000
  102    -18.25040    2.00000
  103    -18.24985    2.00000
  104    -18.24979    2.00000
  105    -18.24924    2.00000
  106    -18.24922    2.00000
  107    -18.24858    2.00000
  108    -18.24806    2.00000
  109    -18.24804    2.00000
  110    -18.24774    2.00000
  111    -18.24761    2.00000
  112    -18.24759    2.00000
  113    -18.24731    2.00000
  114    -18.24704    2.00000
  115    -18.24611    2.00000
  116    -18.24600    2.00000
  117    -18.24584    2.00000
  118    -18.24553    2.00000
  119    -18.24545    2.00000
  120    -18.24496    2.00000
  121    -18.24486    2.00000
  122    -18.24458    2.00000
  123    -18.24454    2.00000
  124    -18.24399    2.00000
  125    -18.24378    2.00000
  126    -18.24320    2.00000
  127    -18.24253    2.00000
  128    -18.24199    2.00000
  129    -18.24192    2.00000
  130    -18.24152    2.00000
  131    -18.24148    2.00000
  132    -18.23895    2.00000
  133    -18.23656    2.00000
  134    -18.23543    2.00000
  135    -18.23520    2.00000
  136    -18.23402    2.00000
  137    -18.23310    2.00000
  138    -18.23243    2.00000
  139    -18.23234    2.00000
  140    -18.22906    2.00000
  141    -18.22851    2.00000
  142    -18.22803    2.00000
  143    -18.22587    2.00000
  144    -18.22547    2.00000
  145    -18.22428    2.00000
  146    -18.22333    2.00000
  147    -18.22283    2.00000
  148    -18.22204    2.00000
  149    -18.22092    2.00000
  150    -18.22080    2.00000
  151    -18.22016    2.00000
  152    -18.21903    2.00000
  153    -18.21865    2.00000
  154    -18.21733    2.00000
  155    -18.21676    2.00000
  156    -18.21557    2.00000
  157    -18.21539    2.00000
  158    -18.21502    2.00000
  159    -18.21422    2.00000
  160    -18.21408    2.00000
  161    -18.21365    2.00000
  162    -18.21350    2.00000
  163    -18.21329    2.00000
  164    -18.21204    2.00000
  165    -18.21128    2.00000
  166    -18.21102    2.00000
  167    -18.20952    2.00000
  168    -18.20709    2.00000
  169    -18.20603    2.00000
  170    -18.20519    2.00000
  171    -18.20518    2.00000
  172    -18.20424    2.00000
  173    -18.20265    2.00000
  174    -18.20177    2.00000
  175    -18.19965    2.00000
  176    -18.19744    2.00000
  177    -18.19647    2.00000
  178    -18.15082    2.00000
  179    -18.14622    2.00000
  180    -18.14441    2.00000
  181    -18.13001    2.00000
  182    -18.12787    2.00000
  183    -18.12232    2.00000
  184    -18.11996    2.00000
  185    -18.11638    2.00000
  186    -18.11550    2.00000
  187    -18.11522    2.00000
  188    -18.11485    2.00000
  189    -18.11422    2.00000
  190    -18.11375    2.00000
  191    -18.11285    2.00000
  192    -18.11193    2.00000
  193    -18.11043    2.00000
  194    -18.10881    2.00000
  195    -18.10819    2.00000
  196    -18.10781    2.00000
  197    -18.10746    2.00000
  198    -18.10596    2.00000
  199    -18.10537    2.00000
  200    -18.10490    2.00000
  201    -18.10428    2.00000
  202    -18.10349    2.00000
  203    -18.10340    2.00000
  204    -18.10308    2.00000
  205    -18.10259    2.00000
  206    -18.10169    2.00000
  207    -18.10110    2.00000
  208    -18.10036    2.00000
  209    -18.09954    2.00000
  210    -18.09806    2.00000
  211    -18.09761    2.00000
  212    -18.09744    2.00000
  213    -18.09724    2.00000
  214    -18.09642    2.00000
  215    -18.09566    2.00000
  216    -18.09549    2.00000
  217    -18.09518    2.00000
  218    -18.09458    2.00000
  219    -18.09354    2.00000
  220    -18.09207    2.00000
  221    -18.09122    2.00000
  222    -18.09010    2.00000
  223    -18.08964    2.00000
  224    -18.08868    2.00000
  225    -18.08693    2.00000
  226    -18.08473    2.00000
  227    -18.08438    2.00000
  228    -18.08405    2.00000
  229    -18.08370    2.00000
  230    -18.08187    2.00000
  231    -18.08128    2.00000
  232    -18.08103    2.00000
  233    -18.08071    2.00000
  234    -18.08058    2.00000
  235    -18.07965    2.00000
  236    -18.07951    2.00000
  237    -18.07938    2.00000
  238    -18.07788    2.00000
  239    -18.07773    2.00000
  240    -18.07670    2.00000
  241    -18.07612    2.00000
  242    -18.07551    2.00000
  243    -18.07483    2.00000
  244    -18.07309    2.00000
  245    -18.07246    2.00000
  246    -18.07208    2.00000
  247    -18.07172    2.00000
  248    -18.07123    2.00000
  249    -18.07094    2.00000
  250    -18.07065    2.00000
  251    -18.07024    2.00000
  252    -18.06960    2.00000
  253    -18.06952    2.00000
  254    -18.06916    2.00000
  255    -18.06865    2.00000
  256    -18.06815    2.00000
  257    -18.06734    2.00000
  258    -18.06716    2.00000
  259    -18.06679    2.00000
  260    -18.06660    2.00000
  261    -18.06628    2.00000
  262    -18.06622    2.00000
  263    -18.06574    2.00000
  264    -18.06508    2.00000
  265    -18.06501    2.00000
  266    -18.06477    2.00000
  267    -18.06469    2.00000
  268    -18.06433    2.00000
  269    -18.06326    2.00000
  270    -18.06287    2.00000
  271    -18.06250    2.00000
  272    -18.06239    2.00000
  273    -18.06208    2.00000
  274    -18.06159    2.00000
  275    -18.06084    2.00000
  276    -18.06031    2.00000
  277    -18.05995    2.00000
  278    -18.05962    2.00000
  279    -18.05879    2.00000
  280    -18.05852    2.00000
  281    -18.05843    2.00000
  282    -18.05769    2.00000
  283    -18.05718    2.00000
  284    -18.05682    2.00000
  285    -18.05601    2.00000
  286    -18.05592    2.00000
  287    -18.05567    2.00000
  288    -18.05500    2.00000
  289    -18.05441    2.00000
  290    -18.05254    2.00000
  291    -18.05058    2.00000
  292     -4.53733    2.00000
  293     -4.19293    1.99999
  294     -4.18447    1.99999
  295     -4.14743    1.99998
  296     -3.85018    1.99989
  297     -3.84789    1.99989
  298     -3.81255    1.99986
  299     -3.79697    1.99984
  300     -3.53671    1.99910
  301     -3.51683    1.99898
  302     -3.51154    1.99894
  303     -3.50791    1.99892
  304     -3.50713    1.99891
  305     -3.46972    1.99860
  306     -3.46202    1.99853
  307     -3.21856    1.99256
  308     -3.18715    1.99083
  309     -3.18426    1.99065
  310     -3.17050    1.98976
  311     -3.14393    1.98779
  312     -3.13822    1.98732
  313     -3.13380    1.98694
  314     -3.13040    1.98664
  315     -2.88298    1.93239
  316     -2.84278    1.91251
  317     -2.81707    1.89700
  318     -2.81613    1.89638
  319     -2.72377    1.81630
  320     -2.56924    1.55843
  321     -2.54237    1.49373
  322     -2.54097    1.49020
  323     -2.54042    1.48879
  324     -2.53808    1.48283
  325     -2.53126    1.46520
  326     -2.51830    1.43068
  327     -2.51497    1.42160
  328     -2.41691    1.12215
  329     -2.35587    0.91948
  330     -2.22608    0.52748
  331     -2.20909    0.48467
  332     -2.18605    0.43052
  333     -2.18491    0.42795
  334     -2.18452    0.42709
  335     -2.18055    0.41827
  336     -2.10399    0.27396
  337     -2.04298    0.19117
  338     -1.94285    0.10285
  339     -1.94258    0.10267
  340     -1.91851    0.08812
  341     -1.75227    0.02998
  342     -1.75149    0.02982
  343     -1.73091    0.02605
  344     -1.71112    0.02287
  345     -1.66665    0.01705
  346     -1.64751    0.01502
  347     -1.64706    0.01498
  348     -1.64142    0.01443
  349     -1.64072    0.01436
  350     -1.62540    0.01298
  351     -1.61994    0.01252
  352     -1.60664    0.01146
  353     -1.60422    0.01128
  354     -1.59820    0.01084
  355     -1.58596    0.00999
  356     -1.58447    0.00989
  357     -1.58404    0.00987
  358     -1.52917    0.00685
  359     -1.41476    0.00320
  360     -1.40866    0.00307
  361     -1.36787    0.00234
  362     -1.34159    0.00197
  363     -1.31325    0.00163
  364     -1.27029    0.00122

Fermi level: -2.38008

Gap: 0.061 eV
Transition (v -> c):
  (s=0, k=0, n=328, [0.00, 0.00, 0.00]) -> (s=0, k=0, n=329, [0.00, 0.00, 0.00])
No difference between direct/indirect transitions

Forces in eV/Ang:
  0 K    -0.00001    0.00011   -0.02278
  1 K    -0.00604    0.00465   -0.02652
  2 K     0.00119   -0.00306   -0.01304
  3 K    -0.00414    0.00244   -0.00929
  4 K     0.01034   -0.00033    0.03033
  5 K     0.01860   -0.01683    0.02058
  6 K    -0.06031   -0.04167   -0.00602
  7 K     0.01102    0.00249    0.02597
  8 K    -0.00144    0.00019   -0.02398
  9 K     0.00163   -0.00167   -0.01861
 10 K    -0.01387    0.00597   -0.03616
 11 K     0.00004   -0.00122    0.00643
 12 K    -0.00832    0.00046    0.02489
 13 K    -0.00350   -0.00145    0.02978
 14 K    -0.00905   -0.00609    0.03453
 15 K     0.00524   -0.00033    0.02823
 16 K    -0.00308   -0.00030   -0.02352
 17 K    -0.00662   -0.00295   -0.02550
 18 K    -0.00915   -0.00264   -0.02311
 19 K    -0.00295   -0.00133   -0.00794
 20 K    -0.00849   -0.00039    0.02309
 21 K    -0.00312    0.01461    0.01275
 22 K     0.00634   -0.00246    0.01806
 23 K     0.00102   -0.00340    0.01614
 24 K    -0.00362    0.00056   -0.01980
 25 K    -0.00000   -0.00020   -0.02398
 26 K     0.00441   -0.00267   -0.00351
 27 K     0.01385    0.01284   -0.01958
 28 K    -0.00786    0.01709    0.02489
 29 K    -0.01731    0.00374    0.02342
 30 K    -0.00838    0.00009    0.02976
 31 K     0.04211    0.03180    0.00391
 32 K     0.00661   -0.00765   -0.02518
 33 K     0.00310    0.00028   -0.02226
 34 K     0.00349    0.00129   -0.00800
 35 K    -0.00543    0.01846   -0.02170
 36 K     0.01494   -0.01101    0.02036
 37 K     0.00292    0.00078    0.01880
 38 K    -0.00251    0.00389    0.01799
 39 K     0.00063    0.00719    0.01886
 40 K     0.00806    0.00705   -0.02526
 41 K     0.00144   -0.00010   -0.02405
 42 K    -0.00059    0.00169    0.00283
 43 K     0.01336   -0.03175   -0.03998
 44 K     0.00662   -0.00220    0.02513
 45 K     0.00626    0.00042    0.02532
 46 K    -0.00869    0.00020    0.02632
 47 K     0.00058    0.01132    0.03718
 48 K     0.00386   -0.00129   -0.02215
 49 K     0.00583    0.00654   -0.02876
 50 K    -0.00475    0.00014    0.00205
 51 K    -0.01021    0.01128   -0.00630
 52 K     0.00097   -0.00036    0.01372
 53 K    -0.00303   -0.00362    0.01532
 54 K     0.00125   -0.00009    0.02459
 55 K    -0.00369    0.00174    0.02393
 56 K    -0.00452   -0.00291   -0.03021
 57 K    -0.00583    0.00105   -0.02525
 58 K     0.01084   -0.01158   -0.00705
 59 K     0.00498   -0.00005    0.00187
 60 K     0.00370    0.00232    0.01350
 61 K    -0.00071    0.00031    0.01225
 62 K     0.00728   -0.00475    0.02535
 63 K    -0.00236   -0.00419    0.02899
 64 K    -0.00385    0.00419   -0.03197
 65 K     0.00453   -0.00759   -0.03021
 66 K     0.01008    0.01143   -0.00776
 67 K    -0.01078   -0.01134   -0.00687
 68 K     0.00326   -0.00385    0.01384
 69 K    -0.00276    0.00391    0.01548
 70 K     0.00728    0.00511    0.02543
 71 K    -0.00737    0.00066    0.02670
 72 K     0.00536    0.00910    0.06952

Timing:                                       incl.     excl.
--------------------------------------------------------------------
Basic WFS set positions:                      0.136     0.015   0.0% |
 Redistribute:                                0.121     0.121   0.0% |
Basis functions set positions:                8.768     8.768   0.1% |
Forces:                                     708.684     4.380   0.0% |
 LCAO forces:                               704.305     0.247   0.0% |
  Atomic Hamiltonian force:                   6.899     6.899   0.0% |
  Initial:                                    0.113     0.000   0.0% |
   Get density matrix:                        0.113     0.113   0.0% |
  Paw correction:                             6.795     6.795   0.0% |
  Potential:                                678.073   678.073   4.2% |-|
  TCI derivative:                            12.177    12.177   0.1% |
  Wait for sum:                               0.000     0.000   0.0% |
LCAO WFS Initialize:                        195.473     3.417   0.0% |
 Density initialized from wave functions:   147.730    13.955   0.1% |
  Calculate density matrix:                   1.561     1.561   0.0% |
  Construct density:                        132.213   132.213   0.8% |
  Symmetrize density:                         0.001     0.001   0.0% |
 Hamiltonian:                                44.326     0.004   0.0% |
  Atomic:                                     8.316     0.049   0.0% |
   XC Correction:                             8.267     8.267   0.1% |
  Calculate atomic Hamiltonians:              0.777     0.777   0.0% |
  Communicate:                                0.000     0.000   0.0% |
  Hartree integrate/restrict:                 1.134     1.134   0.0% |
  Initialize Hamiltonian:                     0.000     0.000   0.0% |
  Poisson:                                   21.385    13.861   0.1% |
   Communicate from 1D:                       1.074     1.074   0.0% |
   Communicate from 2D:                       0.626     0.626   0.0% |
   Communicate to 1D:                         0.407     0.407   0.0% |
   Communicate to 2D:                         1.657     1.657   0.0% |
   FFT 1D:                                    2.024     2.024   0.0% |
   FFT 2D:                                    1.736     1.736   0.0% |
  XC 3D grid:                                 9.765     9.765   0.1% |
  vbar:                                       2.944     2.944   0.0% |
P tci:                                       10.279    10.279   0.1% |
Redistribute:                                 0.002     0.002   0.0% |
SCF-cycle:                                 1838.863     0.096   0.0% |
 Density:                                   697.678     0.001   0.0% |
  Atomic density matrices:                    0.171     0.171   0.0% |
  Mix:                                        8.548     8.548   0.1% |
  Multipole moments:                          0.026     0.026   0.0% |
  Normalize:                                  0.028     0.028   0.0% |
  Pseudo density:                           688.904     0.291   0.0% |
   Calculate density matrix:                  0.542     0.542   0.0% |
   Construct density:                       688.068   688.068   4.2% |-|
   Symmetrize density:                        0.002     0.002   0.0% |
 Hamiltonian:                               137.612     0.007   0.0% |
  Atomic:                                    39.688     0.099   0.0% |
   XC Correction:                            39.589    39.589   0.2% |
  Calculate atomic Hamiltonians:              1.875     1.875   0.0% |
  Communicate:                                0.000     0.000   0.0% |
  Hartree integrate/restrict:                 1.618     1.618   0.0% |
  Poisson:                                   41.224     2.402   0.0% |
   Communicate from 1D:                       5.672     5.672   0.0% |
   Communicate from 2D:                       3.328     3.328   0.0% |
   Communicate to 1D:                         2.277     2.277   0.0% |
   Communicate to 2D:                         6.394     6.394   0.0% |
   FFT 1D:                                   10.188    10.188   0.1% |
   FFT 2D:                                   10.963    10.963   0.1% |
  XC 3D grid:                                51.443    51.443   0.3% |
  vbar:                                       1.758     1.758   0.0% |
 LCAO eigensolver:                         1003.477     0.167   0.0% |
  Calculate projections:                      0.609     0.609   0.0% |
  DenseAtomicCorrection:                      8.260     8.260   0.1% |
  Distribute overlap matrix:                  0.004     0.004   0.0% |
  Orbital Layouts:                           15.980    15.980   0.1% |
  Potential matrix:                         978.457   978.457   6.0% |-|
ST tci:                                       9.928     9.928   0.1% |
Set symmetry:                                 0.001     0.001   0.0% |
TCI: Evaluate splines:                        0.072     0.072   0.0% |
mktci:                                        0.973     0.973   0.0% |
Other:                                    13533.601 13533.601  83.0% |--------------------------------|
--------------------------------------------------------------------
Total:                                              16306.780 100.0%

Memory usage: 3.67 GiB
Date: Wed Nov 26 03:07:07 2025
