
  ___ ___ ___ _ _ _  
 |   |   |_  | | | | 
 | | | | | . | | | | 
 |__ |  _|___|_____|  25.7.0
 |___|_|             

User:   tew@Mathuss-MacBook-Air-357.local
Date:   Tue Nov 25 22:35:20 2025
Arch:   arm64
Pid:    88448
CWD:    /Users/tew/Documents/Project/GitHub/chem-com
Python: 3.13.5
gpaw:   /Users/tew/Documents/Project/GitHub/chem-com/.venv/lib/python3.13/site-packages/gpaw
_gpaw:  /Users/tew/Documents/Project/GitHub/chem-com/.venv/lib/python3.13/site-packages/
        _gpaw.cpython-313-darwin.so
ase:    /Users/tew/Documents/Project/GitHub/chem-com/.venv/lib/python3.13/site-packages/ase (version 3.26.0)
numpy:  /Users/tew/Documents/Project/GitHub/chem-com/.venv/lib/python3.13/site-packages/numpy (version 2.3.5)
scipy:  /Users/tew/Documents/Project/GitHub/chem-com/.venv/lib/python3.13/site-packages/scipy (version 1.16.3)
libxc:  2.x.y
units:  Angstrom and eV
cores: 1
OpenMP: False
OMP_NUM_THREADS: 1

Input parameters:
  basis: dzp
  convergence: {density: 0.0001,
                eigenstates: 5e-06}
  kpts: [1 1 1]
  mode: {interpolation: 3,
         name: lcao}
  occupations: {fixmagmom: False,
                name: fermi-dirac,
                width: 0.15}
  xc: PBE

System changes: positions, numbers, cell, pbc, initial_charges, initial_magmoms 

Initialize ...

species:
  K:
    name: Potassium
    id: 04190408da443a44668134082ce1c192
    Z: 19.0
    valence: 9
    core: 10
    charge: 0.0
    file: /Users/tew/Documents/Project/GitHub/chem-com/.venv/lib/python3.13/site-packages/gpaw_data/setups/K.PBE.gz
    compensation charges: {type: gauss,
                           rc: 0.35,
                           lmax: 2}
    cutoffs: {filter: 1.91,
              core: 1.27}
    projectors:
      #              energy  rcut
      - 3s(2.00)   -35.338   1.122
      - 4s(1.00)    -2.319   1.122
      - 3p(6.00)   -18.813   1.106
      -  p           8.398   1.106
      -  d           0.000   0.937
  
    # LCAO basis set for K:
    #   Name: dzp
    #   File: /Users/tew/Documents/Project/GitHub/chem-com/.venv/lib/python3.13/site-packages/gpaw_data/setups/K.dzp.basis.gz
    #   Number of radial functions: 9
    #   Number of spherical harmonics: 19
    #     l=0, rc=4.2656 Bohr: 3s-sz confined orbital
    #     l=0, rc=13.1094 Bohr: 4s-sz confined orbital
    #     l=1, rc=5.0312 Bohr: 3p-sz confined orbital
    #     l=1, rc=16.0000 Bohr: 4p-sz confined orbital
    #     l=0, rc=2.3594 Bohr: 3s-dz split-valence wave
    #     l=0, rc=8.1719 Bohr: 4s-dz split-valence wave
    #     l=1, rc=2.8906 Bohr: 3p-dz split-valence wave
    #     l=1, rc=10.2812 Bohr: 4p-dz split-valence wave
    #     l=1, rc=13.1094 Bohr: p-type Gaussian polarization
    #   Number of RI-basis functions 0

Reference energy: -1195904.484944  # eV

Spin-paired calculation

Convergence criteria:
 Maximum [total energy] change in last 3 cyles: 0.0005 eV / valence electron
 Maximum integral of absolute [dens]ity change: 0.0001 electrons / valence electron
 Maximum integral of absolute [eigenst]ate change: 5e-06 eV^2 / valence electron
 Maximum number of scf [iter]ations: 333
 (Square brackets indicate name in SCF output, whereas a 'c' in
 the SCF output indicates the quantity has converged.)

Symmetries present (total): 1

  ( 1  0  0)
  ( 0  1  0)
  ( 0  0  1)

1 k-point (Gamma)
1 k-point in the irreducible part of the Brillouin zone
       k-points in crystal coordinates                weights
   0:     0.00000000    0.00000000    0.00000000          1/1

Wave functions: LCAO
  Diagonalizer: Serial LAPACK
  Atomic Correction: dense with blas
  Data-type: float
 

Occupation numbers: Fermi-Dirac:
  width: 0.1500  # eV
 

Eigensolver
   LCAO using direct dense diagonalizer 

Densities:
  Coarse grid: 112*80*156 grid
  Fine grid: 224*160*312 grid
  Total Charge: 0.000000 

Density mixing:
  Method: separate
  Backend: pulay
  Linear mixing parameter: 0.05
  old densities: 5
  Damping of long wavelength oscillations: 50 

Hamiltonian:
  XC and Coulomb potentials evaluated on a 224*160*312 grid
  Using the PBE Exchange-Correlation functional
  Interpolation: tri-quintic (5. degree polynomial)
  Poisson solver: FastPoissonSolver using
    Stencil: 6*3+1=19 point O(h^6) finite-difference Laplacian
    FFT axes: [np.int64(0), np.int64(1)]
    FST axes: [np.int64(2)]
 

XC parameters: PBE with 2 nearest neighbor stencil

Memory estimate:
  Process memory now: 3762.67 MiB
  Calculator: 2004.64 MiB
    Density: 627.85 MiB
      Arrays: 276.31 MiB
      Localized functions: 245.59 MiB
      Mixer: 105.96 MiB
    Hamiltonian: 197.33 MiB
      Arrays: 180.67 MiB
      XC: 0.00 MiB
      Poisson: 0.00 MiB
      vbar: 16.66 MiB
    Wavefunctions: 1179.45 MiB
      C [qnM]: 3.86 MiB
      S, T [2 x qmm]: 29.35 MiB
      P [aqMi]: 1.26 MiB
      BasisFunctions: 1144.98 MiB
      Eigensolver: 0.00 MiB

Total number of cores used: 1

Number of atoms: 73
Number of atomic orbitals: 1387
Number of bands in calculation: 365
Number of valence electrons: 657
Bands to converge: occupied

... initialized

Initializing position-dependent things.

Density initialized from atomic densities
           .------------------------------------------------------.  
          /|                                                      |  
         / |                                                      |  
        /  |                                                      |  
       /   |                                                      |  
      /    |                                                      |  
     /     |                                                      |  
    /      |                                                      |  
   /       |                                                      |  
  /        |                                                      |  
 *         |                                                      |  
 |         |                                                      |  
 |         |                                                      |  
 |         |                                                      |  
 |       K |                K                 K                   |  
 |         |     K                 K                  K           |  
 |         |                                                      |  
 |    K    |            K    K             K    K                 K  
 |         |  K                      K                 K          |  
 |         |  K   K             K                 K               |  
 | K       |              K            K    K                  K  |  
 |         |         K                                            |  
 |         |   K            K     K            K    K             |  
 |       KK|           K    K            K    K            K      |  
 |         |                                                      |  
 |         |K    K            K    K             K   K            |  
 |    K    |            K                  K                      |  
 |         |       K                 K                 K          |  
 |         | K                  K                 K               |  
 |      K  |              K                 K                     |  
 | K       |         K                 K                          |  
 |        K|   K             K   K             K    K             |  
 |  K      |           K                 K                        |  
 |         |                                                      |  
 |         |K                 K                  K                |  
 |         |                                                      |  
 K         |       K                  K                           |  
 |         |                                                      |  
 |         .------------------------------------------------------.  
 |        /                                                      /   
 |       /                                                      /    
 |      /                                                      /     
 |     /                                                      /      
 |    /                                                      /       
 |   /                                                      /        
 |  /                                                      /         
 | /                                                      /          
 |/                                                      /           
 *------------------------------------------------------*            

Atomic positions and initial magnetic moments

Positions:
   0 K      0.000000    0.000000   10.000000    ( 0.0000,  0.0000,  0.0000)
   1 K      3.698168    2.615000   10.000000    ( 0.0000,  0.0000,  0.0000)
   2 K      3.698168    0.000000   13.698168    ( 0.0000,  0.0000,  0.0000)
   3 K      0.000000    2.615000   13.698168    ( 0.0000,  0.0000,  0.0000)
   4 K     -0.026112   -0.001177   17.368048    ( 0.0000,  0.0000,  0.0000)
   5 K      3.679113    2.738862   17.250356    ( 0.0000,  0.0000,  0.0000)
   6 K      3.730059    0.019824   20.618605    ( 0.0000,  0.0000,  0.0000)
   7 K      0.027657    2.588075   21.202937    ( 0.0000,  0.0000,  0.0000)
   8 K      0.000000    5.230000   10.000000    ( 0.0000,  0.0000,  0.0000)
   9 K      3.698168    7.845000   10.000000    ( 0.0000,  0.0000,  0.0000)
  10 K      3.698168    5.230000   13.698168    ( 0.0000,  0.0000,  0.0000)
  11 K      0.000000    7.845000   13.698168    ( 0.0000,  0.0000,  0.0000)
  12 K     -0.003948    5.230571   17.406567    ( 0.0000,  0.0000,  0.0000)
  13 K      3.701599    7.842410   17.410261    ( 0.0000,  0.0000,  0.0000)
  14 K      3.721354    5.183469   21.209624    ( 0.0000,  0.0000,  0.0000)
  15 K      0.001843    7.842562   21.150972    ( 0.0000,  0.0000,  0.0000)
  16 K      0.000000   10.460000   10.000000    ( 0.0000,  0.0000,  0.0000)
  17 K      3.698168   13.075000   10.000000    ( 0.0000,  0.0000,  0.0000)
  18 K      3.698168   10.460000   13.698168    ( 0.0000,  0.0000,  0.0000)
  19 K      0.000000   13.075000   13.698168    ( 0.0000,  0.0000,  0.0000)
  20 K     -0.002751   10.460649   17.403501    ( 0.0000,  0.0000,  0.0000)
  21 K      3.687112   12.952888   17.272506    ( 0.0000,  0.0000,  0.0000)
  22 K      3.699426   10.484991   21.184650    ( 0.0000,  0.0000,  0.0000)
  23 K      0.028474   13.103875   21.202969    ( 0.0000,  0.0000,  0.0000)
  24 K      7.396337    0.000000   10.000000    ( 0.0000,  0.0000,  0.0000)
  25 K     11.094505    2.615000   10.000000    ( 0.0000,  0.0000,  0.0000)
  26 K     11.094505    0.000000   13.698168    ( 0.0000,  0.0000,  0.0000)
  27 K      7.396337    2.615000   13.698168    ( 0.0000,  0.0000,  0.0000)
  28 K      7.415581   -0.077814   17.291891    ( 0.0000,  0.0000,  0.0000)
  29 K     11.115919    2.613967   17.390371    ( 0.0000,  0.0000,  0.0000)
  30 K     11.073118    0.021331   21.177605    ( 0.0000,  0.0000,  0.0000)
  31 K      7.374894    2.595622   20.884560    ( 0.0000,  0.0000,  0.0000)
  32 K      7.396337    5.230000   10.000000    ( 0.0000,  0.0000,  0.0000)
  33 K     11.094505    7.845000   10.000000    ( 0.0000,  0.0000,  0.0000)
  34 K     11.094505    5.230000   13.698168    ( 0.0000,  0.0000,  0.0000)
  35 K      7.396337    7.845000   13.698168    ( 0.0000,  0.0000,  0.0000)
  36 K      7.405151    5.296632   17.324878    ( 0.0000,  0.0000,  0.0000)
  37 K     11.100345    7.843251   17.403181    ( 0.0000,  0.0000,  0.0000)
  38 K     11.073862    5.216891   21.182921    ( 0.0000,  0.0000,  0.0000)
  39 K      7.391226    7.825450   21.175856    ( 0.0000,  0.0000,  0.0000)
  40 K      7.396337   10.460000   10.000000    ( 0.0000,  0.0000,  0.0000)
  41 K     11.094505   13.075000   10.000000    ( 0.0000,  0.0000,  0.0000)
  42 K     11.094505   10.460000   13.698168    ( 0.0000,  0.0000,  0.0000)
  43 K      7.396337   13.075000   13.698168    ( 0.0000,  0.0000,  0.0000)
  44 K      7.408051   10.471883   17.417256    ( 0.0000,  0.0000,  0.0000)
  45 K     11.104250   13.078297   17.411815    ( 0.0000,  0.0000,  0.0000)
  46 K     11.092963   10.456023   21.161476    ( 0.0000,  0.0000,  0.0000)
  47 K      7.369937   13.115977   21.209836    ( 0.0000,  0.0000,  0.0000)
  48 K     14.792674    0.000000   10.000000    ( 0.0000,  0.0000,  0.0000)
  49 K     18.490842    2.615000   10.000000    ( 0.0000,  0.0000,  0.0000)
  50 K     18.490842    0.000000   13.698168    ( 0.0000,  0.0000,  0.0000)
  51 K     14.792674    2.615000   13.698168    ( 0.0000,  0.0000,  0.0000)
  52 K     14.803888   -0.001819   17.406188    ( 0.0000,  0.0000,  0.0000)
  53 K     18.498064    2.625034   17.413627    ( 0.0000,  0.0000,  0.0000)
  54 K     18.481569    0.000382   21.160283    ( 0.0000,  0.0000,  0.0000)
  55 K     14.788469    2.615962   21.152840    ( 0.0000,  0.0000,  0.0000)
  56 K     14.792674    5.230000   10.000000    ( 0.0000,  0.0000,  0.0000)
  57 K     18.490842    7.845000   10.000000    ( 0.0000,  0.0000,  0.0000)
  58 K     18.490842    5.230000   13.698168    ( 0.0000,  0.0000,  0.0000)
  59 K     14.792674    7.845000   13.698168    ( 0.0000,  0.0000,  0.0000)
  60 K     14.784775    5.221777   17.413911    ( 0.0000,  0.0000,  0.0000)
  61 K     18.481576    7.845484   17.401141    ( 0.0000,  0.0000,  0.0000)
  62 K     18.493090    5.228084   21.154557    ( 0.0000,  0.0000,  0.0000)
  63 K     14.798412    7.842570   21.155763    ( 0.0000,  0.0000,  0.0000)
  64 K     14.792674   10.460000   10.000000    ( 0.0000,  0.0000,  0.0000)
  65 K     18.490842   13.075000   10.000000    ( 0.0000,  0.0000,  0.0000)
  66 K     18.490842   10.460000   13.698168    ( 0.0000,  0.0000,  0.0000)
  67 K     14.792674   13.075000   13.698168    ( 0.0000,  0.0000,  0.0000)
  68 K     14.783702   10.469304   17.411599    ( 0.0000,  0.0000,  0.0000)
  69 K     18.498200   13.064657   17.411602    ( 0.0000,  0.0000,  0.0000)
  70 K     18.493340   10.461849   21.154955    ( 0.0000,  0.0000,  0.0000)
  71 K     14.787315   13.076229   21.152766    ( 0.0000,  0.0000,  0.0000)
  72 K      4.935256    0.874227   24.286695    ( 0.0000,  0.0000,  0.0000)

Unit cell:
           periodic     x           y           z      points  spacing
  1. axis:    yes   22.189011    0.000000    0.000000   112     0.1981
  2. axis:    yes    0.000000   15.690000    0.000000    80     0.1961
  3. axis:    no     0.000000    0.000000   31.094505   156     0.1993

  Lengths:  22.189011  15.690000  31.094505
  Angles:   90.000000  90.000000  90.000000

Effective grid spacing dv^(1/3) = 0.1979

     iter     time        total  log10-change:
                         energy   eigst   dens
iter:   1 22:55:08   -65.446135        c
iter:   2 22:55:58   -64.367267        c -1.50
iter:   3 22:56:44   -62.753738        c -1.57
iter:   4 22:57:38   -61.550533        c -1.74
iter:   5 22:58:31   -61.537671        c -2.05
iter:   6 22:59:21   -61.517257c       c -2.12
iter:   7 23:00:11   -61.506861c       c -2.25
iter:   8 23:01:00   -61.501863c       c -2.47
iter:   9 23:01:48   -61.488445c       c -2.52
iter:  10 23:02:36   -61.484454c       c -2.75
iter:  11 23:03:25   -61.483527c       c -2.96
iter:  12 23:04:38   -61.483367c       c -3.26
iter:  13 23:06:09   -61.482964c       c -3.33
iter:  14 23:07:07   -61.482301c       c -3.35
iter:  15 23:08:03   -61.482190c       c -3.41
iter:  16 23:08:58   -61.482737c       c -3.53
iter:  17 23:09:52   -61.483107c       c -3.69
iter:  18 23:11:24   -61.483146c       c -3.77
iter:  19 23:12:45   -61.483086c       c -3.85
iter:  20 23:13:44   -61.482988c       c -3.93
iter:  21 23:14:44   -61.482997c       c -4.04c

Converged after 21 iterations.

Dipole moment: (-91.380023, -63.442902, 0.446767) |e|*Ang

Energy contributions relative to reference atoms: (reference = -1195904.484944)

Kinetic:       +125.582461
Potential:     -108.143031
External:        +0.000000
XC:             -79.227757
Entropy (-ST):   -3.798418
Local:           +2.204539
SIC:             +0.000000
--------------------------
Free energy:    -63.382206
Extrapolated:   -61.482997

 Band  Eigenvalues  Occupancy
    0    -35.24768    2.00000
    1    -34.76932    2.00000
    2    -34.76761    2.00000
    3    -34.76641    2.00000
    4    -34.76314    2.00000
    5    -34.76093    2.00000
    6    -34.76052    2.00000
    7    -34.75779    2.00000
    8    -34.75757    2.00000
    9    -34.75584    2.00000
   10    -34.75504    2.00000
   11    -34.75426    2.00000
   12    -34.75418    2.00000
   13    -34.75304    2.00000
   14    -34.75289    2.00000
   15    -34.75228    2.00000
   16    -34.75207    2.00000
   17    -34.75146    2.00000
   18    -34.75142    2.00000
   19    -34.75132    2.00000
   20    -34.75116    2.00000
   21    -34.75092    2.00000
   22    -34.75056    2.00000
   23    -34.75034    2.00000
   24    -34.75027    2.00000
   25    -34.75007    2.00000
   26    -34.74973    2.00000
   27    -34.74937    2.00000
   28    -34.74857    2.00000
   29    -34.74840    2.00000
   30    -34.74579    2.00000
   31    -34.74354    2.00000
   32    -34.74183    2.00000
   33    -34.73614    2.00000
   34    -34.72442    2.00000
   35    -34.65787    2.00000
   36    -34.64998    2.00000
   37    -34.60559    2.00000
   38    -34.60461    2.00000
   39    -34.60365    2.00000
   40    -34.60300    2.00000
   41    -34.60164    2.00000
   42    -34.60132    2.00000
   43    -34.60089    2.00000
   44    -34.60006    2.00000
   45    -34.59988    2.00000
   46    -34.59970    2.00000
   47    -34.59922    2.00000
   48    -34.59884    2.00000
   49    -34.59831    2.00000
   50    -34.59809    2.00000
   51    -34.59803    2.00000
   52    -34.59746    2.00000
   53    -34.59725    2.00000
   54    -34.59652    2.00000
   55    -34.59595    2.00000
   56    -34.59545    2.00000
   57    -34.59468    2.00000
   58    -34.59454    2.00000
   59    -34.59404    2.00000
   60    -34.59377    2.00000
   61    -34.59324    2.00000
   62    -34.59308    2.00000
   63    -34.59257    2.00000
   64    -34.59233    2.00000
   65    -34.59195    2.00000
   66    -34.59162    2.00000
   67    -34.59119    2.00000
   68    -34.59102    2.00000
   69    -34.58921    2.00000
   70    -34.58891    2.00000
   71    -34.58599    2.00000
   72    -34.58351    2.00000
   73    -18.74882    2.00000
   74    -18.71919    2.00000
   75    -18.70836    2.00000
   76    -18.27311    2.00000
   77    -18.26692    2.00000
   78    -18.26471    2.00000
   79    -18.26289    2.00000
   80    -18.26219    2.00000
   81    -18.26178    2.00000
   82    -18.26090    2.00000
   83    -18.26071    2.00000
   84    -18.25924    2.00000
   85    -18.25913    2.00000
   86    -18.25895    2.00000
   87    -18.25879    2.00000
   88    -18.25788    2.00000
   89    -18.25672    2.00000
   90    -18.25640    2.00000
   91    -18.25624    2.00000
   92    -18.25586    2.00000
   93    -18.25515    2.00000
   94    -18.25480    2.00000
   95    -18.25444    2.00000
   96    -18.25424    2.00000
   97    -18.25388    2.00000
   98    -18.25317    2.00000
   99    -18.25211    2.00000
  100    -18.25172    2.00000
  101    -18.25148    2.00000
  102    -18.25141    2.00000
  103    -18.25110    2.00000
  104    -18.25087    2.00000
  105    -18.25052    2.00000
  106    -18.25048    2.00000
  107    -18.24984    2.00000
  108    -18.24954    2.00000
  109    -18.24919    2.00000
  110    -18.24892    2.00000
  111    -18.24877    2.00000
  112    -18.24831    2.00000
  113    -18.24830    2.00000
  114    -18.24765    2.00000
  115    -18.24737    2.00000
  116    -18.24714    2.00000
  117    -18.24695    2.00000
  118    -18.24685    2.00000
  119    -18.24647    2.00000
  120    -18.24622    2.00000
  121    -18.24598    2.00000
  122    -18.24579    2.00000
  123    -18.24547    2.00000
  124    -18.24487    2.00000
  125    -18.24457    2.00000
  126    -18.24397    2.00000
  127    -18.24383    2.00000
  128    -18.24335    2.00000
  129    -18.24311    2.00000
  130    -18.24225    2.00000
  131    -18.24113    2.00000
  132    -18.24027    2.00000
  133    -18.23870    2.00000
  134    -18.23655    2.00000
  135    -18.23564    2.00000
  136    -18.23533    2.00000
  137    -18.23476    2.00000
  138    -18.23365    2.00000
  139    -18.23090    2.00000
  140    -18.23052    2.00000
  141    -18.22982    2.00000
  142    -18.22783    2.00000
  143    -18.22690    2.00000
  144    -18.22682    2.00000
  145    -18.22595    2.00000
  146    -18.22488    2.00000
  147    -18.22446    2.00000
  148    -18.22407    2.00000
  149    -18.22327    2.00000
  150    -18.22206    2.00000
  151    -18.22019    2.00000
  152    -18.21972    2.00000
  153    -18.21871    2.00000
  154    -18.21793    2.00000
  155    -18.21763    2.00000
  156    -18.21724    2.00000
  157    -18.21720    2.00000
  158    -18.21667    2.00000
  159    -18.21581    2.00000
  160    -18.21570    2.00000
  161    -18.21565    2.00000
  162    -18.21486    2.00000
  163    -18.21356    2.00000
  164    -18.21308    2.00000
  165    -18.21269    2.00000
  166    -18.21236    2.00000
  167    -18.21081    2.00000
  168    -18.20901    2.00000
  169    -18.20834    2.00000
  170    -18.20758    2.00000
  171    -18.20596    2.00000
  172    -18.20434    2.00000
  173    -18.20356    2.00000
  174    -18.20308    2.00000
  175    -18.20224    2.00000
  176    -18.20155    2.00000
  177    -18.19513    2.00000
  178    -18.16358    2.00000
  179    -18.15961    2.00000
  180    -18.14824    2.00000
  181    -18.14085    2.00000
  182    -18.13544    2.00000
  183    -18.12544    2.00000
  184    -18.12324    2.00000
  185    -18.11825    2.00000
  186    -18.11739    2.00000
  187    -18.11675    2.00000
  188    -18.11614    2.00000
  189    -18.11515    2.00000
  190    -18.11492    2.00000
  191    -18.11443    2.00000
  192    -18.11375    2.00000
  193    -18.11155    2.00000
  194    -18.11018    2.00000
  195    -18.10987    2.00000
  196    -18.10915    2.00000
  197    -18.10806    2.00000
  198    -18.10761    2.00000
  199    -18.10702    2.00000
  200    -18.10631    2.00000
  201    -18.10552    2.00000
  202    -18.10483    2.00000
  203    -18.10453    2.00000
  204    -18.10435    2.00000
  205    -18.10392    2.00000
  206    -18.10335    2.00000
  207    -18.10253    2.00000
  208    -18.10160    2.00000
  209    -18.10097    2.00000
  210    -18.09920    2.00000
  211    -18.09882    2.00000
  212    -18.09854    2.00000
  213    -18.09832    2.00000
  214    -18.09776    2.00000
  215    -18.09700    2.00000
  216    -18.09683    2.00000
  217    -18.09636    2.00000
  218    -18.09577    2.00000
  219    -18.09499    2.00000
  220    -18.09314    2.00000
  221    -18.09217    2.00000
  222    -18.09145    2.00000
  223    -18.09080    2.00000
  224    -18.08999    2.00000
  225    -18.08831    2.00000
  226    -18.08643    2.00000
  227    -18.08581    2.00000
  228    -18.08505    2.00000
  229    -18.08441    2.00000
  230    -18.08327    2.00000
  231    -18.08244    2.00000
  232    -18.08232    2.00000
  233    -18.08193    2.00000
  234    -18.08173    2.00000
  235    -18.08091    2.00000
  236    -18.08064    2.00000
  237    -18.08042    2.00000
  238    -18.07957    2.00000
  239    -18.07827    2.00000
  240    -18.07764    2.00000
  241    -18.07717    2.00000
  242    -18.07666    2.00000
  243    -18.07575    2.00000
  244    -18.07429    2.00000
  245    -18.07376    2.00000
  246    -18.07320    2.00000
  247    -18.07277    2.00000
  248    -18.07227    2.00000
  249    -18.07224    2.00000
  250    -18.07178    2.00000
  251    -18.07145    2.00000
  252    -18.07083    2.00000
  253    -18.07051    2.00000
  254    -18.07018    2.00000
  255    -18.06990    2.00000
  256    -18.06940    2.00000
  257    -18.06851    2.00000
  258    -18.06825    2.00000
  259    -18.06789    2.00000
  260    -18.06775    2.00000
  261    -18.06729    2.00000
  262    -18.06722    2.00000
  263    -18.06704    2.00000
  264    -18.06645    2.00000
  265    -18.06610    2.00000
  266    -18.06604    2.00000
  267    -18.06545    2.00000
  268    -18.06524    2.00000
  269    -18.06432    2.00000
  270    -18.06408    2.00000
  271    -18.06367    2.00000
  272    -18.06327    2.00000
  273    -18.06306    2.00000
  274    -18.06257    2.00000
  275    -18.06238    2.00000
  276    -18.06162    2.00000
  277    -18.06125    2.00000
  278    -18.06023    2.00000
  279    -18.05949    2.00000
  280    -18.05895    2.00000
  281    -18.05872    2.00000
  282    -18.05848    2.00000
  283    -18.05829    2.00000
  284    -18.05769    2.00000
  285    -18.05740    2.00000
  286    -18.05686    2.00000
  287    -18.05661    2.00000
  288    -18.05597    2.00000
  289    -18.05497    2.00000
  290    -18.05278    2.00000
  291    -18.05194    2.00000
  292     -4.54090    2.00000
  293     -4.19674    1.99999
  294     -4.18759    1.99999
  295     -4.14957    1.99998
  296     -3.85346    1.99989
  297     -3.85146    1.99989
  298     -3.81491    1.99986
  299     -3.79884    1.99984
  300     -3.53873    1.99910
  301     -3.52098    1.99899
  302     -3.51405    1.99894
  303     -3.51153    1.99893
  304     -3.51018    1.99892
  305     -3.47204    1.99860
  306     -3.46416    1.99853
  307     -3.21965    1.99250
  308     -3.19070    1.99092
  309     -3.18777    1.99074
  310     -3.17254    1.98975
  311     -3.14639    1.98781
  312     -3.14059    1.98734
  313     -3.13570    1.98692
  314     -3.13236    1.98663
  315     -2.88408    1.93192
  316     -2.84500    1.91255
  317     -2.81926    1.89702
  318     -2.81829    1.89639
  319     -2.72479    1.81504
  320     -2.56997    1.55516
  321     -2.54616    1.49784
  322     -2.54419    1.49288
  323     -2.54387    1.49208
  324     -2.54178    1.48679
  325     -2.53319    1.46464
  326     -2.52116    1.43262
  327     -2.51673    1.42054
  328     -2.41800    1.11867
  329     -2.35695    0.91593
  330     -2.22719    0.52478
  331     -2.21162    0.48560
  332     -2.18843    0.43104
  333     -2.18708    0.42799
  334     -2.18686    0.42751
  335     -2.18297    0.41886
  336     -2.10481    0.27186
  337     -2.04445    0.19038
  338     -1.94642    0.10377
  339     -1.94601    0.10350
  340     -1.91872    0.08704
  341     -1.75367    0.02983
  342     -1.75215    0.02953
  343     -1.73313    0.02606
  344     -1.71186    0.02265
  345     -1.67031    0.01722
  346     -1.65189    0.01525
  347     -1.64995    0.01505
  348     -1.64463    0.01453
  349     -1.64387    0.01446
  350     -1.62641    0.01288
  351     -1.62197    0.01251
  352     -1.60984    0.01154
  353     -1.60752    0.01136
  354     -1.60067    0.01086
  355     -1.58797    0.00998
  356     -1.58753    0.00995
  357     -1.58430    0.00974
  358     -1.52975    0.00678
  359     -1.41539    0.00317
  360     -1.41021    0.00306
  361     -1.37032    0.00235
  362     -1.34261    0.00195
  363     -1.31254    0.00160
  364     -1.27225    0.00122

Fermi level: -2.38223

Gap: 0.061 eV
Transition (v -> c):
  (s=0, k=0, n=328, [0.00, 0.00, 0.00]) -> (s=0, k=0, n=329, [0.00, 0.00, 0.00])
No difference between direct/indirect transitions

Forces in eV/Ang:
  0 K    -0.00020    0.00010   -0.02530
  1 K    -0.00596    0.00460   -0.02894
  2 K     0.00256   -0.00228   -0.01202
  3 K    -0.00528    0.00319   -0.01367
  4 K     0.01115   -0.00049    0.03079
  5 K     0.01560   -0.01751    0.02199
  6 K    -0.08501   -0.05042   -0.07077
  7 K     0.02024   -0.00139    0.03270
  8 K    -0.00142   -0.00043   -0.02597
  9 K     0.00249   -0.00112   -0.02109
 10 K    -0.01252    0.01120   -0.04513
 11 K     0.00008   -0.00094    0.00568
 12 K    -0.01239    0.00110    0.02357
 13 K    -0.00177   -0.00137    0.02554
 14 K    -0.01171   -0.01287    0.03991
 15 K     0.00685   -0.00084    0.02976
 16 K    -0.00235    0.00031   -0.02529
 17 K    -0.00619   -0.00345   -0.02821
 18 K    -0.00950   -0.00853   -0.03612
 19 K    -0.00417   -0.00238   -0.01232
 20 K    -0.01176   -0.00087    0.02449
 21 K    -0.00495    0.01679    0.02313
 22 K     0.00689    0.00068    0.02048
 23 K     0.01020    0.00268    0.02278
 24 K    -0.00369    0.00021   -0.02336
 25 K     0.00044    0.00002   -0.02638
 26 K     0.00388   -0.00188   -0.00341
 27 K     0.01487    0.01364   -0.02169
 28 K    -0.01152    0.01355    0.01997
 29 K    -0.01370    0.00081    0.02637
 30 K    -0.00597   -0.00085    0.02715
 31 K     0.02417    0.01641    0.04569
 32 K     0.00683   -0.00719   -0.02836
 33 K     0.00263    0.00021   -0.02502
 34 K     0.00264    0.00056   -0.00713
 35 K    -0.00559    0.01193   -0.01315
 36 K     0.00588   -0.01200    0.02858
 37 K     0.00033    0.00115    0.01705
 38 K     0.00084    0.00182    0.01778
 39 K    -0.00416    0.00926    0.02033
 40 K     0.00783    0.00695   -0.02835
 41 K     0.00107   -0.00024   -0.02657
 42 K     0.00019    0.00144   -0.00006
 43 K     0.01439   -0.02612   -0.03512
 44 K     0.00916   -0.00467    0.02554
 45 K     0.00886    0.00039    0.02156
 46 K    -0.00798    0.00074    0.02646
 47 K     0.00246    0.00600    0.03782
 48 K     0.00410   -0.00057   -0.02374
 49 K     0.00530    0.00612   -0.03077
 50 K    -0.00557    0.00008   -0.00002
 51 K    -0.00982    0.01159   -0.00845
 52 K     0.00229   -0.00088    0.01099
 53 K    -0.00393   -0.00348    0.01487
 54 K     0.00162   -0.00008    0.02519
 55 K    -0.00150   -0.00045    0.02636
 56 K    -0.00480   -0.00367   -0.03215
 57 K    -0.00609    0.00040   -0.02633
 58 K     0.01012   -0.01142   -0.00808
 59 K     0.00531    0.00007    0.00159
 60 K     0.00424    0.00463    0.01210
 61 K    -0.00194    0.00041    0.01165
 62 K     0.00610   -0.00348    0.02734
 63 K    -0.00141   -0.00323    0.02511
 64 K    -0.00457    0.00424   -0.03342
 65 K     0.00461   -0.00651   -0.03139
 66 K     0.00950    0.01135   -0.00826
 67 K    -0.01040   -0.01167   -0.00819
 68 K     0.00337   -0.00473    0.01154
 69 K    -0.00354    0.00328    0.01476
 70 K     0.00666    0.00387    0.02729
 71 K    -0.00417    0.00224    0.02808
 72 K     0.02335    0.02620    0.07687

System changes: positions 

Initializing position-dependent things.

Density initialized from wave functions
           .------------------------------------------------------.  
          /|                                                      |  
         / |                                                      |  
        /  |                                                      |  
       /   |                                                      |  
      /    |                                                      |  
     /     |                                                      |  
    /      |                                                      |  
   /       |                                                      |  
  /        |                                                      |  
 *         |                                                      |  
 |         |                                                      |  
 |         |                                                      |  
 |         |                                                      |  
 |       K |                K                 K                   |  
 |         |     K                 K                  K           |  
 |         |                                                      |  
 |    K    |            K    K             K    K                 K  
 |         |  K                      K                 K          |  
 |         |  K   K             K                 K               |  
 | K       |              K            K    K                  K  |  
 |         |         K                                            |  
 |         |   K            K     K            K    K             |  
 |       KK|           K    K            K    K            K      |  
 |         |                                                      |  
 |         |K    K            K    K             K   K            |  
 |    K    |            K                  K                      |  
 |         |       K                 K                 K          |  
 |         | K                  K                 K               |  
 |      K  |              K                 K                     |  
 | K       |         K                 K                          |  
 |        K|   K             K   K             K    K             |  
 |  K      |           K                 K                        |  
 |         |                                                      |  
 |         |K                 K                  K                |  
 |         |                                                      |  
 K         |       K                  K                           |  
 |         |                                                      |  
 |         .------------------------------------------------------.  
 |        /                                                      /   
 |       /                                                      /    
 |      /                                                      /     
 |     /                                                      /      
 |    /                                                      /       
 |   /                                                      /        
 |  /                                                      /         
 | /                                                      /          
 |/                                                      /           
 *------------------------------------------------------*            

Atomic positions and initial magnetic moments

Positions:
   0 K      0.000000    0.000000   10.000000    ( 0.0000,  0.0000,  0.0000)
   1 K      3.698168    2.615000   10.000000    ( 0.0000,  0.0000,  0.0000)
   2 K      3.698168    0.000000   13.698168    ( 0.0000,  0.0000,  0.0000)
   3 K      0.000000    2.615000   13.698168    ( 0.0000,  0.0000,  0.0000)
   4 K     -0.026002   -0.001182   17.368354    ( 0.0000,  0.0000,  0.0000)
   5 K      3.679271    2.738692   17.250571    ( 0.0000,  0.0000,  0.0000)
   6 K      3.729207    0.019318   20.617870    ( 0.0000,  0.0000,  0.0000)
   7 K      0.027860    2.588060   21.203265    ( 0.0000,  0.0000,  0.0000)
   8 K      0.000000    5.230000   10.000000    ( 0.0000,  0.0000,  0.0000)
   9 K      3.698168    7.845000   10.000000    ( 0.0000,  0.0000,  0.0000)
  10 K      3.698168    5.230000   13.698168    ( 0.0000,  0.0000,  0.0000)
  11 K      0.000000    7.845000   13.698168    ( 0.0000,  0.0000,  0.0000)
  12 K     -0.004071    5.230582   17.406801    ( 0.0000,  0.0000,  0.0000)
  13 K      3.701582    7.842397   17.410516    ( 0.0000,  0.0000,  0.0000)
  14 K      3.721235    5.183342   21.210021    ( 0.0000,  0.0000,  0.0000)
  15 K      0.001911    7.842554   21.151269    ( 0.0000,  0.0000,  0.0000)
  16 K      0.000000   10.460000   10.000000    ( 0.0000,  0.0000,  0.0000)
  17 K      3.698168   13.075000   10.000000    ( 0.0000,  0.0000,  0.0000)
  18 K      3.698168   10.460000   13.698168    ( 0.0000,  0.0000,  0.0000)
  19 K      0.000000   13.075000   13.698168    ( 0.0000,  0.0000,  0.0000)
  20 K     -0.002869   10.460640   17.403746    ( 0.0000,  0.0000,  0.0000)
  21 K      3.687064   12.953050   17.272730    ( 0.0000,  0.0000,  0.0000)
  22 K      3.699495   10.484999   21.184856    ( 0.0000,  0.0000,  0.0000)
  23 K      0.028577   13.103902   21.203197    ( 0.0000,  0.0000,  0.0000)
  24 K      7.396337    0.000000   10.000000    ( 0.0000,  0.0000,  0.0000)
  25 K     11.094505    2.615000   10.000000    ( 0.0000,  0.0000,  0.0000)
  26 K     11.094505    0.000000   13.698168    ( 0.0000,  0.0000,  0.0000)
  27 K      7.396337    2.615000   13.698168    ( 0.0000,  0.0000,  0.0000)
  28 K      7.415467   -0.077671   17.292096    ( 0.0000,  0.0000,  0.0000)
  29 K     11.115781    2.613975   17.390635    ( 0.0000,  0.0000,  0.0000)
  30 K     11.073061    0.021320   21.177874    ( 0.0000,  0.0000,  0.0000)
  31 K      7.375134    2.595785   20.885044    ( 0.0000,  0.0000,  0.0000)
  32 K      7.396337    5.230000   10.000000    ( 0.0000,  0.0000,  0.0000)
  33 K     11.094505    7.845000   10.000000    ( 0.0000,  0.0000,  0.0000)
  34 K     11.094505    5.230000   13.698168    ( 0.0000,  0.0000,  0.0000)
  35 K      7.396337    7.845000   13.698168    ( 0.0000,  0.0000,  0.0000)
  36 K      7.405210    5.296505   17.325170    ( 0.0000,  0.0000,  0.0000)
  37 K     11.100347    7.843263   17.403351    ( 0.0000,  0.0000,  0.0000)
  38 K     11.073872    5.216911   21.183096    ( 0.0000,  0.0000,  0.0000)
  39 K      7.391184    7.825544   21.176057    ( 0.0000,  0.0000,  0.0000)
  40 K      7.396337   10.460000   10.000000    ( 0.0000,  0.0000,  0.0000)
  41 K     11.094505   13.075000   10.000000    ( 0.0000,  0.0000,  0.0000)
  42 K     11.094505   10.460000   13.698168    ( 0.0000,  0.0000,  0.0000)
  43 K      7.396337   13.075000   13.698168    ( 0.0000,  0.0000,  0.0000)
  44 K      7.408143   10.471837   17.417510    ( 0.0000,  0.0000,  0.0000)
  45 K     11.104338   13.078300   17.412029    ( 0.0000,  0.0000,  0.0000)
  46 K     11.092883   10.456031   21.161739    ( 0.0000,  0.0000,  0.0000)
  47 K      7.369960   13.116036   21.210214    ( 0.0000,  0.0000,  0.0000)
  48 K     14.792674    0.000000   10.000000    ( 0.0000,  0.0000,  0.0000)
  49 K     18.490842    2.615000   10.000000    ( 0.0000,  0.0000,  0.0000)
  50 K     18.490842    0.000000   13.698168    ( 0.0000,  0.0000,  0.0000)
  51 K     14.792674    2.615000   13.698168    ( 0.0000,  0.0000,  0.0000)
  52 K     14.803911   -0.001828   17.406297    ( 0.0000,  0.0000,  0.0000)
  53 K     18.498025    2.625000   17.413775    ( 0.0000,  0.0000,  0.0000)
  54 K     18.481585    0.000381   21.160534    ( 0.0000,  0.0000,  0.0000)
  55 K     14.788454    2.615957   21.153102    ( 0.0000,  0.0000,  0.0000)
  56 K     14.792674    5.230000   10.000000    ( 0.0000,  0.0000,  0.0000)
  57 K     18.490842    7.845000   10.000000    ( 0.0000,  0.0000,  0.0000)
  58 K     18.490842    5.230000   13.698168    ( 0.0000,  0.0000,  0.0000)
  59 K     14.792674    7.845000   13.698168    ( 0.0000,  0.0000,  0.0000)
  60 K     14.784817    5.221823   17.414032    ( 0.0000,  0.0000,  0.0000)
  61 K     18.481557    7.845488   17.401257    ( 0.0000,  0.0000,  0.0000)
  62 K     18.493151    5.228049   21.154830    ( 0.0000,  0.0000,  0.0000)
  63 K     14.798398    7.842538   21.156013    ( 0.0000,  0.0000,  0.0000)
  64 K     14.792674   10.460000   10.000000    ( 0.0000,  0.0000,  0.0000)
  65 K     18.490842   13.075000   10.000000    ( 0.0000,  0.0000,  0.0000)
  66 K     18.490842   10.460000   13.698168    ( 0.0000,  0.0000,  0.0000)
  67 K     14.792674   13.075000   13.698168    ( 0.0000,  0.0000,  0.0000)
  68 K     14.783736   10.469257   17.411714    ( 0.0000,  0.0000,  0.0000)
  69 K     18.498165   13.064690   17.411749    ( 0.0000,  0.0000,  0.0000)
  70 K     18.493406   10.461887   21.155227    ( 0.0000,  0.0000,  0.0000)
  71 K     14.787273   13.076251   21.153046    ( 0.0000,  0.0000,  0.0000)
  72 K      4.935383    0.874414   24.287462    ( 0.0000,  0.0000,  0.0000)

Unit cell:
           periodic     x           y           z      points  spacing
  1. axis:    yes   22.189011    0.000000    0.000000   112     0.1981
  2. axis:    yes    0.000000   15.690000    0.000000    80     0.1961
  3. axis:    no     0.000000    0.000000   31.094505   156     0.1993

  Lengths:  22.189011  15.690000  31.094505
  Angles:   90.000000  90.000000  90.000000

Effective grid spacing dv^(1/3) = 0.1979

     iter     time        total  log10-change:
                         energy   eigst   dens
iter:   1 00:19:39   -61.483307        c
iter:   2 00:20:41   -61.483268        c -3.95
iter:   3 00:21:36   -61.483235c       c -4.09c

Converged after 3 iterations.

Dipole moment: (-91.417489, -63.404824, 0.451630) |e|*Ang

Energy contributions relative to reference atoms: (reference = -1195904.484944)

Kinetic:       +120.648753
Potential:     -103.705286
External:        +0.000000
XC:             -78.833234
Entropy (-ST):   -3.798902
Local:           +2.305983
SIC:             +0.000000
--------------------------
Free energy:    -63.382686
Extrapolated:   -61.483235

 Band  Eigenvalues  Occupancy
    0    -35.25095    2.00000
    1    -34.77387    2.00000
    2    -34.77173    2.00000
    3    -34.77059    2.00000
    4    -34.76674    2.00000
    5    -34.76416    2.00000
    6    -34.76335    2.00000
    7    -34.76139    2.00000
    8    -34.76043    2.00000
    9    -34.75949    2.00000
   10    -34.75787    2.00000
   11    -34.75774    2.00000
   12    -34.75693    2.00000
   13    -34.75651    2.00000
   14    -34.75627    2.00000
   15    -34.75556    2.00000
   16    -34.75541    2.00000
   17    -34.75495    2.00000
   18    -34.75492    2.00000
   19    -34.75467    2.00000
   20    -34.75450    2.00000
   21    -34.75432    2.00000
   22    -34.75428    2.00000
   23    -34.75404    2.00000
   24    -34.75381    2.00000
   25    -34.75352    2.00000
   26    -34.75323    2.00000
   27    -34.75298    2.00000
   28    -34.75245    2.00000
   29    -34.75213    2.00000
   30    -34.75017    2.00000
   31    -34.74825    2.00000
   32    -34.74665    2.00000
   33    -34.74116    2.00000
   34    -34.72938    2.00000
   35    -34.66307    2.00000
   36    -34.65550    2.00000
   37    -34.60897    2.00000
   38    -34.60803    2.00000
   39    -34.60656    2.00000
   40    -34.60630    2.00000
   41    -34.60501    2.00000
   42    -34.60438    2.00000
   43    -34.60421    2.00000
   44    -34.60334    2.00000
   45    -34.60314    2.00000
   46    -34.60296    2.00000
   47    -34.60246    2.00000
   48    -34.60236    2.00000
   49    -34.60189    2.00000
   50    -34.60164    2.00000
   51    -34.60149    2.00000
   52    -34.60108    2.00000
   53    -34.60056    2.00000
   54    -34.60024    2.00000
   55    -34.59933    2.00000
   56    -34.59883    2.00000
   57    -34.59819    2.00000
   58    -34.59769    2.00000
   59    -34.59754    2.00000
   60    -34.59730    2.00000
   61    -34.59675    2.00000
   62    -34.59637    2.00000
   63    -34.59604    2.00000
   64    -34.59575    2.00000
   65    -34.59558    2.00000
   66    -34.59508    2.00000
   67    -34.59482    2.00000
   68    -34.59413    2.00000
   69    -34.59346    2.00000
   70    -34.59317    2.00000
   71    -34.58909    2.00000
   72    -34.58577    2.00000
   73    -18.75175    2.00000
   74    -18.72226    2.00000
   75    -18.71144    2.00000
   76    -18.27703    2.00000
   77    -18.26980    2.00000
   78    -18.26881    2.00000
   79    -18.26669    2.00000
   80    -18.26600    2.00000
   81    -18.26543    2.00000
   82    -18.26457    2.00000
   83    -18.26319    2.00000
   84    -18.26288    2.00000
   85    -18.26238    2.00000
   86    -18.26192    2.00000
   87    -18.26177    2.00000
   88    -18.26129    2.00000
   89    -18.25942    2.00000
   90    -18.25934    2.00000
   91    -18.25925    2.00000
   92    -18.25902    2.00000
   93    -18.25858    2.00000
   94    -18.25826    2.00000
   95    -18.25769    2.00000
   96    -18.25718    2.00000
   97    -18.25665    2.00000
   98    -18.25655    2.00000
   99    -18.25520    2.00000
  100    -18.25504    2.00000
  101    -18.25491    2.00000
  102    -18.25453    2.00000
  103    -18.25424    2.00000
  104    -18.25408    2.00000
  105    -18.25397    2.00000
  106    -18.25359    2.00000
  107    -18.25289    2.00000
  108    -18.25278    2.00000
  109    -18.25230    2.00000
  110    -18.25223    2.00000
  111    -18.25208    2.00000
  112    -18.25172    2.00000
  113    -18.25134    2.00000
  114    -18.25130    2.00000
  115    -18.25064    2.00000
  116    -18.25045    2.00000
  117    -18.25018    2.00000
  118    -18.24999    2.00000
  119    -18.24962    2.00000
  120    -18.24946    2.00000
  121    -18.24936    2.00000
  122    -18.24922    2.00000
  123    -18.24885    2.00000
  124    -18.24833    2.00000
  125    -18.24828    2.00000
  126    -18.24737    2.00000
  127    -18.24735    2.00000
  128    -18.24699    2.00000
  129    -18.24671    2.00000
  130    -18.24586    2.00000
  131    -18.24537    2.00000
  132    -18.24398    2.00000
  133    -18.24309    2.00000
  134    -18.23954    2.00000
  135    -18.23922    2.00000
  136    -18.23852    2.00000
  137    -18.23831    2.00000
  138    -18.23652    2.00000
  139    -18.23459    2.00000
  140    -18.23435    2.00000
  141    -18.23357    2.00000
  142    -18.23187    2.00000
  143    -18.23055    2.00000
  144    -18.22988    2.00000
  145    -18.22959    2.00000
  146    -18.22838    2.00000
  147    -18.22806    2.00000
  148    -18.22713    2.00000
  149    -18.22640    2.00000
  150    -18.22495    2.00000
  151    -18.22375    2.00000
  152    -18.22288    2.00000
  153    -18.22200    2.00000
  154    -18.22184    2.00000
  155    -18.22111    2.00000
  156    -18.22105    2.00000
  157    -18.22060    2.00000
  158    -18.21997    2.00000
  159    -18.21907    2.00000
  160    -18.21897    2.00000
  161    -18.21876    2.00000
  162    -18.21829    2.00000
  163    -18.21659    2.00000
  164    -18.21654    2.00000
  165    -18.21613    2.00000
  166    -18.21574    2.00000
  167    -18.21415    2.00000
  168    -18.21288    2.00000
  169    -18.21165    2.00000
  170    -18.21091    2.00000
  171    -18.20947    2.00000
  172    -18.20808    2.00000
  173    -18.20747    2.00000
  174    -18.20743    2.00000
  175    -18.20659    2.00000
  176    -18.20528    2.00000
  177    -18.19972    2.00000
  178    -18.16833    2.00000
  179    -18.16436    2.00000
  180    -18.15300    2.00000
  181    -18.14566    2.00000
  182    -18.14002    2.00000
  183    -18.13029    2.00000
  184    -18.12641    2.00000
  185    -18.12152    2.00000
  186    -18.12053    2.00000
  187    -18.11996    2.00000
  188    -18.11930    2.00000
  189    -18.11806    2.00000
  190    -18.11797    2.00000
  191    -18.11759    2.00000
  192    -18.11701    2.00000
  193    -18.11489    2.00000
  194    -18.11332    2.00000
  195    -18.11286    2.00000
  196    -18.11215    2.00000
  197    -18.11119    2.00000
  198    -18.11080    2.00000
  199    -18.11006    2.00000
  200    -18.10937    2.00000
  201    -18.10878    2.00000
  202    -18.10808    2.00000
  203    -18.10775    2.00000
  204    -18.10746    2.00000
  205    -18.10701    2.00000
  206    -18.10646    2.00000
  207    -18.10558    2.00000
  208    -18.10475    2.00000
  209    -18.10408    2.00000
  210    -18.10233    2.00000
  211    -18.10197    2.00000
  212    -18.10181    2.00000
  213    -18.10145    2.00000
  214    -18.10097    2.00000
  215    -18.10013    2.00000
  216    -18.09995    2.00000
  217    -18.09959    2.00000
  218    -18.09901    2.00000
  219    -18.09817    2.00000
  220    -18.09637    2.00000
  221    -18.09506    2.00000
  222    -18.09462    2.00000
  223    -18.09393    2.00000
  224    -18.09318    2.00000
  225    -18.09139    2.00000
  226    -18.08957    2.00000
  227    -18.08899    2.00000
  228    -18.08819    2.00000
  229    -18.08759    2.00000
  230    -18.08642    2.00000
  231    -18.08560    2.00000
  232    -18.08541    2.00000
  233    -18.08511    2.00000
  234    -18.08490    2.00000
  235    -18.08409    2.00000
  236    -18.08376    2.00000
  237    -18.08352    2.00000
  238    -18.08257    2.00000
  239    -18.08134    2.00000
  240    -18.08077    2.00000
  241    -18.08035    2.00000
  242    -18.07984    2.00000
  243    -18.07893    2.00000
  244    -18.07744    2.00000
  245    -18.07688    2.00000
  246    -18.07639    2.00000
  247    -18.07599    2.00000
  248    -18.07544    2.00000
  249    -18.07528    2.00000
  250    -18.07491    2.00000
  251    -18.07437    2.00000
  252    -18.07393    2.00000
  253    -18.07363    2.00000
  254    -18.07331    2.00000
  255    -18.07296    2.00000
  256    -18.07261    2.00000
  257    -18.07181    2.00000
  258    -18.07141    2.00000
  259    -18.07104    2.00000
  260    -18.07099    2.00000
  261    -18.07050    2.00000
  262    -18.07033    2.00000
  263    -18.07024    2.00000
  264    -18.06960    2.00000
  265    -18.06923    2.00000
  266    -18.06916    2.00000
  267    -18.06866    2.00000
  268    -18.06821    2.00000
  269    -18.06742    2.00000
  270    -18.06723    2.00000
  271    -18.06683    2.00000
  272    -18.06626    2.00000
  273    -18.06606    2.00000
  274    -18.06574    2.00000
  275    -18.06546    2.00000
  276    -18.06477    2.00000
  277    -18.06463    2.00000
  278    -18.06338    2.00000
  279    -18.06257    2.00000
  280    -18.06215    2.00000
  281    -18.06193    2.00000
  282    -18.06164    2.00000
  283    -18.06159    2.00000
  284    -18.06096    2.00000
  285    -18.06050    2.00000
  286    -18.06008    2.00000
  287    -18.05956    2.00000
  288    -18.05864    2.00000
  289    -18.05824    2.00000
  290    -18.05559    2.00000
  291    -18.05507    2.00000
  292     -4.54252    2.00000
  293     -4.19837    1.99999
  294     -4.18925    1.99999
  295     -4.15159    1.99998
  296     -3.85511    1.99989
  297     -3.85307    1.99989
  298     -3.81702    1.99986
  299     -3.80091    1.99984
  300     -3.54034    1.99910
  301     -3.52256    1.99899
  302     -3.51559    1.99894
  303     -3.51318    1.99893
  304     -3.51174    1.99892
  305     -3.47399    1.99861
  306     -3.46624    1.99853
  307     -3.22118    1.99250
  308     -3.19234    1.99092
  309     -3.18941    1.99074
  310     -3.17390    1.98974
  311     -3.14831    1.98784
  312     -3.14269    1.98738
  313     -3.13781    1.98696
  314     -3.13445    1.98667
  315     -2.88542    1.93182
  316     -2.84633    1.91240
  317     -2.82127    1.89730
  318     -2.82035    1.89670
  319     -2.72624    1.81489
  320     -2.57142    1.55482
  321     -2.54778    1.49791
  322     -2.54581    1.49297
  323     -2.54551    1.49221
  324     -2.54343    1.48694
  325     -2.53452    1.46394
  326     -2.52252    1.43199
  327     -2.51808    1.41986
  328     -2.41945    1.11821
  329     -2.35842    0.91552
  330     -2.22857    0.52424
  331     -2.21306    0.48523
  332     -2.19031    0.43168
  333     -2.18915    0.42907
  334     -2.18886    0.42842
  335     -2.18510    0.42003
  336     -2.10629    0.27170
  337     -2.04589    0.19021
  338     -1.94804    0.10379
  339     -1.94763    0.10352
  340     -1.92017    0.08696
  341     -1.75516    0.02981
  342     -1.75364    0.02951
  343     -1.73464    0.02605
  344     -1.71328    0.02263
  345     -1.67191    0.01722
  346     -1.65350    0.01525
  347     -1.65155    0.01505
  348     -1.64628    0.01454
  349     -1.64553    0.01446
  350     -1.62771    0.01286
  351     -1.62337    0.01249
  352     -1.61124    0.01153
  353     -1.60899    0.01135
  354     -1.60203    0.01084
  355     -1.58971    0.00999
  356     -1.58951    0.00998
  357     -1.58604    0.00975
  358     -1.53117    0.00677
  359     -1.41660    0.00316
  360     -1.41152    0.00306
  361     -1.37242    0.00236
  362     -1.34403    0.00195
  363     -1.31404    0.00160
  364     -1.27432    0.00123

Fermi level: -2.38382

Gap: 0.061 eV
Transition (v -> c):
  (s=0, k=0, n=328, [0.00, 0.00, 0.00]) -> (s=0, k=0, n=329, [0.00, 0.00, 0.00])
No difference between direct/indirect transitions

Forces in eV/Ang:
  0 K     0.00029    0.00016   -0.02872
  1 K    -0.00570    0.00467   -0.03286
  2 K     0.00268   -0.00258   -0.00780
  3 K    -0.00552    0.00366   -0.01004
  4 K     0.01141   -0.00024    0.02783
  5 K     0.01541   -0.01683    0.01784
  6 K    -0.08284   -0.04886   -0.06627
  7 K     0.01856   -0.00112    0.03400
  8 K    -0.00053   -0.00059   -0.02885
  9 K     0.00297   -0.00097   -0.02397
 10 K    -0.01246    0.01175   -0.04148
 11 K    -0.00014   -0.00055    0.00913
 12 K    -0.01179    0.00039    0.02055
 13 K    -0.00166   -0.00207    0.02263
 14 K    -0.01150   -0.01212    0.04091
 15 K     0.00618   -0.00081    0.03179
 16 K    -0.00117    0.00042   -0.02770
 17 K    -0.00590   -0.00367   -0.03171
 18 K    -0.00951   -0.00878   -0.03310
 19 K    -0.00449   -0.00324   -0.00881
 20 K    -0.01168   -0.00038    0.02087
 21 K    -0.00445    0.01640    0.01868
 22 K     0.00647   -0.00009    0.02175
 23 K     0.00879    0.00212    0.02448
 24 K    -0.00410    0.00022   -0.02725
 25 K    -0.00008   -0.00013   -0.02944
 26 K     0.00426   -0.00214    0.00001
 27 K     0.01476    0.01416   -0.01788
 28 K    -0.01160    0.01319    0.01645
 29 K    -0.01399    0.00056    0.02363
 30 K    -0.00473   -0.00085    0.02847
 31 K     0.02423    0.01628    0.04732
 32 K     0.00628   -0.00699   -0.03157
 33 K     0.00142    0.00005   -0.02715
 34 K     0.00308    0.00136   -0.00365
 35 K    -0.00551    0.01209   -0.01032
 36 K     0.00515   -0.01257    0.02533
 37 K     0.00091    0.00103    0.01319
 38 K     0.00130    0.00179    0.01964
 39 K    -0.00376    0.00918    0.02186
 40 K     0.00707    0.00674   -0.03119
 41 K     0.00029    0.00006   -0.02936
 42 K     0.00047    0.00091    0.00372
 43 K     0.01432   -0.02684   -0.03127
 44 K     0.00873   -0.00340    0.02218
 45 K     0.00821    0.00060    0.01871
 46 K    -0.00746    0.00093    0.02880
 47 K     0.00273    0.00605    0.03885
 48 K     0.00401   -0.00021   -0.02611
 49 K     0.00557    0.00565   -0.03324
 50 K    -0.00606   -0.00013    0.00329
 51 K    -0.00949    0.01194   -0.00500
 52 K     0.00202   -0.00113    0.00773
 53 K    -0.00354   -0.00302    0.01178
 54 K     0.00177   -0.00003    0.02778
 55 K    -0.00176   -0.00041    0.02905
 56 K    -0.00514   -0.00443   -0.03419
 57 K    -0.00539    0.00015   -0.02824
 58 K     0.00967   -0.01097   -0.00397
 59 K     0.00536    0.00018    0.00648
 60 K     0.00445    0.00519    0.00813
 61 K    -0.00263    0.00060    0.00756
 62 K     0.00634   -0.00353    0.02963
 63 K    -0.00114   -0.00308    0.02773
 64 K    -0.00496    0.00463   -0.03535
 65 K     0.00511   -0.00579   -0.03363
 66 K     0.00930    0.01111   -0.00364
 67 K    -0.01005   -0.01214   -0.00414
 68 K     0.00381   -0.00504    0.00742
 69 K    -0.00365    0.00264    0.01117
 70 K     0.00648    0.00386    0.02962
 71 K    -0.00440    0.00201    0.03054
 72 K     0.02275    0.02573    0.07589

System changes: positions 

Initializing position-dependent things.

Density initialized from wave functions
           .------------------------------------------------------.  
          /|                                                      |  
         / |                                                      |  
        /  |                                                      |  
       /   |                                                      |  
      /    |                                                      |  
     /     |                                                      |  
    /      |                                                      |  
   /       |                                                      |  
  /        |                                                      |  
 *         |                                                      |  
 |         |                                                      |  
 |         |                                                      |  
 |         |                                                      |  
 |       K |                K                 K                   |  
 |         |     K                 K                  K           |  
 |         |                                                      |  
 |    K    |            K    K             K    K                 K  
 |         |  K                      K                 K          |  
 |         |  K   K             K                 K               |  
 | K       |              K            K    K                  K  |  
 |         |         K                                            |  
 |         |   K            K     K            K    K             |  
 |       KK|           K    K            K    K            K      |  
 |         |                                                      |  
 |         |K    K            K    K             K   K            |  
 |    K    |            K                  K                      |  
 |         |       K                 K                 K          |  
 |         | K                  K                 K               |  
 |      K  |              K                 K                     |  
 | K       |         K                 K                          |  
 |        K|   K             K   K             K    K             |  
 |  K      |           K                 K                        |  
 |         |                                                      |  
 |         |K                 K                  K                |  
 |         |                                                      |  
 K         |       K                  K                           |  
 |         |                                                      |  
 |         .------------------------------------------------------.  
 |        /                                                      /   
 |       /                                                      /    
 |      /                                                      /     
 |     /                                                      /      
 |    /                                                      /       
 |   /                                                      /        
 |  /                                                      /         
 | /                                                      /          
 |/                                                      /           
 *------------------------------------------------------*            

Atomic positions and initial magnetic moments

Positions:
   0 K      0.000000    0.000000   10.000000    ( 0.0000,  0.0000,  0.0000)
   1 K      3.698168    2.615000   10.000000    ( 0.0000,  0.0000,  0.0000)
   2 K      3.698168    0.000000   13.698168    ( 0.0000,  0.0000,  0.0000)
   3 K      0.000000    2.615000   13.698168    ( 0.0000,  0.0000,  0.0000)
   4 K     -0.025778   -0.001189   17.368934    ( 0.0000,  0.0000,  0.0000)
   5 K      3.679584    2.738359   17.250954    ( 0.0000,  0.0000,  0.0000)
   6 K      3.727525    0.018322   20.616449    ( 0.0000,  0.0000,  0.0000)
   7 K      0.028249    2.588034   21.203935    ( 0.0000,  0.0000,  0.0000)
   8 K      0.000000    5.230000   10.000000    ( 0.0000,  0.0000,  0.0000)
   9 K      3.698168    7.845000   10.000000    ( 0.0000,  0.0000,  0.0000)
  10 K      3.698168    5.230000   13.698168    ( 0.0000,  0.0000,  0.0000)
  11 K      0.000000    7.845000   13.698168    ( 0.0000,  0.0000,  0.0000)
  12 K     -0.004313    5.230595   17.407238    ( 0.0000,  0.0000,  0.0000)
  13 K      3.701548    7.842362   17.410993    ( 0.0000,  0.0000,  0.0000)
  14 K      3.720999    5.183094   21.210828    ( 0.0000,  0.0000,  0.0000)
  15 K      0.002040    7.842537   21.151886    ( 0.0000,  0.0000,  0.0000)
  16 K      0.000000   10.460000   10.000000    ( 0.0000,  0.0000,  0.0000)
  17 K      3.698168   13.075000   10.000000    ( 0.0000,  0.0000,  0.0000)
  18 K      3.698168   10.460000   13.698168    ( 0.0000,  0.0000,  0.0000)
  19 K      0.000000   13.075000   13.698168    ( 0.0000,  0.0000,  0.0000)
  20 K     -0.003103   10.460628   17.404195    ( 0.0000,  0.0000,  0.0000)
  21 K      3.686972   12.953372   17.273129    ( 0.0000,  0.0000,  0.0000)
  22 K      3.699629   10.485006   21.185280    ( 0.0000,  0.0000,  0.0000)
  23 K      0.028768   13.103951   21.203674    ( 0.0000,  0.0000,  0.0000)
  24 K      7.396337    0.000000   10.000000    ( 0.0000,  0.0000,  0.0000)
  25 K     11.094505    2.615000   10.000000    ( 0.0000,  0.0000,  0.0000)
  26 K     11.094505    0.000000   13.698168    ( 0.0000,  0.0000,  0.0000)
  27 K      7.396337    2.615000   13.698168    ( 0.0000,  0.0000,  0.0000)
  28 K      7.415238   -0.077391   17.292467    ( 0.0000,  0.0000,  0.0000)
  29 K     11.115500    2.613989   17.391134    ( 0.0000,  0.0000,  0.0000)
  30 K     11.072959    0.021300   21.178425    ( 0.0000,  0.0000,  0.0000)
  31 K      7.375616    2.596109   20.886030    ( 0.0000,  0.0000,  0.0000)
  32 K      7.396337    5.230000   10.000000    ( 0.0000,  0.0000,  0.0000)
  33 K     11.094505    7.845000   10.000000    ( 0.0000,  0.0000,  0.0000)
  34 K     11.094505    5.230000   13.698168    ( 0.0000,  0.0000,  0.0000)
  35 K      7.396337    7.845000   13.698168    ( 0.0000,  0.0000,  0.0000)
  36 K      7.405321    5.296245   17.325720    ( 0.0000,  0.0000,  0.0000)
  37 K     11.100359    7.843285   17.403647    ( 0.0000,  0.0000,  0.0000)
  38 K     11.073898    5.216950   21.183466    ( 0.0000,  0.0000,  0.0000)
  39 K      7.391105    7.825732   21.176476    ( 0.0000,  0.0000,  0.0000)
  40 K      7.396337   10.460000   10.000000    ( 0.0000,  0.0000,  0.0000)
  41 K     11.094505   13.075000   10.000000    ( 0.0000,  0.0000,  0.0000)
  42 K     11.094505   10.460000   13.698168    ( 0.0000,  0.0000,  0.0000)
  43 K      7.396337   13.075000   13.698168    ( 0.0000,  0.0000,  0.0000)
  44 K      7.408322   10.471758   17.417982    ( 0.0000,  0.0000,  0.0000)
  45 K     11.104507   13.078310   17.412427    ( 0.0000,  0.0000,  0.0000)
  46 K     11.092730   10.456048   21.162292    ( 0.0000,  0.0000,  0.0000)
  47 K      7.370010   13.116155   21.210981    ( 0.0000,  0.0000,  0.0000)
  48 K     14.792674    0.000000   10.000000    ( 0.0000,  0.0000,  0.0000)
  49 K     18.490842    2.615000   10.000000    ( 0.0000,  0.0000,  0.0000)
  50 K     18.490842    0.000000   13.698168    ( 0.0000,  0.0000,  0.0000)
  51 K     14.792674    2.615000   13.698168    ( 0.0000,  0.0000,  0.0000)
  52 K     14.803953   -0.001848   17.406480    ( 0.0000,  0.0000,  0.0000)
  53 K     18.497950    2.624935   17.414038    ( 0.0000,  0.0000,  0.0000)
  54 K     18.481619    0.000380   21.161064    ( 0.0000,  0.0000,  0.0000)
  55 K     14.788422    2.615949   21.153658    ( 0.0000,  0.0000,  0.0000)
  56 K     14.792674    5.230000   10.000000    ( 0.0000,  0.0000,  0.0000)
  57 K     18.490842    7.845000   10.000000    ( 0.0000,  0.0000,  0.0000)
  58 K     18.490842    5.230000   13.698168    ( 0.0000,  0.0000,  0.0000)
  59 K     14.792674    7.845000   13.698168    ( 0.0000,  0.0000,  0.0000)
  60 K     14.784904    5.221922   17.414229    ( 0.0000,  0.0000,  0.0000)
  61 K     18.481511    7.845499   17.401445    ( 0.0000,  0.0000,  0.0000)
  62 K     18.493275    5.227979   21.155400    ( 0.0000,  0.0000,  0.0000)
  63 K     14.798373    7.842476   21.156542    ( 0.0000,  0.0000,  0.0000)
  64 K     14.792674   10.460000   10.000000    ( 0.0000,  0.0000,  0.0000)
  65 K     18.490842   13.075000   10.000000    ( 0.0000,  0.0000,  0.0000)
  66 K     18.490842   10.460000   13.698168    ( 0.0000,  0.0000,  0.0000)
  67 K     14.792674   13.075000   13.698168    ( 0.0000,  0.0000,  0.0000)
  68 K     14.783808   10.469159   17.411899    ( 0.0000,  0.0000,  0.0000)
  69 K     18.498093   13.064748   17.412004    ( 0.0000,  0.0000,  0.0000)
  70 K     18.493538   10.461965   21.155797    ( 0.0000,  0.0000,  0.0000)
  71 K     14.787188   13.076293   21.153633    ( 0.0000,  0.0000,  0.0000)
  72 K      4.935634    0.874785   24.288987    ( 0.0000,  0.0000,  0.0000)

Unit cell:
           periodic     x           y           z      points  spacing
  1. axis:    yes   22.189011    0.000000    0.000000   112     0.1981
  2. axis:    yes    0.000000   15.690000    0.000000    80     0.1961
  3. axis:    no     0.000000    0.000000   31.094505   156     0.1993

  Lengths:  22.189011  15.690000  31.094505
  Angles:   90.000000  90.000000  90.000000

Effective grid spacing dv^(1/3) = 0.1979

     iter     time        total  log10-change:
                         energy   eigst   dens
iter:   1 00:53:22   -61.484374        c
iter:   2 00:54:40   -61.484253        c -3.70
iter:   3 00:55:40   -61.484300c       c -3.94
iter:   4 00:56:33   -61.484352c       c -4.07c

Converged after 4 iterations.

Dipole moment: (-91.479153, -63.322531, 0.447847) |e|*Ang

Energy contributions relative to reference atoms: (reference = -1195904.484944)

Kinetic:       +122.422819
Potential:     -105.317817
External:        +0.000000
XC:             -79.000225
Entropy (-ST):   -3.798556
Local:           +2.310149
SIC:             +0.000000
--------------------------
Free energy:    -63.383630
Extrapolated:   -61.484352

 Band  Eigenvalues  Occupancy
    0    -35.24851    2.00000
    1    -34.76996    2.00000
    2    -34.76804    2.00000
    3    -34.76687    2.00000
    4    -34.76330    2.00000
    5    -34.76091    2.00000
    6    -34.76087    2.00000
    7    -34.75790    2.00000
    8    -34.75781    2.00000
    9    -34.75596    2.00000
   10    -34.75508    2.00000
   11    -34.75421    2.00000
   12    -34.75410    2.00000
   13    -34.75318    2.00000
   14    -34.75290    2.00000
   15    -34.75250    2.00000
   16    -34.75239    2.00000
   17    -34.75181    2.00000
   18    -34.75153    2.00000
   19    -34.75151    2.00000
   20    -34.75139    2.00000
   21    -34.75123    2.00000
   22    -34.75085    2.00000
   23    -34.75079    2.00000
   24    -34.75067    2.00000
   25    -34.75056    2.00000
   26    -34.75006    2.00000
   27    -34.74948    2.00000
   28    -34.74903    2.00000
   29    -34.74860    2.00000
   30    -34.74645    2.00000
   31    -34.74393    2.00000
   32    -34.74228    2.00000
   33    -34.73708    2.00000
   34    -34.72525    2.00000
   35    -34.65867    2.00000
   36    -34.65035    2.00000
   37    -34.60609    2.00000
   38    -34.60507    2.00000
   39    -34.60448    2.00000
   40    -34.60350    2.00000
   41    -34.60244    2.00000
   42    -34.60213    2.00000
   43    -34.60156    2.00000
   44    -34.60091    2.00000
   45    -34.60067    2.00000
   46    -34.60043    2.00000
   47    -34.60011    2.00000
   48    -34.59970    2.00000
   49    -34.59909    2.00000
   50    -34.59868    2.00000
   51    -34.59863    2.00000
   52    -34.59813    2.00000
   53    -34.59795    2.00000
   54    -34.59719    2.00000
   55    -34.59671    2.00000
   56    -34.59627    2.00000
   57    -34.59533    2.00000
   58    -34.59517    2.00000
   59    -34.59488    2.00000
   60    -34.59443    2.00000
   61    -34.59415    2.00000
   62    -34.59391    2.00000
   63    -34.59335    2.00000
   64    -34.59322    2.00000
   65    -34.59283    2.00000
   66    -34.59249    2.00000
   67    -34.59205    2.00000
   68    -34.59179    2.00000
   69    -34.58996    2.00000
   70    -34.58961    2.00000
   71    -34.58683    2.00000
   72    -34.58453    2.00000
   73    -18.74908    2.00000
   74    -18.71995    2.00000
   75    -18.70915    2.00000
   76    -18.27341    2.00000
   77    -18.26698    2.00000
   78    -18.26512    2.00000
   79    -18.26312    2.00000
   80    -18.26245    2.00000
   81    -18.26193    2.00000
   82    -18.26099    2.00000
   83    -18.26075    2.00000
   84    -18.25934    2.00000
   85    -18.25917    2.00000
   86    -18.25899    2.00000
   87    -18.25889    2.00000
   88    -18.25793    2.00000
   89    -18.25664    2.00000
   90    -18.25638    2.00000
   91    -18.25624    2.00000
   92    -18.25589    2.00000
   93    -18.25521    2.00000
   94    -18.25488    2.00000
   95    -18.25445    2.00000
   96    -18.25434    2.00000
   97    -18.25386    2.00000
   98    -18.25313    2.00000
   99    -18.25238    2.00000
  100    -18.25212    2.00000
  101    -18.25162    2.00000
  102    -18.25157    2.00000
  103    -18.25113    2.00000
  104    -18.25080    2.00000
  105    -18.25064    2.00000
  106    -18.25055    2.00000
  107    -18.24994    2.00000
  108    -18.24939    2.00000
  109    -18.24931    2.00000
  110    -18.24916    2.00000
  111    -18.24870    2.00000
  112    -18.24851    2.00000
  113    -18.24847    2.00000
  114    -18.24786    2.00000
  115    -18.24769    2.00000
  116    -18.24726    2.00000
  117    -18.24706    2.00000
  118    -18.24679    2.00000
  119    -18.24668    2.00000
  120    -18.24643    2.00000
  121    -18.24622    2.00000
  122    -18.24586    2.00000
  123    -18.24548    2.00000
  124    -18.24519    2.00000
  125    -18.24476    2.00000
  126    -18.24404    2.00000
  127    -18.24394    2.00000
  128    -18.24362    2.00000
  129    -18.24331    2.00000
  130    -18.24242    2.00000
  131    -18.24145    2.00000
  132    -18.24054    2.00000
  133    -18.23899    2.00000
  134    -18.23662    2.00000
  135    -18.23571    2.00000
  136    -18.23546    2.00000
  137    -18.23487    2.00000
  138    -18.23373    2.00000
  139    -18.23107    2.00000
  140    -18.23076    2.00000
  141    -18.23002    2.00000
  142    -18.22822    2.00000
  143    -18.22708    2.00000
  144    -18.22690    2.00000
  145    -18.22610    2.00000
  146    -18.22511    2.00000
  147    -18.22457    2.00000
  148    -18.22428    2.00000
  149    -18.22344    2.00000
  150    -18.22223    2.00000
  151    -18.22027    2.00000
  152    -18.21991    2.00000
  153    -18.21887    2.00000
  154    -18.21818    2.00000
  155    -18.21807    2.00000
  156    -18.21749    2.00000
  157    -18.21743    2.00000
  158    -18.21684    2.00000
  159    -18.21586    2.00000
  160    -18.21567    2.00000
  161    -18.21555    2.00000
  162    -18.21484    2.00000
  163    -18.21353    2.00000
  164    -18.21312    2.00000
  165    -18.21287    2.00000
  166    -18.21232    2.00000
  167    -18.21073    2.00000
  168    -18.20928    2.00000
  169    -18.20873    2.00000
  170    -18.20794    2.00000
  171    -18.20630    2.00000
  172    -18.20458    2.00000
  173    -18.20380    2.00000
  174    -18.20366    2.00000
  175    -18.20277    2.00000
  176    -18.20175    2.00000
  177    -18.19571    2.00000
  178    -18.16387    2.00000
  179    -18.16011    2.00000
  180    -18.14871    2.00000
  181    -18.14152    2.00000
  182    -18.13599    2.00000
  183    -18.12590    2.00000
  184    -18.12379    2.00000
  185    -18.11866    2.00000
  186    -18.11795    2.00000
  187    -18.11728    2.00000
  188    -18.11664    2.00000
  189    -18.11572    2.00000
  190    -18.11548    2.00000
  191    -18.11488    2.00000
  192    -18.11421    2.00000
  193    -18.11206    2.00000
  194    -18.11074    2.00000
  195    -18.11045    2.00000
  196    -18.10974    2.00000
  197    -18.10871    2.00000
  198    -18.10815    2.00000
  199    -18.10761    2.00000
  200    -18.10693    2.00000
  201    -18.10610    2.00000
  202    -18.10543    2.00000
  203    -18.10510    2.00000
  204    -18.10495    2.00000
  205    -18.10449    2.00000
  206    -18.10387    2.00000
  207    -18.10312    2.00000
  208    -18.10218    2.00000
  209    -18.10152    2.00000
  210    -18.09973    2.00000
  211    -18.09939    2.00000
  212    -18.09915    2.00000
  213    -18.09888    2.00000
  214    -18.09833    2.00000
  215    -18.09754    2.00000
  216    -18.09735    2.00000
  217    -18.09693    2.00000
  218    -18.09632    2.00000
  219    -18.09553    2.00000
  220    -18.09369    2.00000
  221    -18.09277    2.00000
  222    -18.09203    2.00000
  223    -18.09135    2.00000
  224    -18.09051    2.00000
  225    -18.08881    2.00000
  226    -18.08698    2.00000
  227    -18.08647    2.00000
  228    -18.08559    2.00000
  229    -18.08496    2.00000
  230    -18.08383    2.00000
  231    -18.08298    2.00000
  232    -18.08290    2.00000
  233    -18.08249    2.00000
  234    -18.08225    2.00000
  235    -18.08146    2.00000
  236    -18.08124    2.00000
  237    -18.08098    2.00000
  238    -18.08024    2.00000
  239    -18.07894    2.00000
  240    -18.07820    2.00000
  241    -18.07773    2.00000
  242    -18.07726    2.00000
  243    -18.07639    2.00000
  244    -18.07482    2.00000
  245    -18.07433    2.00000
  246    -18.07379    2.00000
  247    -18.07332    2.00000
  248    -18.07287    2.00000
  249    -18.07280    2.00000
  250    -18.07240    2.00000
  251    -18.07203    2.00000
  252    -18.07141    2.00000
  253    -18.07107    2.00000
  254    -18.07076    2.00000
  255    -18.07051    2.00000
  256    -18.06993    2.00000
  257    -18.06910    2.00000
  258    -18.06885    2.00000
  259    -18.06853    2.00000
  260    -18.06837    2.00000
  261    -18.06791    2.00000
  262    -18.06786    2.00000
  263    -18.06762    2.00000
  264    -18.06708    2.00000
  265    -18.06674    2.00000
  266    -18.06667    2.00000
  267    -18.06606    2.00000
  268    -18.06587    2.00000
  269    -18.06494    2.00000
  270    -18.06468    2.00000
  271    -18.06431    2.00000
  272    -18.06388    2.00000
  273    -18.06365    2.00000
  274    -18.06316    2.00000
  275    -18.06301    2.00000
  276    -18.06225    2.00000
  277    -18.06187    2.00000
  278    -18.06086    2.00000
  279    -18.06010    2.00000
  280    -18.05958    2.00000
  281    -18.05936    2.00000
  282    -18.05912    2.00000
  283    -18.05892    2.00000
  284    -18.05833    2.00000
  285    -18.05803    2.00000
  286    -18.05748    2.00000
  287    -18.05725    2.00000
  288    -18.05667    2.00000
  289    -18.05557    2.00000
  290    -18.05353    2.00000
  291    -18.05255    2.00000
  292     -4.54048    2.00000
  293     -4.19638    1.99999
  294     -4.18718    1.99999
  295     -4.14911    1.99998
  296     -3.85307    1.99989
  297     -3.85104    1.99989
  298     -3.81444    1.99986
  299     -3.79847    1.99984
  300     -3.53825    1.99910
  301     -3.52055    1.99899
  302     -3.51365    1.99894
  303     -3.51118    1.99893
  304     -3.50982    1.99892
  305     -3.47157    1.99860
  306     -3.46376    1.99853
  307     -3.21916    1.99250
  308     -3.19032    1.99091
  309     -3.18737    1.99073
  310     -3.17220    1.98975
  311     -3.14597    1.98781
  312     -3.14017    1.98733
  313     -3.13534    1.98692
  314     -3.13199    1.98662
  315     -2.88361    1.93187
  316     -2.84463    1.91254
  317     -2.81889    1.89700
  318     -2.81791    1.89636
  319     -2.72459    1.81520
  320     -2.56961    1.55511
  321     -2.54574    1.49765
  322     -2.54378    1.49272
  323     -2.54349    1.49198
  324     -2.54141    1.48671
  325     -2.53281    1.46454
  326     -2.52083    1.43263
  327     -2.51641    1.42060
  328     -2.41780    1.11913
  329     -2.35674    0.91637
  330     -2.22680    0.52465
  331     -2.21123    0.48547
  332     -2.18804    0.43091
  333     -2.18666    0.42783
  334     -2.18646    0.42738
  335     -2.18260    0.41880
  336     -2.10461    0.27209
  337     -2.04420    0.19048
  338     -1.94602    0.10373
  339     -1.94562    0.10347
  340     -1.91858    0.08715
  341     -1.75340    0.02984
  342     -1.75190    0.02955
  343     -1.73293    0.02608
  344     -1.71163    0.02267
  345     -1.66991    0.01721
  346     -1.65152    0.01524
  347     -1.64959    0.01505
  348     -1.64422    0.01452
  349     -1.64348    0.01445
  350     -1.62611    0.01288
  351     -1.62151    0.01250
  352     -1.60943    0.01153
  353     -1.60718    0.01136
  354     -1.60031    0.01086
  355     -1.58770    0.00999
  356     -1.58713    0.00995
  357     -1.58396    0.00974
  358     -1.52962    0.00679
  359     -1.41510    0.00317
  360     -1.40990    0.00306
  361     -1.36991    0.00235
  362     -1.34247    0.00196
  363     -1.31230    0.00160
  364     -1.27185    0.00122

Fermi level: -2.38189

Gap: 0.061 eV
Transition (v -> c):
  (s=0, k=0, n=328, [0.00, 0.00, 0.00]) -> (s=0, k=0, n=329, [0.00, 0.00, 0.00])
No difference between direct/indirect transitions

Forces in eV/Ang:
  0 K     0.00025    0.00008   -0.02454
  1 K    -0.00584    0.00456   -0.02802
  2 K     0.00255   -0.00233   -0.01225
  3 K    -0.00506    0.00327   -0.01338
  4 K     0.01023   -0.00036    0.03018
  5 K     0.01464   -0.01580    0.02013
  6 K    -0.08008   -0.04699   -0.06192
  7 K     0.01912   -0.00105    0.03235
  8 K    -0.00112   -0.00031   -0.02522
  9 K     0.00255   -0.00113   -0.02021
 10 K    -0.01249    0.01128   -0.04492
 11 K     0.00028   -0.00086    0.00598
 12 K    -0.01184    0.00078    0.02341
 13 K    -0.00177   -0.00161    0.02544
 14 K    -0.01069   -0.01231    0.03966
 15 K     0.00626   -0.00059    0.02938
 16 K    -0.00210    0.00021   -0.02453
 17 K    -0.00608   -0.00340   -0.02731
 18 K    -0.00948   -0.00857   -0.03585
 19 K    -0.00402   -0.00254   -0.01203
 20 K    -0.01147   -0.00063    0.02403
 21 K    -0.00464    0.01462    0.02079
 22 K     0.00655    0.00024    0.01974
 23 K     0.00894    0.00167    0.02251
 24 K    -0.00393    0.00022   -0.02246
 25 K    -0.00002    0.00007   -0.02568
 26 K     0.00364   -0.00188   -0.00306
 27 K     0.01485    0.01385   -0.02200
 28 K    -0.01088    0.01277    0.01894
 29 K    -0.01247    0.00052    0.02550
 30 K    -0.00511   -0.00084    0.02642
 31 K     0.02340    0.01596    0.04846
 32 K     0.00663   -0.00720   -0.02747
 33 K     0.00241    0.00031   -0.02434
 34 K     0.00240    0.00066   -0.00674
 35 K    -0.00567    0.01181   -0.01284
 36 K     0.00524   -0.01126    0.02774
 37 K     0.00063    0.00102    0.01673
 38 K     0.00132    0.00222    0.01713
 39 K    -0.00408    0.00891    0.01974
 40 K     0.00769    0.00695   -0.02750
 41 K     0.00073   -0.00040   -0.02590
 42 K    -0.00005    0.00136    0.00028
 43 K     0.01436   -0.02626   -0.03494
 44 K     0.00879   -0.00396    0.02501
 45 K     0.00840    0.00047    0.02163
 46 K    -0.00761    0.00065    0.02658
 47 K     0.00186    0.00675    0.03738
 48 K     0.00389   -0.00072   -0.02323
 49 K     0.00563    0.00631   -0.03024
 50 K    -0.00529    0.00006    0.00058
 51 K    -0.01005    0.01164   -0.00770
 52 K     0.00214   -0.00065    0.01125
 53 K    -0.00398   -0.00344    0.01506
 54 K     0.00155   -0.00009    0.02517
 55 K    -0.00153   -0.00019    0.02582
 56 K    -0.00489   -0.00334   -0.03173
 57 K    -0.00595    0.00050   -0.02585
 58 K     0.01037   -0.01135   -0.00764
 59 K     0.00510    0.00010    0.00194
 60 K     0.00407    0.00422    0.01237
 61 K    -0.00203    0.00044    0.01183
 62 K     0.00608   -0.00349    0.02686
 63 K    -0.00109   -0.00311    0.02534
 64 K    -0.00465    0.00406   -0.03303
 65 K     0.00483   -0.00680   -0.03090
 66 K     0.00978    0.01131   -0.00786
 67 K    -0.01056   -0.01176   -0.00767
 68 K     0.00339   -0.00456    0.01201
 69 K    -0.00362    0.00324    0.01493
 70 K     0.00643    0.00388    0.02681
 71 K    -0.00415    0.00175    0.02751
 72 K     0.02229    0.02551    0.07233

System changes: positions 

Initializing position-dependent things.

Density initialized from wave functions
           .------------------------------------------------------.  
          /|                                                      |  
         / |                                                      |  
        /  |                                                      |  
       /   |                                                      |  
      /    |                                                      |  
     /     |                                                      |  
    /      |                                                      |  
   /       |                                                      |  
  /        |                                                      |  
 *         |                                                      |  
 |         |                                                      |  
 |         |                                                      |  
[...]

Converged after 4 iterations.

Dipole moment: (-91.690273, -63.047635, 0.447994) |e|*Ang

Energy contributions relative to reference atoms: (reference = -1195904.484944)

Kinetic:       +121.925324
Potential:     -104.884580
External:        +0.000000
XC:             -78.944368
Entropy (-ST):   -3.799080
Local:           +2.315864
SIC:             +0.000000
--------------------------
Free energy:    -63.386840
Extrapolated:   -61.487300

 Band  Eigenvalues  Occupancy
    0    -35.24787    2.00000
    1    -34.76960    2.00000
    2    -34.76786    2.00000
    3    -34.76644    2.00000
    4    -34.76313    2.00000
    5    -34.76137    2.00000
    6    -34.76081    2.00000
    7    -34.75820    2.00000
    8    -34.75786    2.00000
    9    -34.75594    2.00000
   10    -34.75539    2.00000
   11    -34.75452    2.00000
   12    -34.75437    2.00000
   13    -34.75333    2.00000
   14    -34.75314    2.00000
   15    -34.75258    2.00000
   16    -34.75245    2.00000
   17    -34.75188    2.00000
   18    -34.75171    2.00000
   19    -34.75161    2.00000
   20    -34.75151    2.00000
   21    -34.75131    2.00000
   22    -34.75091    2.00000
   23    -34.75085    2.00000
   24    -34.75071    2.00000
   25    -34.75060    2.00000
   26    -34.75008    2.00000
   27    -34.74968    2.00000
   28    -34.74894    2.00000
   29    -34.74883    2.00000
   30    -34.74631    2.00000
   31    -34.74373    2.00000
   32    -34.74203    2.00000
   33    -34.73706    2.00000
   34    -34.72516    2.00000
   35    -34.65832    2.00000
   36    -34.64887    2.00000
   37    -34.60634    2.00000
   38    -34.60529    2.00000
   39    -34.60477    2.00000
   40    -34.60366    2.00000
   41    -34.60267    2.00000
   42    -34.60237    2.00000
   43    -34.60189    2.00000
   44    -34.60126    2.00000
   45    -34.60098    2.00000
   46    -34.60074    2.00000
   47    -34.60045    2.00000
   48    -34.60002    2.00000
   49    -34.59934    2.00000
   50    -34.59891    2.00000
   51    -34.59881    2.00000
   52    -34.59848    2.00000
   53    -34.59832    2.00000
   54    -34.59733    2.00000
   55    -34.59698    2.00000
   56    -34.59647    2.00000
   57    -34.59567    2.00000
   58    -34.59538    2.00000
   59    -34.59500    2.00000
   60    -34.59454    2.00000
   61    -34.59425    2.00000
   62    -34.59406    2.00000
   63    -34.59347    2.00000
   64    -34.59332    2.00000
   65    -34.59294    2.00000
   66    -34.59263    2.00000
   67    -34.59222    2.00000
   68    -34.59192    2.00000
   69    -34.59000    2.00000
   70    -34.58972    2.00000
   71    -34.58671    2.00000
   72    -34.58448    2.00000
   73    -18.74748    2.00000
   74    -18.71945    2.00000
   75    -18.70870    2.00000
   76    -18.27316    2.00000
   77    -18.26714    2.00000
   78    -18.26477    2.00000
   79    -18.26289    2.00000
   80    -18.26221    2.00000
   81    -18.26179    2.00000
   82    -18.26113    2.00000
   83    -18.26080    2.00000
   84    -18.25937    2.00000
   85    -18.25927    2.00000
   86    -18.25912    2.00000
   87    -18.25877    2.00000
   88    -18.25775    2.00000
   89    -18.25692    2.00000
   90    -18.25651    2.00000
   91    -18.25636    2.00000
   92    -18.25590    2.00000
   93    -18.25521    2.00000
   94    -18.25488    2.00000
   95    -18.25462    2.00000
   96    -18.25431    2.00000
   97    -18.25405    2.00000
   98    -18.25314    2.00000
   99    -18.25244    2.00000
  100    -18.25215    2.00000
  101    -18.25162    2.00000
  102    -18.25161    2.00000
  103    -18.25124    2.00000
  104    -18.25086    2.00000
  105    -18.25071    2.00000
  106    -18.25056    2.00000
  107    -18.25003    2.00000
  108    -18.24955    2.00000
  109    -18.24937    2.00000
  110    -18.24918    2.00000
  111    -18.24883    2.00000
  112    -18.24854    2.00000
  113    -18.24849    2.00000
  114    -18.24787    2.00000
  115    -18.24769    2.00000
  116    -18.24729    2.00000
  117    -18.24708    2.00000
  118    -18.24696    2.00000
  119    -18.24673    2.00000
  120    -18.24644    2.00000
  121    -18.24625    2.00000
  122    -18.24589    2.00000
  123    -18.24558    2.00000
  124    -18.24516    2.00000
  125    -18.24471    2.00000
  126    -18.24405    2.00000
  127    -18.24399    2.00000
  128    -18.24355    2.00000
  129    -18.24325    2.00000
  130    -18.24234    2.00000
  131    -18.24125    2.00000
  132    -18.24052    2.00000
  133    -18.23875    2.00000
  134    -18.23677    2.00000
  135    -18.23573    2.00000
  136    -18.23552    2.00000
  137    -18.23480    2.00000
  138    -18.23384    2.00000
  139    -18.23104    2.00000
  140    -18.23075    2.00000
  141    -18.22986    2.00000
  142    -18.22818    2.00000
  143    -18.22700    2.00000
  144    -18.22699    2.00000
  145    -18.22612    2.00000
  146    -18.22508    2.00000
  147    -18.22457    2.00000
  148    -18.22438    2.00000
  149    -18.22352    2.00000
  150    -18.22239    2.00000
  151    -18.22030    2.00000
  152    -18.21998    2.00000
  153    -18.21894    2.00000
  154    -18.21815    2.00000
  155    -18.21806    2.00000
  156    -18.21752    2.00000
  157    -18.21743    2.00000
  158    -18.21686    2.00000
  159    -18.21591    2.00000
  160    -18.21575    2.00000
  161    -18.21572    2.00000
  162    -18.21499    2.00000
  163    -18.21363    2.00000
  164    -18.21327    2.00000
  165    -18.21284    2.00000
  166    -18.21246    2.00000
  167    -18.21088    2.00000
  168    -18.20931    2.00000
  169    -18.20874    2.00000
  170    -18.20794    2.00000
  171    -18.20627    2.00000
  172    -18.20450    2.00000
  173    -18.20369    2.00000
  174    -18.20359    2.00000
  175    -18.20267    2.00000
  176    -18.20165    2.00000
  177    -18.19550    2.00000
  178    -18.16260    2.00000
  179    -18.15945    2.00000
  180    -18.14793    2.00000
  181    -18.14120    2.00000
  182    -18.13543    2.00000
  183    -18.12522    2.00000
  184    -18.12383    2.00000
  185    -18.11871    2.00000
  186    -18.11811    2.00000
  187    -18.11741    2.00000
  188    -18.11680    2.00000
  189    -18.11594    2.00000
  190    -18.11565    2.00000
  191    -18.11496    2.00000
  192    -18.11433    2.00000
  193    -18.11220    2.00000
  194    -18.11084    2.00000
  195    -18.11060    2.00000
  196    -18.10990    2.00000
  197    -18.10889    2.00000
  198    -18.10825    2.00000
  199    -18.10773    2.00000
  200    -18.10705    2.00000
  201    -18.10619    2.00000
  202    -18.10556    2.00000
  203    -18.10521    2.00000
  204    -18.10508    2.00000
  205    -18.10463    2.00000
  206    -18.10402    2.00000
  207    -18.10324    2.00000
  208    -18.10231    2.00000
  209    -18.10164    2.00000
  210    -18.09985    2.00000
  211    -18.09953    2.00000
  212    -18.09931    2.00000
  213    -18.09902    2.00000
  214    -18.09845    2.00000
  215    -18.09766    2.00000
  216    -18.09744    2.00000
  217    -18.09708    2.00000
  218    -18.09648    2.00000
  219    -18.09570    2.00000
  220    -18.09381    2.00000
  221    -18.09297    2.00000
  222    -18.09217    2.00000
  223    -18.09148    2.00000
  224    -18.09064    2.00000
  225    -18.08895    2.00000
  226    -18.08713    2.00000
  227    -18.08661    2.00000
  228    -18.08573    2.00000
  229    -18.08511    2.00000
  230    -18.08400    2.00000
  231    -18.08311    2.00000
  232    -18.08308    2.00000
  233    -18.08268    2.00000
  234    -18.08241    2.00000
  235    -18.08163    2.00000
  236    -18.08138    2.00000
  237    -18.08115    2.00000
  238    -18.08038    2.00000
  239    -18.07909    2.00000
  240    -18.07836    2.00000
  241    -18.07793    2.00000
  242    -18.07743    2.00000
  243    -18.07657    2.00000
  244    -18.07501    2.00000
  245    -18.07452    2.00000
  246    -18.07396    2.00000
  247    -18.07353    2.00000
  248    -18.07306    2.00000
  249    -18.07299    2.00000
  250    -18.07263    2.00000
  251    -18.07226    2.00000
  252    -18.07157    2.00000
  253    -18.07127    2.00000
  254    -18.07092    2.00000
  255    -18.07071    2.00000
  256    -18.07013    2.00000
  257    -18.06928    2.00000
  258    -18.06899    2.00000
  259    -18.06870    2.00000
  260    -18.06852    2.00000
  261    -18.06808    2.00000
  262    -18.06804    2.00000
  263    -18.06778    2.00000
  264    -18.06723    2.00000
  265    -18.06691    2.00000
  266    -18.06682    2.00000
  267    -18.06624    2.00000
  268    -18.06604    2.00000
  269    -18.06509    2.00000
  270    -18.06484    2.00000
  271    -18.06447    2.00000
  272    -18.06407    2.00000
  273    -18.06384    2.00000
  274    -18.06335    2.00000
  275    -18.06320    2.00000
  276    -18.06241    2.00000
  277    -18.06204    2.00000
  278    -18.06104    2.00000
  279    -18.06026    2.00000
  280    -18.05968    2.00000
  281    -18.05947    2.00000
  282    -18.05921    2.00000
  283    -18.05903    2.00000
  284    -18.05845    2.00000
  285    -18.05814    2.00000
  286    -18.05758    2.00000
  287    -18.05733    2.00000
  288    -18.05674    2.00000
  289    -18.05557    2.00000
  290    -18.05366    2.00000
  291    -18.05265    2.00000
  292     -4.54010    2.00000
  293     -4.19600    1.99999
  294     -4.18679    1.99999
  295     -4.14893    1.99998
  296     -3.85270    1.99989
  297     -3.85065    1.99989
  298     -3.81410    1.99986
  299     -3.79841    1.99984
  300     -3.53767    1.99910
  301     -3.52012    1.99899
  302     -3.51334    1.99894
  303     -3.51094    1.99892
  304     -3.50956    1.99891
  305     -3.47139    1.99860
  306     -3.46364    1.99853
  307     -3.21865    1.99248
  308     -3.18999    1.99090
  309     -3.18701    1.99072
  310     -3.17212    1.98976
  311     -3.14578    1.98780
  312     -3.13995    1.98732
  313     -3.13527    1.98692
  314     -3.13194    1.98663
  315     -2.88330    1.93179
  316     -2.84449    1.91253
  317     -2.81878    1.89702
  318     -2.81778    1.89637
  319     -2.72468    1.81545
  320     -2.56940    1.55493
  321     -2.54534    1.49700
  322     -2.54342    1.49217
  323     -2.54314    1.49145
  324     -2.54110    1.48626
  325     -2.53260    1.46434
  326     -2.52073    1.43273
  327     -2.51636    1.42083
  328     -2.41784    1.11972
  329     -2.35688    0.91729
  330     -2.22676    0.52489
  331     -2.21104    0.48534
  332     -2.18788    0.43088
  333     -2.18650    0.42776
  334     -2.18631    0.42734
  335     -2.18252    0.41891
  336     -2.10469    0.27244
  337     -2.04425    0.19069
  338     -1.94564    0.10357
  339     -1.94527    0.10334
  340     -1.91875    0.08732
  341     -1.75337    0.02986
  342     -1.75190    0.02958
  343     -1.73301    0.02612
  344     -1.71178    0.02271
  345     -1.66952    0.01719
  346     -1.65114    0.01522
  347     -1.64928    0.01503
  348     -1.64386    0.01450
  349     -1.64313    0.01443
  350     -1.62622    0.01290
  351     -1.62123    0.01248
  352     -1.60924    0.01153
  353     -1.60701    0.01136
  354     -1.60018    0.01086
  355     -1.58768    0.00999
  356     -1.58700    0.00995
  357     -1.58385    0.00974
  358     -1.52981    0.00681
  359     -1.41530    0.00318
  360     -1.40993    0.00307
  361     -1.36975    0.00235
  362     -1.34267    0.00196
  363     -1.31238    0.00160
  364     -1.27164    0.00122

Fermi level: -2.38175

Gap: 0.061 eV
Transition (v -> c):
  (s=0, k=0, n=328, [0.00, 0.00, 0.00]) -> (s=0, k=0, n=329, [0.00, 0.00, 0.00])
No difference between direct/indirect transitions

Forces in eV/Ang:
  0 K     0.00011    0.00013   -0.02436
  1 K    -0.00591    0.00445   -0.02774
  2 K     0.00244   -0.00230   -0.01189
  3 K    -0.00503    0.00316   -0.01256
  4 K     0.00924   -0.00012    0.02988
  5 K     0.01335   -0.01350    0.01885
  6 K    -0.07110   -0.04194   -0.05037
  7 K     0.01859   -0.00028    0.03225
  8 K    -0.00139   -0.00035   -0.02500
  9 K     0.00240   -0.00119   -0.01987
 10 K    -0.01255    0.01104   -0.04387
 11 K     0.00024   -0.00087    0.00649
 12 K    -0.01084    0.00026    0.02381
 13 K    -0.00170   -0.00184    0.02657
 14 K    -0.00883   -0.01093    0.03933
 15 K     0.00603   -0.00027    0.02941
 16 K    -0.00245    0.00021   -0.02432
 17 K    -0.00617   -0.00323   -0.02701
 18 K    -0.00954   -0.00841   -0.03480
 19 K    -0.00407   -0.00241   -0.01128
 20 K    -0.01083   -0.00031    0.02388
 21 K    -0.00396    0.01171    0.01848
 22 K     0.00630   -0.00001    0.01904
 23 K     0.00812    0.00019    0.02275
 24 K    -0.00377    0.00028   -0.02220
 25 K     0.00010    0.00001   -0.02549
 26 K     0.00364   -0.00180   -0.00240
 27 K     0.01497    0.01392   -0.02169
 28 K    -0.01019    0.01195    0.01860
 29 K    -0.01062   -0.00013    0.02377
 30 K    -0.00498   -0.00069    0.02568
 31 K     0.02336    0.01624    0.05245
 32 K     0.00682   -0.00735   -0.02715
 33 K     0.00273    0.00034   -0.02418
 34 K     0.00240    0.00051   -0.00617
 35 K    -0.00559    0.01155   -0.01188
 36 K     0.00389   -0.01036    0.02728
 37 K     0.00073    0.00078    0.01650
 38 K     0.00122    0.00271    0.01664
 39 K    -0.00463    0.00798    0.01924
 40 K     0.00794    0.00704   -0.02717
 41 K     0.00096   -0.00037   -0.02573
 42 K    -0.00001    0.00146    0.00063
 43 K     0.01447   -0.02610   -0.03395
 44 K     0.00822   -0.00303    0.02510
 45 K     0.00739    0.00074    0.02202
 46 K    -0.00794    0.00067    0.02765
 47 K     0.00072    0.00830    0.03701
 48 K     0.00387   -0.00080   -0.02315
 49 K     0.00559    0.00639   -0.03017
 50 K    -0.00525    0.00011    0.00095
 51 K    -0.01016    0.01155   -0.00726
 52 K     0.00166   -0.00032    0.01151
 53 K    -0.00373   -0.00344    0.01519
 54 K     0.00204   -0.00001    0.02595
 55 K    -0.00202    0.00028    0.02562
 56 K    -0.00482   -0.00321   -0.03176
 57 K    -0.00612    0.00054   -0.02589
 58 K     0.01041   -0.01149   -0.00741
 59 K     0.00502    0.00007    0.00189
 60 K     0.00359    0.00339    0.01256
 61 K    -0.00180    0.00038    0.01185
 62 K     0.00670   -0.00390    0.02682
 63 K    -0.00094   -0.00303    0.02708
 64 K    -0.00457    0.00401   -0.03311
 65 K     0.00470   -0.00692   -0.03089
 66 K     0.00984    0.01139   -0.00774
 67 K    -0.01061   -0.01166   -0.00745
 68 K     0.00319   -0.00411    0.01243
 69 K    -0.00342    0.00338    0.01506
 70 K     0.00675    0.00416    0.02681
 71 K    -0.00456    0.00107    0.02728
 72 K     0.01949    0.02432    0.06727

Timing:                                       incl.     excl.
--------------------------------------------------------------------
Basic WFS set positions:                      0.126     0.015   0.0% |
 Redistribute:                                0.111     0.111   0.0% |
Basis functions set positions:                8.893     8.893   0.1% |
Forces:                                     751.535     4.435   0.0% |
 LCAO forces:                               747.100     0.330   0.0% |
  Atomic Hamiltonian force:                   7.590     7.590   0.0% |
  Initial:                                    0.143     0.000   0.0% |
   Get density matrix:                        0.143     0.143   0.0% |
  Paw correction:                             8.174     8.174   0.1% |
  Potential:                                717.275   717.275   4.4% |-|
  TCI derivative:                            13.587    13.587   0.1% |
  Wait for sum:                               0.000     0.000   0.0% |
LCAO WFS Initialize:                        164.953     0.920   0.0% |
 Density initialized from wave functions:   128.947    14.657   0.1% |
  Calculate density matrix:                   1.254     1.254   0.0% |
  Construct density:                        113.034   113.034   0.7% |
  Symmetrize density:                         0.002     0.002   0.0% |
 Hamiltonian:                                35.086     0.002   0.0% |
  Atomic:                                     7.503     0.033   0.0% |
   XC Correction:                             7.470     7.470   0.0% |
  Calculate atomic Hamiltonians:              0.645     0.645   0.0% |
  Communicate:                                0.000     0.000   0.0% |
  Hartree integrate/restrict:                 1.185     1.185   0.0% |
  Initialize Hamiltonian:                     0.000     0.000   0.0% |
  Poisson:                                   12.932     6.272   0.0% |
   Communicate from 1D:                       0.908     0.908   0.0% |
   Communicate from 2D:                       0.512     0.512   0.0% |
   Communicate to 1D:                         0.375     0.375   0.0% |
   Communicate to 2D:                         1.307     1.307   0.0% |
   FFT 1D:                                    1.819     1.819   0.0% |
   FFT 2D:                                    1.739     1.739   0.0% |
  XC 3D grid:                                 9.241     9.241   0.1% |
  vbar:                                       3.578     3.578   0.0% |
P tci:                                        7.173     7.173   0.0% |
Redistribute:                                 0.002     0.002   0.0% |
SCF-cycle:                                 1932.851     0.100   0.0% |
 Density:                                   743.009     0.001   0.0% |
  Atomic density matrices:                    0.165     0.165   0.0% |
  Mix:                                        8.028     8.028   0.0% |
  Multipole moments:                          0.025     0.025   0.0% |
  Normalize:                                  0.025     0.025   0.0% |
  Pseudo density:                           734.765     0.225   0.0% |
   Calculate density matrix:                  0.671     0.671   0.0% |
   Construct density:                       733.866   733.866   4.5% |-|
   Symmetrize density:                        0.003     0.003   0.0% |
 Hamiltonian:                               140.643     0.005   0.0% |
  Atomic:                                    40.718     0.102   0.0% |
   XC Correction:                            40.617    40.617   0.2% |
  Calculate atomic Hamiltonians:              2.115     2.115   0.0% |
  Communicate:                                0.000     0.000   0.0% |
  Hartree integrate/restrict:                 1.831     1.831   0.0% |
  Poisson:                                   42.961     2.946   0.0% |
   Communicate from 1D:                       5.905     5.905   0.0% |
   Communicate from 2D:                       3.311     3.311   0.0% |
   Communicate to 1D:                         2.243     2.243   0.0% |
   Communicate to 2D:                         6.156     6.156   0.0% |
   FFT 1D:                                   10.584    10.584   0.1% |
   FFT 2D:                                   11.817    11.817   0.1% |
  XC 3D grid:                                51.313    51.313   0.3% |
  vbar:                                       1.699     1.699   0.0% |
 LCAO eigensolver:                         1049.100     0.233   0.0% |
  Calculate projections:                      0.791     0.791   0.0% |
  DenseAtomicCorrection:                      8.992     8.992   0.1% |
  Distribute overlap matrix:                  0.005     0.005   0.0% |
  Orbital Layouts:                           18.691    18.691   0.1% |
  Potential matrix:                        1020.388  1020.388   6.3% |--|
ST tci:                                       7.207     7.207   0.0% |
Set symmetry:                                 0.001     0.001   0.0% |
TCI: Evaluate splines:                        0.057     0.057   0.0% |
mktci:                                        0.227     0.227   0.0% |
Other:                                    13433.754 13433.754  82.4% |--------------------------------|
--------------------------------------------------------------------
Total:                                              16306.780 100.0%

Memory usage: 3.67 GiB
Date: Wed Nov 26 03:07:07 2025
