
  ___ ___ ___ _ _ _  
 |   |   |_  | | | | 
 | | | | | . | | | | 
 |__ |  _|___|_____|  25.7.0
 |___|_|             

User:   tew@Mathuss-MacBook-Air-357.local
Date:   Tue Nov 25 22:35:20 2025
Arch:   arm64
Pid:    88448
CWD:    /Users/tew/Documents/Project/GitHub/chem-com
Python: 3.13.5
gpaw:   /Users/tew/Documents/Project/GitHub/chem-com/.venv/lib/python3.13/site-packages/gpaw
_gpaw:  /Users/tew/Documents/Project/GitHub/chem-com/.venv/lib/python3.13/site-packages/
        _gpaw.cpython-313-darwin.so
ase:    /Users/tew/Documents/Project/GitHub/chem-com/.venv/lib/python3.13/site-packages/ase (version 3.26.0)
numpy:  /Users/tew/Documents/Project/GitHub/chem-com/.venv/lib/python3.13/site-packages/numpy (version 2.3.5)
scipy:  /Users/tew/Documents/Project/GitHub/chem-com/.venv/lib/python3.13/site-packages/scipy (version 1.16.3)
libxc:  2.x.y
units:  Angstrom and eV
cores: 1
OpenMP: False
OMP_NUM_THREADS: 1

Input parameters:
  basis: dzp
  convergence: {density: 0.0001,
                eigenstates: 5e-06}
  kpts: [1 1 1]
  mode: {interpolation: 3,
         name: lcao}
  occupations: {fixmagmom: False,
                name: fermi-dirac,
                width: 0.15}
  xc: PBE

System changes: positions, numbers, cell, pbc, initial_charges, initial_magmoms 

Initialize ...

species:
  K:
    name: Potassium
    id: 04190408da443a44668134082ce1c192
    Z: 19.0
    valence: 9
    core: 10
    charge: 0.0
    file: /Users/tew/Documents/Project/GitHub/chem-com/.venv/lib/python3.13/site-packages/gpaw_data/setups/K.PBE.gz
    compensation charges: {type: gauss,
                           rc: 0.35,
                           lmax: 2}
    cutoffs: {filter: 1.91,
              core: 1.27}
    projectors:
      #              energy  rcut
      - 3s(2.00)   -35.338   1.122
      - 4s(1.00)    -2.319   1.122
      - 3p(6.00)   -18.813   1.106
      -  p           8.398   1.106
      -  d           0.000   0.937
  
    # LCAO basis set for K:
    #   Name: dzp
    #   File: /Users/tew/Documents/Project/GitHub/chem-com/.venv/lib/python3.13/site-packages/gpaw_data/setups/K.dzp.basis.gz
    #   Number of radial functions: 9
    #   Number of spherical harmonics: 19
    #     l=0, rc=4.2656 Bohr: 3s-sz confined orbital
    #     l=0, rc=13.1094 Bohr: 4s-sz confined orbital
    #     l=1, rc=5.0312 Bohr: 3p-sz confined orbital
    #     l=1, rc=16.0000 Bohr: 4p-sz confined orbital
    #     l=0, rc=2.3594 Bohr: 3s-dz split-valence wave
    #     l=0, rc=8.1719 Bohr: 4s-dz split-valence wave
    #     l=1, rc=2.8906 Bohr: 3p-dz split-valence wave
    #     l=1, rc=10.2812 Bohr: 4p-dz split-valence wave
    #     l=1, rc=13.1094 Bohr: p-type Gaussian polarization
    #   Number of RI-basis functions 0

Reference energy: -1195904.484944  # eV

Spin-paired calculation

Convergence criteria:
 Maximum [total energy] change in last 3 cyles: 0.0005 eV / valence electron
 Maximum integral of absolute [dens]ity change: 0.0001 electrons / valence electron
 Maximum integral of absolute [eigenst]ate change: 5e-06 eV^2 / valence electron
 Maximum number of scf [iter]ations: 333
 (Square brackets indicate name in SCF output, whereas a 'c' in
 the SCF output indicates the quantity has converged.)

Symmetries present (total): 1

  ( 1  0  0)
  ( 0  1  0)
  ( 0  0  1)

1 k-point (Gamma)
1 k-point in the irreducible part of the Brillouin zone
       k-points in crystal coordinates                weights
   0:     0.00000000    0.00000000    0.00000000          1/1

Wave functions: LCAO
  Diagonalizer: Serial LAPACK
  Atomic Correction: dense with blas
  Data-type: float
 

Occupation numbers: Fermi-Dirac:
  width: 0.1500  # eV
 

Eigensolver
   LCAO using direct dense diagonalizer 

Densities:
  Coarse grid: 112*80*156 grid
  Fine grid: 224*160*312 grid
  Total Charge: 0.000000 

Density mixing:
  Method: separate
  Backend: pulay
  Linear mixing parameter: 0.05
  old densities: 5
  Damping of long wavelength oscillations: 50 

Hamiltonian:
  XC and Coulomb potentials evaluated on a 224*160*312 grid
  Using the PBE Exchange-Correlation functional
  Interpolation: tri-quintic (5. degree polynomial)
  Poisson solver: FastPoissonSolver using
    Stencil: 6*3+1=19 point O(h^6) finite-difference Laplacian
    FFT axes: [np.int64(0), np.int64(1)]
    FST axes: [np.int64(2)]
 

XC parameters: PBE with 2 nearest neighbor stencil

Memory estimate:
  Process memory now: 3762.67 MiB
  Calculator: 2004.64 MiB
    Density: 627.85 MiB
      Arrays: 276.31 MiB
      Localized functions: 245.59 MiB
      Mixer: 105.96 MiB
    Hamiltonian: 197.33 MiB
      Arrays: 180.67 MiB
      XC: 0.00 MiB
      Poisson: 0.00 MiB
      vbar: 16.66 MiB
    Wavefunctions: 1179.45 MiB
      C [qnM]: 3.86 MiB
      S, T [2 x qmm]: 29.35 MiB
      P [aqMi]: 1.26 MiB
      BasisFunctions: 1144.98 MiB
      Eigensolver: 0.00 MiB

Total number of cores used: 1

Number of atoms: 73
Number of atomic orbitals: 1387
Number of bands in calculation: 365
Number of valence electrons: 657
Bands to converge: occupied

... initialized

Initializing position-dependent things.

Density initialized from atomic densities
           .------------------------------------------------------.  
          /|                                                      |  
         / |                                                      |  
        /  |                                                      |  
       /   |                                                      |  
      /    |                                                      |  
     /     |                                                      |  
    /      |                                                      |  
   /       |                                                      |  
  /        |                                                      |  
 *         |                                                      |  
 |         |                                                      |  
 |         |                                                      |  
 |         |                                                      |  
 |       K |                K                 K                   |  
 |         |     K                 K                  K           |  
 |         |                                                      |  
 |    K    |            K    K             K    K                 K  
 |         |K                        K                 K          |  
 |         |  K   K             K                 K               |  
 | K       |              K            K    K                  K  |  
 |         |         K                                            |  
 |         |   K            K     K            K    K             |  
 |       KK|           K    K            K    K            K      |  
 |         |                                                      |  
 |         |K    K            K    K             K   K            |  
 |    K    |            K                  K                      |  
 |         |       K                 K                 K          |  
 |         | K                  K                 K               |  
 |      K  |              K                 K                     |  
 | K       |         K                 K                          |  
 |        K|   K             K   K             K    K             |  
 |  K      |           K                 K                        |  
 |         |                                                      |  
 |         |K                 K                  K                |  
 |         |                                                      |  
 K         |       K                  K                           |  
 |         |                                                      |  
 |         .------------------------------------------------------.  
 |        /                                                      /   
 |       /                                                      /    
 |      /                                                      /     
 |     /                                                      /      
 |    /                                                      /       
 |   /                                                      /        
 |  /                                                      /         
 | /                                                      /          
 |/                                                      /           
 *------------------------------------------------------*            

Atomic positions and initial magnetic moments

Positions:
   0 K      0.000000    0.000000   10.000000    ( 0.0000,  0.0000,  0.0000)
   1 K      3.698168    2.615000   10.000000    ( 0.0000,  0.0000,  0.0000)
   2 K      3.698168    0.000000   13.698168    ( 0.0000,  0.0000,  0.0000)
   3 K      0.000000    2.615000   13.698168    ( 0.0000,  0.0000,  0.0000)
   4 K     -0.031481   -0.000589   17.356252    ( 0.0000,  0.0000,  0.0000)
   5 K      3.688222    2.768282   17.218584    ( 0.0000,  0.0000,  0.0000)
   6 K      3.719740    0.009912   20.459878    ( 0.0000,  0.0000,  0.0000)
   7 K      0.032890    2.583324   21.207063    ( 0.0000,  0.0000,  0.0000)
   8 K      0.000000    5.230000   10.000000    ( 0.0000,  0.0000,  0.0000)
   9 K      3.698168    7.845000   10.000000    ( 0.0000,  0.0000,  0.0000)
  10 K      3.698168    5.230000   13.698168    ( 0.0000,  0.0000,  0.0000)
  11 K      0.000000    7.845000   13.698168    ( 0.0000,  0.0000,  0.0000)
  12 K     -0.003580    5.229023   17.401379    ( 0.0000,  0.0000,  0.0000)
  13 K      3.704108    7.843705   17.403768    ( 0.0000,  0.0000,  0.0000)
  14 K      3.710456    5.188506   21.199214    ( 0.0000,  0.0000,  0.0000)
  15 K      0.000320    7.843781   21.146675    ( 0.0000,  0.0000,  0.0000)
  16 K      0.000000   10.460000   10.000000    ( 0.0000,  0.0000,  0.0000)
  17 K      3.698168   13.075000   10.000000    ( 0.0000,  0.0000,  0.0000)
  18 K      3.698168   10.460000   13.698168    ( 0.0000,  0.0000,  0.0000)
  19 K      0.000000   13.075000   13.698168    ( 0.0000,  0.0000,  0.0000)
  20 K     -0.002982   10.461587   17.399846    ( 0.0000,  0.0000,  0.0000)
  21 K      3.692221   12.922592   17.229658    ( 0.0000,  0.0000,  0.0000)
  22 K      3.699492   10.490725   21.186728    ( 0.0000,  0.0000,  0.0000)
  23 K      0.033299   13.107651   21.207079    ( 0.0000,  0.0000,  0.0000)
  24 K      7.396337    0.000000   10.000000    ( 0.0000,  0.0000,  0.0000)
  25 K     11.094505    2.615000   10.000000    ( 0.0000,  0.0000,  0.0000)
  26 K     11.094505    0.000000   13.698168    ( 0.0000,  0.0000,  0.0000)
  27 K      7.396337    2.615000   13.698168    ( 0.0000,  0.0000,  0.0000)
  28 K      7.422308   -0.038907   17.320563    ( 0.0000,  0.0000,  0.0000)
  29 K     11.106941    2.614414   17.394477    ( 0.0000,  0.0000,  0.0000)
  30 K     11.084798    0.010665   21.158954    ( 0.0000,  0.0000,  0.0000)
  31 K      7.366104    2.588658   21.042338    ( 0.0000,  0.0000,  0.0000)
  32 K      7.396337    5.230000   10.000000    ( 0.0000,  0.0000,  0.0000)
  33 K     11.094505    7.845000   10.000000    ( 0.0000,  0.0000,  0.0000)
  34 K     11.094505    5.230000   13.698168    ( 0.0000,  0.0000,  0.0000)
  35 K      7.396337    7.845000   13.698168    ( 0.0000,  0.0000,  0.0000)
  36 K      7.407014    5.256386   17.363783    ( 0.0000,  0.0000,  0.0000)
  37 K     11.097312    7.844126   17.397161    ( 0.0000,  0.0000,  0.0000)
  38 K     11.084693    5.224650   21.165454    ( 0.0000,  0.0000,  0.0000)
  39 K      7.391641    7.835225   21.162420    ( 0.0000,  0.0000,  0.0000)
  40 K      7.396337   10.460000   10.000000    ( 0.0000,  0.0000,  0.0000)
  41 K     11.094505   13.075000   10.000000    ( 0.0000,  0.0000,  0.0000)
  42 K     11.094505   10.460000   13.698168    ( 0.0000,  0.0000,  0.0000)
  43 K      7.396337   13.075000   13.698168    ( 0.0000,  0.0000,  0.0000)
  44 K      7.408464   10.472871   17.409972    ( 0.0000,  0.0000,  0.0000)
  45 K     11.101106   13.076718   17.405199    ( 0.0000,  0.0000,  0.0000)
  46 K     11.094243   10.456808   21.154732    ( 0.0000,  0.0000,  0.0000)
  47 K      7.363626   13.112141   21.204977    ( 0.0000,  0.0000,  0.0000)
  48 K     14.792674    0.000000   10.000000    ( 0.0000,  0.0000,  0.0000)
  49 K     18.490842    2.615000   10.000000    ( 0.0000,  0.0000,  0.0000)
  50 K     18.490842    0.000000   13.698168    ( 0.0000,  0.0000,  0.0000)
  51 K     14.792674    2.615000   13.698168    ( 0.0000,  0.0000,  0.0000)
  52 K     14.802481   -0.000909   17.402407    ( 0.0000,  0.0000,  0.0000)
  53 K     18.497643    2.625643   17.409857    ( 0.0000,  0.0000,  0.0000)
  54 K     18.481812    0.000191   21.153907    ( 0.0000,  0.0000,  0.0000)
  55 K     14.789679    2.615822   21.147108    ( 0.0000,  0.0000,  0.0000)
  56 K     14.792674    5.230000   10.000000    ( 0.0000,  0.0000,  0.0000)
  57 K     18.490842    7.845000   10.000000    ( 0.0000,  0.0000,  0.0000)
  58 K     18.490842    5.230000   13.698168    ( 0.0000,  0.0000,  0.0000)
  59 K     14.792674    7.845000   13.698168    ( 0.0000,  0.0000,  0.0000)
  60 K     14.783750    5.220775   17.409536    ( 0.0000,  0.0000,  0.0000)
  61 K     18.482237    7.845242   17.398714    ( 0.0000,  0.0000,  0.0000)
  62 K     18.492572    5.228386   21.148982    ( 0.0000,  0.0000,  0.0000)
  63 K     14.798892    7.843785   21.148560    ( 0.0000,  0.0000,  0.0000)
  64 K     14.792674   10.460000   10.000000    ( 0.0000,  0.0000,  0.0000)
  65 K     18.490842   13.075000   10.000000    ( 0.0000,  0.0000,  0.0000)
  66 K     18.490842   10.460000   13.698168    ( 0.0000,  0.0000,  0.0000)
  67 K     14.792674   13.075000   13.698168    ( 0.0000,  0.0000,  0.0000)
  68 K     14.783214   10.469766   17.408380    ( 0.0000,  0.0000,  0.0000)
  69 K     18.497711   13.064202   17.408844    ( 0.0000,  0.0000,  0.0000)
  70 K     18.492697   10.461580   21.149181    ( 0.0000,  0.0000,  0.0000)
  71 K     14.789101   13.075274   21.147071    ( 0.0000,  0.0000,  0.0000)
  72 K      4.318126    0.437114   24.276592    ( 0.0000,  0.0000,  0.0000)

Unit cell:
           periodic     x           y           z      points  spacing
  1. axis:    yes   22.189011    0.000000    0.000000   112     0.1981
  2. axis:    yes    0.000000   15.690000    0.000000    80     0.1961
  3. axis:    no     0.000000    0.000000   31.094505   156     0.1993

  Lengths:  22.189011  15.690000  31.094505
  Angles:   90.000000  90.000000  90.000000

Effective grid spacing dv^(1/3) = 0.1979

     iter     time        total  log10-change:
                         energy   eigst   dens
iter:   1 22:36:00   -65.444011        c
iter:   2 22:36:51   -64.364277        c -1.50
iter:   3 22:37:39   -62.750191        c -1.57
iter:   4 22:38:26   -61.544413        c -1.74
iter:   5 22:39:15   -61.531505        c -2.05
iter:   6 22:40:05   -61.511547c       c -2.12
iter:   7 22:40:53   -61.500897c       c -2.25
iter:   8 22:41:39   -61.495859c       c -2.47
iter:   9 22:42:27   -61.482341c       c -2.52
iter:  10 22:43:18   -61.478287c       c -2.75
iter:  11 22:44:10   -61.477329c       c -2.95
iter:  12 22:44:59   -61.477182c       c -3.26
iter:  13 22:45:46   -61.476771c       c -3.33
iter:  14 22:46:37   -61.476090c       c -3.35
iter:  15 22:47:28   -61.475960c       c -3.41
iter:  16 22:48:15   -61.476506c       c -3.52
iter:  17 22:49:04   -61.476885c       c -3.69
iter:  18 22:49:52   -61.476932c       c -3.76
iter:  19 22:50:38   -61.476873c       c -3.84
iter:  20 22:51:31   -61.476773c       c -3.92
iter:  21 22:52:22   -61.476779c       c -4.03c

Converged after 21 iterations.

Dipole moment: (-91.760101, -77.677698, 0.437131) |e|*Ang

Energy contributions relative to reference atoms: (reference = -1195904.484944)

Kinetic:       +125.638021
Potential:     -108.184209
External:        +0.000000
XC:             -79.230943
Entropy (-ST):   -3.798358
Local:           +2.199531
SIC:             +0.000000
--------------------------
Free energy:    -63.375958
Extrapolated:   -61.476779

 Band  Eigenvalues  Occupancy
    0    -35.26116    2.00000
    1    -34.76629    2.00000
    2    -34.76360    2.00000
    3    -34.76299    2.00000
    4    -34.75926    2.00000
    5    -34.75916    2.00000
    6    -34.75881    2.00000
    7    -34.75796    2.00000
    8    -34.75738    2.00000
    9    -34.75622    2.00000
   10    -34.75590    2.00000
   11    -34.75534    2.00000
   12    -34.75512    2.00000
   13    -34.75448    2.00000
   14    -34.75437    2.00000
   15    -34.75381    2.00000
   16    -34.75353    2.00000
   17    -34.75312    2.00000
   18    -34.75274    2.00000
   19    -34.75247    2.00000
   20    -34.75233    2.00000
   21    -34.75197    2.00000
   22    -34.75180    2.00000
   23    -34.75169    2.00000
   24    -34.75124    2.00000
   25    -34.75103    2.00000
   26    -34.75070    2.00000
   27    -34.75044    2.00000
   28    -34.74952    2.00000
   29    -34.74798    2.00000
   30    -34.74624    2.00000
   31    -34.74523    2.00000
   32    -34.74312    2.00000
   33    -34.74182    2.00000
   34    -34.72639    2.00000
   35    -34.69038    2.00000
   36    -34.65552    2.00000
   37    -34.60941    2.00000
   38    -34.60658    2.00000
   39    -34.60581    2.00000
   40    -34.60547    2.00000
   41    -34.60504    2.00000
   42    -34.60281    2.00000
   43    -34.60215    2.00000
   44    -34.60199    2.00000
   45    -34.60147    2.00000
   46    -34.60125    2.00000
   47    -34.60050    2.00000
   48    -34.60024    2.00000
   49    -34.59998    2.00000
   50    -34.59977    2.00000
   51    -34.59919    2.00000
   52    -34.59908    2.00000
   53    -34.59852    2.00000
   54    -34.59797    2.00000
   55    -34.59716    2.00000
   56    -34.59681    2.00000
   57    -34.59574    2.00000
   58    -34.59514    2.00000
   59    -34.59485    2.00000
   60    -34.59446    2.00000
   61    -34.59417    2.00000
   62    -34.59389    2.00000
   63    -34.59359    2.00000
   64    -34.59325    2.00000
   65    -34.59292    2.00000
   66    -34.59231    2.00000
   67    -34.59196    2.00000
   68    -34.59159    2.00000
   69    -34.59085    2.00000
   70    -34.59042    2.00000
   71    -34.58326    2.00000
   72    -34.58027    2.00000
   73    -18.76759    2.00000
   74    -18.72599    2.00000
   75    -18.72187    2.00000
   76    -18.27082    2.00000
   77    -18.26816    2.00000
   78    -18.26277    2.00000
   79    -18.26222    2.00000
   80    -18.26191    2.00000
   81    -18.26119    2.00000
   82    -18.26025    2.00000
   83    -18.26016    2.00000
   84    -18.25909    2.00000
   85    -18.25820    2.00000
   86    -18.25765    2.00000
   87    -18.25741    2.00000
   88    -18.25679    2.00000
   89    -18.25660    2.00000
   90    -18.25643    2.00000
   91    -18.25581    2.00000
   92    -18.25550    2.00000
   93    -18.25545    2.00000
   94    -18.25524    2.00000
   95    -18.25446    2.00000
   96    -18.25426    2.00000
   97    -18.25360    2.00000
   98    -18.25349    2.00000
   99    -18.25308    2.00000
  100    -18.25286    2.00000
  101    -18.25245    2.00000
  102    -18.25183    2.00000
  103    -18.25175    2.00000
  104    -18.25164    2.00000
  105    -18.25132    2.00000
  106    -18.25123    2.00000
  107    -18.25054    2.00000
  108    -18.25044    2.00000
  109    -18.25015    2.00000
  110    -18.25011    2.00000
  111    -18.24924    2.00000
  112    -18.24872    2.00000
  113    -18.24851    2.00000
  114    -18.24846    2.00000
  115    -18.24819    2.00000
  116    -18.24813    2.00000
  117    -18.24781    2.00000
  118    -18.24775    2.00000
  119    -18.24766    2.00000
  120    -18.24715    2.00000
  121    -18.24695    2.00000
  122    -18.24622    2.00000
  123    -18.24611    2.00000
  124    -18.24561    2.00000
  125    -18.24531    2.00000
  126    -18.24515    2.00000
  127    -18.24451    2.00000
  128    -18.24430    2.00000
  129    -18.24201    2.00000
  130    -18.24197    2.00000
  131    -18.24139    2.00000
  132    -18.24014    2.00000
  133    -18.23895    2.00000
  134    -18.23786    2.00000
  135    -18.23634    2.00000
  136    -18.23485    2.00000
  137    -18.23480    2.00000
  138    -18.23397    2.00000
  139    -18.23218    2.00000
  140    -18.22991    2.00000
  141    -18.22815    2.00000
  142    -18.22797    2.00000
  143    -18.22761    2.00000
  144    -18.22656    2.00000
  145    -18.22610    2.00000
  146    -18.22534    2.00000
  147    -18.22516    2.00000
  148    -18.22429    2.00000
  149    -18.22351    2.00000
  150    -18.22263    2.00000
  151    -18.22163    2.00000
  152    -18.22056    2.00000
  153    -18.22041    2.00000
  154    -18.21978    2.00000
  155    -18.21890    2.00000
  156    -18.21868    2.00000
  157    -18.21847    2.00000
  158    -18.21767    2.00000
  159    -18.21715    2.00000
  160    -18.21713    2.00000
  161    -18.21673    2.00000
  162    -18.21529    2.00000
  163    -18.21471    2.00000
  164    -18.21414    2.00000
  165    -18.21407    2.00000
  166    -18.21395    2.00000
  167    -18.21165    2.00000
  168    -18.20969    2.00000
  169    -18.20966    2.00000
  170    -18.20900    2.00000
  171    -18.20632    2.00000
  172    -18.20625    2.00000
  173    -18.20550    2.00000
  174    -18.20492    2.00000
  175    -18.20293    2.00000
  176    -18.20270    2.00000
  177    -18.19757    2.00000
  178    -18.18773    2.00000
  179    -18.17652    2.00000
  180    -18.17097    2.00000
  181    -18.16730    2.00000
  182    -18.14762    2.00000
  183    -18.13238    2.00000
  184    -18.12459    2.00000
  185    -18.12236    2.00000
  186    -18.11992    2.00000
  187    -18.11818    2.00000
  188    -18.11733    2.00000
  189    -18.11710    2.00000
  190    -18.11666    2.00000
  191    -18.11645    2.00000
  192    -18.11512    2.00000
  193    -18.11262    2.00000
  194    -18.11238    2.00000
  195    -18.11209    2.00000
  196    -18.11119    2.00000
  197    -18.10957    2.00000
  198    -18.10927    2.00000
  199    -18.10875    2.00000
  200    -18.10822    2.00000
  201    -18.10642    2.00000
  202    -18.10631    2.00000
  203    -18.10575    2.00000
  204    -18.10532    2.00000
  205    -18.10511    2.00000
  206    -18.10497    2.00000
  207    -18.10462    2.00000
  208    -18.10287    2.00000
  209    -18.10268    2.00000
  210    -18.10015    2.00000
  211    -18.10010    2.00000
  212    -18.09958    2.00000
  213    -18.09917    2.00000
  214    -18.09881    2.00000
  215    -18.09820    2.00000
  216    -18.09780    2.00000
  217    -18.09738    2.00000
  218    -18.09692    2.00000
  219    -18.09658    2.00000
  220    -18.09372    2.00000
  221    -18.09349    2.00000
  222    -18.09299    2.00000
  223    -18.09164    2.00000
  224    -18.09090    2.00000
  225    -18.08964    2.00000
  226    -18.08886    2.00000
  227    -18.08707    2.00000
  228    -18.08597    2.00000
  229    -18.08499    2.00000
  230    -18.08474    2.00000
  231    -18.08385    2.00000
  232    -18.08339    2.00000
  233    -18.08297    2.00000
  234    -18.08257    2.00000
  235    -18.08223    2.00000
  236    -18.08186    2.00000
  237    -18.08152    2.00000
  238    -18.08129    2.00000
  239    -18.07916    2.00000
  240    -18.07884    2.00000
  241    -18.07823    2.00000
  242    -18.07755    2.00000
  243    -18.07687    2.00000
  244    -18.07591    2.00000
  245    -18.07532    2.00000
  246    -18.07458    2.00000
  247    -18.07398    2.00000
  248    -18.07376    2.00000
  249    -18.07365    2.00000
  250    -18.07329    2.00000
  251    -18.07322    2.00000
  252    -18.07298    2.00000
  253    -18.07177    2.00000
  254    -18.07158    2.00000
  255    -18.07129    2.00000
  256    -18.07093    2.00000
  257    -18.06975    2.00000
  258    -18.06940    2.00000
  259    -18.06910    2.00000
  260    -18.06897    2.00000
  261    -18.06853    2.00000
  262    -18.06824    2.00000
  263    -18.06781    2.00000
  264    -18.06760    2.00000
  265    -18.06738    2.00000
  266    -18.06730    2.00000
  267    -18.06586    2.00000
  268    -18.06568    2.00000
  269    -18.06536    2.00000
  270    -18.06528    2.00000
  271    -18.06479    2.00000
  272    -18.06389    2.00000
  273    -18.06380    2.00000
  274    -18.06352    2.00000
  275    -18.06316    2.00000
  276    -18.06254    2.00000
  277    -18.06220    2.00000
  278    -18.06157    2.00000
  279    -18.06053    2.00000
  280    -18.05969    2.00000
  281    -18.05932    2.00000
  282    -18.05905    2.00000
  283    -18.05879    2.00000
  284    -18.05872    2.00000
  285    -18.05793    2.00000
  286    -18.05761    2.00000
  287    -18.05596    2.00000
  288    -18.05505    2.00000
  289    -18.05461    2.00000
  290    -18.05328    2.00000
  291    -18.05288    2.00000
  292     -4.54293    2.00000
  293     -4.19956    1.99999
  294     -4.18859    1.99999
  295     -4.15013    1.99998
  296     -3.85481    1.99989
  297     -3.85382    1.99989
  298     -3.81523    1.99986
  299     -3.79954    1.99984
  300     -3.53772    1.99909
  301     -3.52469    1.99901
  302     -3.51452    1.99894
  303     -3.51375    1.99893
  304     -3.51194    1.99892
  305     -3.47301    1.99860
  306     -3.46490    1.99852
  307     -3.21692    1.99231
  308     -3.19353    1.99101
  309     -3.18951    1.99077
  310     -3.17387    1.98976
  311     -3.14747    1.98780
  312     -3.14166    1.98733
  313     -3.13693    1.98692
  314     -3.13273    1.98655
  315     -2.88188    1.93042
  316     -2.84697    1.91299
  317     -2.82063    1.89714
  318     -2.81904    1.89611
  319     -2.72552    1.81454
  320     -2.56758    1.54684
  321     -2.54936    1.50288
  322     -2.54609    1.49470
  323     -2.54546    1.49311
  324     -2.54428    1.49011
  325     -2.53425    1.46430
  326     -2.52408    1.43730
  327     -2.51763    1.41974
  328     -2.41852    1.11648
  329     -2.35823    0.91626
  330     -2.22656    0.52011
  331     -2.21382    0.48810
  332     -2.18963    0.43106
  333     -2.18845    0.42841
  334     -2.18725    0.42573
  335     -2.18464    0.41993
  336     -2.10509    0.27045
  337     -2.04635    0.19120
  338     -1.94839    0.10429
  339     -1.94782    0.10392
  340     -1.91822    0.08611
  341     -1.75469    0.02980
  342     -1.75208    0.02929
  343     -1.73651    0.02644
  344     -1.71216    0.02252
  345     -1.67259    0.01735
  346     -1.65501    0.01544
  347     -1.65191    0.01513
  348     -1.64584    0.01453
  349     -1.64503    0.01446
  350     -1.62676    0.01281
  351     -1.62179    0.01239
  352     -1.61265    0.01167
  353     -1.61043    0.01149
  354     -1.60288    0.01093
  355     -1.58921    0.00999
  356     -1.58904    0.00997
  357     -1.58334    0.00960
  358     -1.53054    0.00676
  359     -1.41565    0.00315
  360     -1.41146    0.00306
  361     -1.37158    0.00235
  362     -1.34417    0.00196
  363     -1.31022    0.00156
  364     -1.27239    0.00121

Fermi level: -2.38342

Gap: 0.060 eV
Transition (v -> c):
  (s=0, k=0, n=328, [0.00, 0.00, 0.00]) -> (s=0, k=0, n=329, [0.00, 0.00, 0.00])
No difference between direct/indirect transitions

Forces in eV/Ang:
  0 K    -0.00015    0.00008   -0.02534
  1 K    -0.00589    0.00434   -0.02840
  2 K     0.00370   -0.00117   -0.01146
  3 K    -0.00580    0.00372   -0.01673
  4 K     0.00637   -0.00024    0.02091
  5 K     0.00750   -0.00436    0.02447
  6 K    -0.05373   -0.02587   -0.07968
  7 K     0.02475   -0.00581    0.03526
  8 K    -0.00164   -0.00087   -0.02543
  9 K     0.00312   -0.00062   -0.02092
 10 K    -0.01142    0.01648   -0.05370
 11 K     0.00050   -0.00055    0.00525
 12 K    -0.01383    0.00105    0.02615
 13 K     0.00113   -0.00052    0.02485
 14 K    -0.00476   -0.01860    0.03216
 15 K     0.00703   -0.00054    0.02877
 16 K    -0.00213    0.00078   -0.02495
 17 K    -0.00595   -0.00370   -0.02805
 18 K    -0.01000   -0.01504   -0.04909
 19 K    -0.00517   -0.00325   -0.01591
 20 K    -0.01347   -0.00109    0.02762
 21 K    -0.00089    0.00738    0.02368
 22 K     0.00494    0.00861    0.02180
 23 K     0.02070    0.00828    0.03058
 24 K    -0.00372    0.00008   -0.02387
 25 K     0.00061    0.00031   -0.02644
 26 K     0.00290   -0.00096   -0.00242
 27 K     0.01596    0.01425   -0.02370
 28 K    -0.01092    0.00196    0.02626
 29 K    -0.00261   -0.00124    0.02270
 30 K     0.00049   -0.00329    0.02892
 31 K     0.00999    0.00447    0.05403
 32 K     0.00722   -0.00697   -0.02869
 33 K     0.00270    0.00021   -0.02563
 34 K     0.00169   -0.00017   -0.00598
 35 K    -0.00567    0.00567   -0.00452
 36 K     0.01089   -0.01105    0.03110
 37 K    -0.00090    0.00093    0.01608
 38 K    -0.00299   -0.00047    0.02607
 39 K    -0.00763   -0.00064    0.02681
 40 K     0.00780    0.00687   -0.02872
 41 K     0.00096   -0.00053   -0.02666
 42 K     0.00057    0.00121   -0.00260
 43 K     0.01570   -0.02031   -0.02973
 44 K     0.01134   -0.00427    0.02498
 45 K     0.00726   -0.00026    0.01770
 46 K    -0.00704    0.00143    0.01954
 47 K    -0.00262    0.00755    0.03855
 48 K     0.00400   -0.00031   -0.02361
 49 K     0.00512    0.00613   -0.03094
 50 K    -0.00604    0.00010   -0.00129
 51 K    -0.01003    0.01175   -0.00937
 52 K     0.00296   -0.00036    0.01093
 53 K    -0.00445   -0.00304    0.01455
 54 K     0.00251   -0.00006    0.01968
 55 K    -0.00033   -0.00118    0.02696
 56 K    -0.00519   -0.00366   -0.03262
 57 K    -0.00642    0.00015   -0.02585
 58 K     0.00985   -0.01155   -0.00888
 59 K     0.00509    0.00006    0.00073
 60 K     0.00377    0.00457    0.01111
 61 K    -0.00312    0.00023    0.01306
 62 K     0.00588   -0.00300    0.02710
 63 K     0.00001   -0.00134    0.01864
 64 K    -0.00517    0.00398   -0.03333
 65 K     0.00474   -0.00628   -0.03115
 66 K     0.00948    0.01148   -0.00899
 67 K    -0.01040   -0.01182   -0.00923
 68 K     0.00334   -0.00453    0.01083
 69 K    -0.00413    0.00281    0.01468
 70 K     0.00631    0.00325    0.02703
 71 K    -0.00161    0.00232    0.02793
 72 K     0.02361    0.01791    0.08490

System changes: positions 

Initializing position-dependent things.

Density initialized from wave functions
           .------------------------------------------------------.  
          /|                                                      |  
         / |                                                      |  
        /  |                                                      |  
       /   |                                                      |  
      /    |                                                      |  
     /     |                                                      |  
    /      |                                                      |  
   /       |                                                      |  
  /        |                                                      |  
 *         |                                                      |  
 |         |                                                      |  
 |         |                                                      |  
 |         |                                                      |  
 |       K |                K                 K                   |  
 |         |     K                 K                  K           |  
 |         |                                                      |  
 |    K    |            K    K             K    K                 K  
 |         |K                        K                 K          |  
 |         |  K   K             K                 K               |  
 | K       |              K            K    K                  K  |  
 |         |         K                                            |  
 |         |   K            K     K            K    K             |  
 |       KK|           K    K            K    K            K      |  
 |         |                                                      |  
 |         |K    K            K    K             K   K            |  
 |    K    |            K                  K                      |  
 |         |       K                 K                 K          |  
 |         | K                  K                 K               |  
 |      K  |              K                 K                     |  
 | K       |         K                 K                          |  
 |        K|   K             K   K             K    K             |  
 |  K      |           K                 K                        |  
 |         |                                                      |  
 |         |K                 K                  K                |  
 |         |                                                      |  
 K         |       K                  K                           |  
 |         |                                                      |  
 |         .------------------------------------------------------.  
 |        /                                                      /   
 |       /                                                      /    
 |      /                                                      /     
 |     /                                                      /      
 |    /                                                      /       
 |   /                                                      /        
 |  /                                                      /         
 | /                                                      /          
 |/                                                      /           
 *------------------------------------------------------*            

Atomic positions and initial magnetic moments

Positions:
   0 K      0.000000    0.000000   10.000000    ( 0.0000,  0.0000,  0.0000)
   1 K      3.698168    2.615000   10.000000    ( 0.0000,  0.0000,  0.0000)
   2 K      3.698168    0.000000   13.698168    ( 0.0000,  0.0000,  0.0000)
   3 K      0.000000    2.615000   13.698168    ( 0.0000,  0.0000,  0.0000)
   4 K     -0.031418   -0.000591   17.356459    ( 0.0000,  0.0000,  0.0000)
   5 K      3.688298    2.768243   17.218823    ( 0.0000,  0.0000,  0.0000)
   6 K      3.719201    0.009652   20.459057    ( 0.0000,  0.0000,  0.0000)
   7 K      0.033139    2.583265   21.207417    ( 0.0000,  0.0000,  0.0000)
   8 K      0.000000    5.230000   10.000000    ( 0.0000,  0.0000,  0.0000)
   9 K      3.698168    7.845000   10.000000    ( 0.0000,  0.0000,  0.0000)
  10 K      3.698168    5.230000   13.698168    ( 0.0000,  0.0000,  0.0000)
  11 K      0.000000    7.845000   13.698168    ( 0.0000,  0.0000,  0.0000)
  12 K     -0.003719    5.229033   17.401639    ( 0.0000,  0.0000,  0.0000)
  13 K      3.704120    7.843700   17.404015    ( 0.0000,  0.0000,  0.0000)
  14 K      3.710407    5.188320   21.199534    ( 0.0000,  0.0000,  0.0000)
  15 K      0.000390    7.843776   21.146962    ( 0.0000,  0.0000,  0.0000)
  16 K      0.000000   10.460000   10.000000    ( 0.0000,  0.0000,  0.0000)
  17 K      3.698168   13.075000   10.000000    ( 0.0000,  0.0000,  0.0000)
  18 K      3.698168   10.460000   13.698168    ( 0.0000,  0.0000,  0.0000)
  19 K      0.000000   13.075000   13.698168    ( 0.0000,  0.0000,  0.0000)
  20 K     -0.003117   10.461576   17.400122    ( 0.0000,  0.0000,  0.0000)
  21 K      3.692213   12.922662   17.229889    ( 0.0000,  0.0000,  0.0000)
  22 K      3.699542   10.490812   21.186946    ( 0.0000,  0.0000,  0.0000)
  23 K      0.033507   13.107735   21.207386    ( 0.0000,  0.0000,  0.0000)
  24 K      7.396337    0.000000   10.000000    ( 0.0000,  0.0000,  0.0000)
  25 K     11.094505    2.615000   10.000000    ( 0.0000,  0.0000,  0.0000)
  26 K     11.094505    0.000000   13.698168    ( 0.0000,  0.0000,  0.0000)
  27 K      7.396337    2.615000   13.698168    ( 0.0000,  0.0000,  0.0000)
  28 K      7.422200   -0.038881   17.320830    ( 0.0000,  0.0000,  0.0000)
  29 K     11.106913    2.614401   17.394705    ( 0.0000,  0.0000,  0.0000)
  30 K     11.084805    0.010631   21.159240    ( 0.0000,  0.0000,  0.0000)
  31 K      7.366203    2.588702   21.042902    ( 0.0000,  0.0000,  0.0000)
  32 K      7.396337    5.230000   10.000000    ( 0.0000,  0.0000,  0.0000)
  33 K     11.094505    7.845000   10.000000    ( 0.0000,  0.0000,  0.0000)
  34 K     11.094505    5.230000   13.698168    ( 0.0000,  0.0000,  0.0000)
  35 K      7.396337    7.845000   13.698168    ( 0.0000,  0.0000,  0.0000)
  36 K      7.407123    5.256270   17.364099    ( 0.0000,  0.0000,  0.0000)
  37 K     11.097302    7.844135   17.397321    ( 0.0000,  0.0000,  0.0000)
  38 K     11.084664    5.224646   21.165712    ( 0.0000,  0.0000,  0.0000)
  39 K      7.391565    7.835220   21.162686    ( 0.0000,  0.0000,  0.0000)
  40 K      7.396337   10.460000   10.000000    ( 0.0000,  0.0000,  0.0000)
  41 K     11.094505   13.075000   10.000000    ( 0.0000,  0.0000,  0.0000)
  42 K     11.094505   10.460000   13.698168    ( 0.0000,  0.0000,  0.0000)
  43 K      7.396337   13.075000   13.698168    ( 0.0000,  0.0000,  0.0000)
  44 K      7.408577   10.472829   17.410220    ( 0.0000,  0.0000,  0.0000)
  45 K     11.101178   13.076715   17.405375    ( 0.0000,  0.0000,  0.0000)
  46 K     11.094173   10.456822   21.154926    ( 0.0000,  0.0000,  0.0000)
  47 K      7.363598   13.112216   21.205361    ( 0.0000,  0.0000,  0.0000)
  48 K     14.792674    0.000000   10.000000    ( 0.0000,  0.0000,  0.0000)
  49 K     18.490842    2.615000   10.000000    ( 0.0000,  0.0000,  0.0000)
  50 K     18.490842    0.000000   13.698168    ( 0.0000,  0.0000,  0.0000)
  51 K     14.792674    2.615000   13.698168    ( 0.0000,  0.0000,  0.0000)
  52 K     14.802511   -0.000913   17.402515    ( 0.0000,  0.0000,  0.0000)
  53 K     18.497598    2.625613   17.410002    ( 0.0000,  0.0000,  0.0000)
  54 K     18.481837    0.000190   21.154103    ( 0.0000,  0.0000,  0.0000)
  55 K     14.789676    2.615810   21.147376    ( 0.0000,  0.0000,  0.0000)
  56 K     14.792674    5.230000   10.000000    ( 0.0000,  0.0000,  0.0000)
  57 K     18.490842    7.845000   10.000000    ( 0.0000,  0.0000,  0.0000)
  58 K     18.490842    5.230000   13.698168    ( 0.0000,  0.0000,  0.0000)
  59 K     14.792674    7.845000   13.698168    ( 0.0000,  0.0000,  0.0000)
  60 K     14.783787    5.220820   17.409647    ( 0.0000,  0.0000,  0.0000)
  61 K     18.482206    7.845244   17.398844    ( 0.0000,  0.0000,  0.0000)
  62 K     18.492631    5.228356   21.149252    ( 0.0000,  0.0000,  0.0000)
  63 K     14.798892    7.843772   21.148745    ( 0.0000,  0.0000,  0.0000)
  64 K     14.792674   10.460000   10.000000    ( 0.0000,  0.0000,  0.0000)
  65 K     18.490842   13.075000   10.000000    ( 0.0000,  0.0000,  0.0000)
  66 K     18.490842   10.460000   13.698168    ( 0.0000,  0.0000,  0.0000)
  67 K     14.792674   13.075000   13.698168    ( 0.0000,  0.0000,  0.0000)
  68 K     14.783247   10.469721   17.408488    ( 0.0000,  0.0000,  0.0000)
  69 K     18.497670   13.064230   17.408991    ( 0.0000,  0.0000,  0.0000)
  70 K     18.492760   10.461612   21.149451    ( 0.0000,  0.0000,  0.0000)
  71 K     14.789086   13.075297   21.147349    ( 0.0000,  0.0000,  0.0000)
  72 K      4.318270    0.437227   24.277439    ( 0.0000,  0.0000,  0.0000)

Unit cell:
           periodic     x           y           z      points  spacing
  1. axis:    yes   22.189011    0.000000    0.000000   112     0.1981
  2. axis:    yes    0.000000   15.690000    0.000000    80     0.1961
  3. axis:    no     0.000000    0.000000   31.094505   156     0.1993

  Lengths:  22.189011  15.690000  31.094505
  Angles:   90.000000  90.000000  90.000000

Effective grid spacing dv^(1/3) = 0.1979

     iter     time        total  log10-change:
                         energy   eigst   dens
iter:   1 00:14:45   -61.477054        c
iter:   2 00:15:36   -61.477009        c -3.94
iter:   3 00:16:25   -61.476975c       c -4.08c

Converged after 3 iterations.

Dipole moment: (-91.806420, -77.649799, 0.442173) |e|*Ang

Energy contributions relative to reference atoms: (reference = -1195904.484944)

Kinetic:       +120.561885
Potential:     -103.619649
External:        +0.000000
XC:             -78.827148
Entropy (-ST):   -3.798843
Local:           +2.307359
SIC:             +0.000000
--------------------------
Free energy:    -63.376396
Extrapolated:   -61.476975

 Band  Eigenvalues  Occupancy
    0    -35.26448    2.00000
    1    -34.77114    2.00000
    2    -34.76771    2.00000
    3    -34.76533    2.00000
    4    -34.76316    2.00000
    5    -34.76276    2.00000
    6    -34.76241    2.00000
    7    -34.76232    2.00000
    8    -34.76021    2.00000
    9    -34.75954    2.00000
   10    -34.75905    2.00000
   11    -34.75880    2.00000
   12    -34.75851    2.00000
   13    -34.75764    2.00000
   14    -34.75734    2.00000
   15    -34.75716    2.00000
   16    -34.75679    2.00000
   17    -34.75654    2.00000
   18    -34.75619    2.00000
   19    -34.75594    2.00000
   20    -34.75564    2.00000
   21    -34.75558    2.00000
   22    -34.75526    2.00000
   23    -34.75509    2.00000
   24    -34.75494    2.00000
   25    -34.75464    2.00000
   26    -34.75429    2.00000
   27    -34.75426    2.00000
   28    -34.75361    2.00000
   29    -34.75304    2.00000
   30    -34.75090    2.00000
   31    -34.74990    2.00000
   32    -34.74805    2.00000
   33    -34.74631    2.00000
   34    -34.73134    2.00000
   35    -34.69544    2.00000
   36    -34.66128    2.00000
   37    -34.61201    2.00000
   38    -34.60990    2.00000
   39    -34.60926    2.00000
   40    -34.60874    2.00000
   41    -34.60788    2.00000
   42    -34.60626    2.00000
   43    -34.60561    2.00000
   44    -34.60550    2.00000
   45    -34.60478    2.00000
   46    -34.60455    2.00000
   47    -34.60401    2.00000
   48    -34.60347    2.00000
   49    -34.60338    2.00000
   50    -34.60320    2.00000
   51    -34.60310    2.00000
   52    -34.60242    2.00000
   53    -34.60206    2.00000
   54    -34.60150    2.00000
   55    -34.60055    2.00000
   56    -34.60025    2.00000
   57    -34.59916    2.00000
   58    -34.59857    2.00000
   59    -34.59813    2.00000
   60    -34.59801    2.00000
   61    -34.59773    2.00000
   62    -34.59747    2.00000
   63    -34.59727    2.00000
   64    -34.59714    2.00000
   65    -34.59680    2.00000
   66    -34.59623    2.00000
   67    -34.59571    2.00000
   68    -34.59509    2.00000
   69    -34.59500    2.00000
   70    -34.59465    2.00000
   71    -34.58623    2.00000
   72    -34.58276    2.00000
   73    -18.77056    2.00000
   74    -18.72911    2.00000
   75    -18.72499    2.00000
   76    -18.27482    2.00000
   77    -18.27107    2.00000
   78    -18.26612    2.00000
   79    -18.26582    2.00000
   80    -18.26510    2.00000
   81    -18.26492    2.00000
   82    -18.26312    2.00000
   83    -18.26308    2.00000
   84    -18.26297    2.00000
   85    -18.26184    2.00000
   86    -18.26059    2.00000
   87    -18.26048    2.00000
   88    -18.26019    2.00000
   89    -18.26000    2.00000
   90    -18.25944    2.00000
   91    -18.25928    2.00000
   92    -18.25898    2.00000
   93    -18.25833    2.00000
   94    -18.25808    2.00000
   95    -18.25804    2.00000
   96    -18.25753    2.00000
   97    -18.25683    2.00000
   98    -18.25660    2.00000
   99    -18.25634    2.00000
  100    -18.25613    2.00000
  101    -18.25542    2.00000
  102    -18.25539    2.00000
  103    -18.25531    2.00000
  104    -18.25477    2.00000
  105    -18.25461    2.00000
  106    -18.25437    2.00000
  107    -18.25394    2.00000
  108    -18.25348    2.00000
  109    -18.25345    2.00000
  110    -18.25340    2.00000
  111    -18.25239    2.00000
  112    -18.25220    2.00000
  113    -18.25216    2.00000
  114    -18.25195    2.00000
  115    -18.25155    2.00000
  116    -18.25143    2.00000
  117    -18.25119    2.00000
  118    -18.25097    2.00000
  119    -18.25091    2.00000
  120    -18.25047    2.00000
  121    -18.25035    2.00000
  122    -18.24995    2.00000
  123    -18.24944    2.00000
  124    -18.24933    2.00000
  125    -18.24883    2.00000
  126    -18.24878    2.00000
  127    -18.24830    2.00000
  128    -18.24793    2.00000
  129    -18.24629    2.00000
  130    -18.24599    2.00000
  131    -18.24532    2.00000
  132    -18.24460    2.00000
  133    -18.24301    2.00000
  134    -18.24088    2.00000
  135    -18.23960    2.00000
  136    -18.23856    2.00000
  137    -18.23794    2.00000
  138    -18.23775    2.00000
  139    -18.23575    2.00000
  140    -18.23363    2.00000
  141    -18.23177    2.00000
  142    -18.23153    2.00000
  143    -18.23109    2.00000
  144    -18.23028    2.00000
  145    -18.22961    2.00000
  146    -18.22881    2.00000
  147    -18.22846    2.00000
  148    -18.22752    2.00000
  149    -18.22662    2.00000
  150    -18.22642    2.00000
  151    -18.22535    2.00000
  152    -18.22442    2.00000
  153    -18.22386    2.00000
  154    -18.22299    2.00000
  155    -18.22254    2.00000
  156    -18.22220    2.00000
  157    -18.22198    2.00000
  158    -18.22095    2.00000
  159    -18.22083    2.00000
  160    -18.22029    2.00000
  161    -18.21992    2.00000
  162    -18.21875    2.00000
  163    -18.21778    2.00000
  164    -18.21773    2.00000
  165    -18.21750    2.00000
  166    -18.21737    2.00000
  167    -18.21510    2.00000
  168    -18.21350    2.00000
  169    -18.21304    2.00000
  170    -18.21239    2.00000
  171    -18.21033    2.00000
  172    -18.20997    2.00000
  173    -18.20930    2.00000
  174    -18.20887    2.00000
  175    -18.20706    2.00000
  176    -18.20665    2.00000
  177    -18.20214    2.00000
  178    -18.19238    2.00000
  179    -18.18136    2.00000
  180    -18.17569    2.00000
  181    -18.17203    2.00000
  182    -18.15211    2.00000
  183    -18.13762    2.00000
  184    -18.12777    2.00000
  185    -18.12559    2.00000
  186    -18.12327    2.00000
  187    -18.12131    2.00000
  188    -18.12053    2.00000
  189    -18.12044    2.00000
  190    -18.11963    2.00000
  191    -18.11947    2.00000
  192    -18.11832    2.00000
  193    -18.11584    2.00000
  194    -18.11557    2.00000
  195    -18.11531    2.00000
  196    -18.11414    2.00000
  197    -18.11271    2.00000
  198    -18.11226    2.00000
  199    -18.11183    2.00000
  200    -18.11138    2.00000
  201    -18.10973    2.00000
  202    -18.10944    2.00000
  203    -18.10905    2.00000
  204    -18.10860    2.00000
  205    -18.10842    2.00000
  206    -18.10814    2.00000
  207    -18.10773    2.00000
  208    -18.10609    2.00000
  209    -18.10581    2.00000
  210    -18.10340    2.00000
  211    -18.10321    2.00000
  212    -18.10289    2.00000
  213    -18.10238    2.00000
  214    -18.10198    2.00000
  215    -18.10143    2.00000
  216    -18.10104    2.00000
  217    -18.10071    2.00000
  218    -18.10021    2.00000
  219    -18.09977    2.00000
  220    -18.09695    2.00000
  221    -18.09648    2.00000
  222    -18.09621    2.00000
  223    -18.09488    2.00000
  224    -18.09411    2.00000
  225    -18.09279    2.00000
  226    -18.09205    2.00000
  227    -18.09033    2.00000
  228    -18.08917    2.00000
  229    -18.08819    2.00000
  230    -18.08793    2.00000
  231    -18.08693    2.00000
  232    -18.08664    2.00000
  233    -18.08622    2.00000
  234    -18.08582    2.00000
  235    -18.08545    2.00000
  236    -18.08497    2.00000
  237    -18.08460    2.00000
  238    -18.08442    2.00000
  239    -18.08238    2.00000
  240    -18.08205    2.00000
  241    -18.08140    2.00000
  242    -18.08075    2.00000
  243    -18.08004    2.00000
  244    -18.07900    2.00000
  245    -18.07857    2.00000
  246    -18.07781    2.00000
  247    -18.07715    2.00000
  248    -18.07700    2.00000
  249    -18.07670    2.00000
  250    -18.07645    2.00000
  251    -18.07638    2.00000
  252    -18.07607    2.00000
  253    -18.07503    2.00000
  254    -18.07485    2.00000
  255    -18.07454    2.00000
  256    -18.07414    2.00000
  257    -18.07292    2.00000
  258    -18.07258    2.00000
  259    -18.07249    2.00000
  260    -18.07237    2.00000
  261    -18.07174    2.00000
  262    -18.07160    2.00000
  263    -18.07098    2.00000
  264    -18.07081    2.00000
  265    -18.07069    2.00000
  266    -18.07054    2.00000
  267    -18.06920    2.00000
  268    -18.06898    2.00000
  269    -18.06850    2.00000
  270    -18.06835    2.00000
  271    -18.06804    2.00000
  272    -18.06703    2.00000
  273    -18.06685    2.00000
  274    -18.06661    2.00000
  275    -18.06630    2.00000
  276    -18.06579    2.00000
  277    -18.06565    2.00000
  278    -18.06486    2.00000
  279    -18.06369    2.00000
  280    -18.06296    2.00000
  281    -18.06272    2.00000
  282    -18.06251    2.00000
  283    -18.06217    2.00000
  284    -18.06207    2.00000
  285    -18.06104    2.00000
  286    -18.06040    2.00000
  287    -18.05867    2.00000
  288    -18.05797    2.00000
  289    -18.05778    2.00000
  290    -18.05653    2.00000
  291    -18.05572    2.00000
  292     -4.54458    2.00000
  293     -4.20123    1.99999
  294     -4.19026    1.99999
  295     -4.15218    1.99998
  296     -3.85650    1.99989
  297     -3.85546    1.99989
  298     -3.81738    1.99986
  299     -3.80163    1.99984
  300     -3.53939    1.99909
  301     -3.52631    1.99901
  302     -3.51609    1.99894
  303     -3.51534    1.99893
  304     -3.51358    1.99892
  305     -3.47500    1.99860
  306     -3.46701    1.99853
  307     -3.21849    1.99230
  308     -3.19520    1.99102
  309     -3.19117    1.99077
  310     -3.17524    1.98975
  311     -3.14945    1.98783
  312     -3.14382    1.98737
  313     -3.13905    1.98697
  314     -3.13483    1.98660
  315     -2.88325    1.93031
  316     -2.84832    1.91284
  317     -2.82273    1.89746
  318     -2.82108    1.89638
  319     -2.72700    1.81438
  320     -2.56904    1.54650
  321     -2.55100    1.50295
  322     -2.54773    1.49475
  323     -2.54715    1.49329
  324     -2.54595    1.49026
  325     -2.53562    1.46365
  326     -2.52545    1.43664
  327     -2.51898    1.41901
  328     -2.42001    1.11608
  329     -2.35972    0.91583
  330     -2.22795    0.51953
  331     -2.21529    0.48773
  332     -2.19155    0.43174
  333     -2.19045    0.42926
  334     -2.18937    0.42686
  335     -2.18679    0.42111
  336     -2.10661    0.27031
  337     -2.04781    0.19102
  338     -1.95003    0.10431
  339     -1.94947    0.10394
  340     -1.91970    0.08603
  341     -1.75623    0.02978
  342     -1.75359    0.02927
  343     -1.73805    0.02643
  344     -1.71360    0.02250
  345     -1.67421    0.01735
  346     -1.65666    0.01545
  347     -1.65354    0.01513
  348     -1.64751    0.01454
  349     -1.64671    0.01446
  350     -1.62811    0.01279
  351     -1.62314    0.01237
  352     -1.61404    0.01165
  353     -1.61198    0.01149
  354     -1.60424    0.01092
  355     -1.59111    0.01000
  356     -1.59094    0.00999
  357     -1.58513    0.00962
  358     -1.53199    0.00676
  359     -1.41687    0.00314
  360     -1.41278    0.00306
  361     -1.37372    0.00236
  362     -1.34564    0.00196
  363     -1.31169    0.00156
  364     -1.27448    0.00122

Fermi level: -2.38503

Gap: 0.060 eV
Transition (v -> c):
  (s=0, k=0, n=328, [0.00, 0.00, 0.00]) -> (s=0, k=0, n=329, [0.00, 0.00, 0.00])
No difference between direct/indirect transitions

Forces in eV/Ang:
  0 K     0.00039    0.00009   -0.02902
  1 K    -0.00574    0.00446   -0.03238
  2 K     0.00379   -0.00133   -0.00691
  3 K    -0.00596    0.00440   -0.01305
  4 K     0.00675   -0.00010    0.01779
  5 K     0.00747   -0.00414    0.02004
  6 K    -0.05193   -0.02515   -0.07569
  7 K     0.02314   -0.00549    0.03645
  8 K    -0.00066   -0.00092   -0.02837
  9 K     0.00340   -0.00053   -0.02390
 10 K    -0.01139    0.01699   -0.05024
 11 K     0.00030   -0.00033    0.00855
 12 K    -0.01339    0.00022    0.02283
 13 K     0.00113   -0.00094    0.02182
 14 K    -0.00469   -0.01762    0.03346
 15 K     0.00644   -0.00051    0.03091
 16 K    -0.00100    0.00081   -0.02763
 17 K    -0.00579   -0.00391   -0.03180
 18 K    -0.01000   -0.01535   -0.04596
 19 K    -0.00536   -0.00416   -0.01231
 20 K    -0.01324   -0.00034    0.02399
 21 K    -0.00068    0.00724    0.01893
 22 K     0.00472    0.00758    0.02302
 23 K     0.01920    0.00777    0.03202
 24 K    -0.00422    0.00009   -0.02781
 25 K     0.00002    0.00004   -0.02933
 26 K     0.00335   -0.00109    0.00099
 27 K     0.01592    0.01489   -0.01988
 28 K    -0.01096    0.00192    0.02294
 29 K    -0.00308   -0.00128    0.01983
 30 K     0.00140   -0.00328    0.03057
 31 K     0.01028    0.00427    0.05459
 32 K     0.00645   -0.00681   -0.03181
 33 K     0.00148    0.00010   -0.02769
 34 K     0.00212    0.00055   -0.00221
 35 K    -0.00555    0.00575   -0.00160
 36 K     0.01034   -0.01172    0.02787
 37 K    -0.00008    0.00084    0.01198
 38 K    -0.00271   -0.00059    0.02814
 39 K    -0.00708   -0.00060    0.02869
 40 K     0.00690    0.00670   -0.03163
 41 K     0.00021   -0.00014   -0.02942
 42 K     0.00090    0.00063    0.00137
 43 K     0.01567   -0.02110   -0.02590
 44 K     0.01093   -0.00314    0.02162
 45 K     0.00676   -0.00022    0.01479
 46 K    -0.00670    0.00163    0.02201
 47 K    -0.00184    0.00735    0.03963
 48 K     0.00396   -0.00010   -0.02597
 49 K     0.00557    0.00564   -0.03351
 50 K    -0.00658   -0.00003    0.00203
 51 K    -0.00984    0.01215   -0.00574
 52 K     0.00276   -0.00054    0.00752
 53 K    -0.00404   -0.00262    0.01153
 54 K     0.00243   -0.00003    0.02213
 55 K    -0.00049   -0.00111    0.02971
 56 K    -0.00539   -0.00438   -0.03462
 57 K    -0.00550    0.00001   -0.02780
 58 K     0.00942   -0.01105   -0.00472
 59 K     0.00510    0.00012    0.00582
 60 K     0.00389    0.00519    0.00700
 61 K    -0.00387    0.00031    0.00887
 62 K     0.00602   -0.00313    0.02936
 63 K     0.00015   -0.00125    0.02121
 64 K    -0.00538    0.00448   -0.03528
 65 K     0.00533   -0.00565   -0.03358
 66 K     0.00920    0.01109   -0.00456
 67 K    -0.01018   -0.01228   -0.00523
 68 K     0.00356   -0.00497    0.00662
 69 K    -0.00403    0.00231    0.01137
 70 K     0.00625    0.00335    0.02934
 71 K    -0.00173    0.00212    0.03054
 72 K     0.02271    0.01797    0.08419

System changes: positions 

Initializing position-dependent things.

Density initialized from wave functions
           .------------------------------------------------------.  
          /|                                                      |  
         / |                                                      |  
        /  |                                                      |  
       /   |                                                      |  
      /    |                                                      |  
     /     |                                                      |  
    /      |                                                      |  
   /       |                                                      |  
  /        |                                                      |  
 *         |                                                      |  
 |         |                                                      |  
 |         |                                                      |  
 |         |                                                      |  
 |       K |                K                 K                   |  
 |         |     K                 K                  K           |  
 |         |                                                      |  
 |    K    |            K    K             K    K                 K  
 |         |K                        K                 K          |  
 |         |  K   K             K                 K               |  
 | K       |              K            K    K                  K  |  
 |         |         K                                            |  
 |         |   K            K     K            K    K             |  
 |       KK|           K    K            K    K            K      |  
 |         |                                                      |  
 |         |K    K            K    K             K   K            |  
 |    K    |            K                  K                      |  
 |         |       K                 K                 K          |  
 |         | K                  K                 K               |  
 |      K  |              K                 K                     |  
 | K       |         K                 K                          |  
 |        K|   K             K   K             K    K             |  
 |  K      |           K                 K                        |  
 |         |                                                      |  
 |         |K                 K                  K                |  
 |         |                                                      |  
 K         |       K                  K                           |  
 |         |                                                      |  
 |         .------------------------------------------------------.  
 |        /                                                      /   
 |       /                                                      /    
 |      /                                                      /     
 |     /                                                      /      
 |    /                                                      /       
 |   /                                                      /        
 |  /                                                      /         
 | /                                                      /          
 |/                                                      /           
 *------------------------------------------------------*            

Atomic positions and initial magnetic moments

Positions:
   0 K      0.000000    0.000000   10.000000    ( 0.0000,  0.0000,  0.0000)
   1 K      3.698168    2.615000   10.000000    ( 0.0000,  0.0000,  0.0000)
   2 K      3.698168    0.000000   13.698168    ( 0.0000,  0.0000,  0.0000)
   3 K      0.000000    2.615000   13.698168    ( 0.0000,  0.0000,  0.0000)
   4 K     -0.031288   -0.000594   17.356840    ( 0.0000,  0.0000,  0.0000)
   5 K      3.688450    2.768167   17.219255    ( 0.0000,  0.0000,  0.0000)
   6 K      3.718142    0.009139   20.457458    ( 0.0000,  0.0000,  0.0000)
   7 K      0.033618    2.583150   21.208137    ( 0.0000,  0.0000,  0.0000)
   8 K      0.000000    5.230000   10.000000    ( 0.0000,  0.0000,  0.0000)
   9 K      3.698168    7.845000   10.000000    ( 0.0000,  0.0000,  0.0000)
  10 K      3.698168    5.230000   13.698168    ( 0.0000,  0.0000,  0.0000)
  11 K      0.000000    7.845000   13.698168    ( 0.0000,  0.0000,  0.0000)
  12 K     -0.003991    5.229045   17.402125    ( 0.0000,  0.0000,  0.0000)
  13 K      3.704143    7.843685   17.404477    ( 0.0000,  0.0000,  0.0000)
  14 K      3.710309    5.187960   21.200189    ( 0.0000,  0.0000,  0.0000)
  15 K      0.000524    7.843766   21.147561    ( 0.0000,  0.0000,  0.0000)
  16 K      0.000000   10.460000   10.000000    ( 0.0000,  0.0000,  0.0000)
  17 K      3.698168   13.075000   10.000000    ( 0.0000,  0.0000,  0.0000)
  18 K      3.698168   10.460000   13.698168    ( 0.0000,  0.0000,  0.0000)
  19 K      0.000000   13.075000   13.698168    ( 0.0000,  0.0000,  0.0000)
  20 K     -0.003384   10.461563   17.400633    ( 0.0000,  0.0000,  0.0000)
  21 K      3.692199   12.922799   17.230298    ( 0.0000,  0.0000,  0.0000)
  22 K      3.699638   10.490974   21.187396    ( 0.0000,  0.0000,  0.0000)
  23 K      0.033906   13.107896   21.208015    ( 0.0000,  0.0000,  0.0000)
  24 K      7.396337    0.000000   10.000000    ( 0.0000,  0.0000,  0.0000)
  25 K     11.094505    2.615000   10.000000    ( 0.0000,  0.0000,  0.0000)
  26 K     11.094505    0.000000   13.698168    ( 0.0000,  0.0000,  0.0000)
  27 K      7.396337    2.615000   13.698168    ( 0.0000,  0.0000,  0.0000)
  28 K      7.421983   -0.038831   17.321328    ( 0.0000,  0.0000,  0.0000)
  29 K     11.106853    2.614376   17.395129    ( 0.0000,  0.0000,  0.0000)
  30 K     11.084828    0.010562   21.159832    ( 0.0000,  0.0000,  0.0000)
  31 K      7.366403    2.588787   21.044038    ( 0.0000,  0.0000,  0.0000)
  32 K      7.396337    5.230000   10.000000    ( 0.0000,  0.0000,  0.0000)
  33 K     11.094505    7.845000   10.000000    ( 0.0000,  0.0000,  0.0000)
  34 K     11.094505    5.230000   13.698168    ( 0.0000,  0.0000,  0.0000)
  35 K      7.396337    7.845000   13.698168    ( 0.0000,  0.0000,  0.0000)
  36 K      7.407335    5.256029   17.364698    ( 0.0000,  0.0000,  0.0000)
  37 K     11.097293    7.844153   17.397596    ( 0.0000,  0.0000,  0.0000)
  38 K     11.084611    5.224638   21.166252    ( 0.0000,  0.0000,  0.0000)
  39 K      7.391419    7.835211   21.163240    ( 0.0000,  0.0000,  0.0000)
  40 K      7.396337   10.460000   10.000000    ( 0.0000,  0.0000,  0.0000)
  41 K     11.094505   13.075000   10.000000    ( 0.0000,  0.0000,  0.0000)
  42 K     11.094505   10.460000   13.698168    ( 0.0000,  0.0000,  0.0000)
  43 K      7.396337   13.075000   13.698168    ( 0.0000,  0.0000,  0.0000)
  44 K      7.408800   10.472756   17.410681    ( 0.0000,  0.0000,  0.0000)
  45 K     11.101317   13.076710   17.405696    ( 0.0000,  0.0000,  0.0000)
  46 K     11.094036   10.456853   21.155342    ( 0.0000,  0.0000,  0.0000)
  47 K      7.363553   13.112364   21.206144    ( 0.0000,  0.0000,  0.0000)
  48 K     14.792674    0.000000   10.000000    ( 0.0000,  0.0000,  0.0000)
  49 K     18.490842    2.615000   10.000000    ( 0.0000,  0.0000,  0.0000)
  50 K     18.490842    0.000000   13.698168    ( 0.0000,  0.0000,  0.0000)
  51 K     14.792674    2.615000   13.698168    ( 0.0000,  0.0000,  0.0000)
  52 K     14.802567   -0.000922   17.402695    ( 0.0000,  0.0000,  0.0000)
  53 K     18.497514    2.625557   17.410259    ( 0.0000,  0.0000,  0.0000)
  54 K     18.481887    0.000190   21.154522    ( 0.0000,  0.0000,  0.0000)
  55 K     14.789668    2.615787   21.147945    ( 0.0000,  0.0000,  0.0000)
  56 K     14.792674    5.230000   10.000000    ( 0.0000,  0.0000,  0.0000)
  57 K     18.490842    7.845000   10.000000    ( 0.0000,  0.0000,  0.0000)
  58 K     18.490842    5.230000   13.698168    ( 0.0000,  0.0000,  0.0000)
  59 K     14.792674    7.845000   13.698168    ( 0.0000,  0.0000,  0.0000)
  60 K     14.783864    5.220918   17.409823    ( 0.0000,  0.0000,  0.0000)
  61 K     18.482136    7.845250   17.399059    ( 0.0000,  0.0000,  0.0000)
  62 K     18.492750    5.228295   21.149818    ( 0.0000,  0.0000,  0.0000)
  63 K     14.798894    7.843746   21.149145    ( 0.0000,  0.0000,  0.0000)
  64 K     14.792674   10.460000   10.000000    ( 0.0000,  0.0000,  0.0000)
  65 K     18.490842   13.075000   10.000000    ( 0.0000,  0.0000,  0.0000)
  66 K     18.490842   10.460000   13.698168    ( 0.0000,  0.0000,  0.0000)
  67 K     14.792674   13.075000   13.698168    ( 0.0000,  0.0000,  0.0000)
  68 K     14.783316   10.469626   17.408657    ( 0.0000,  0.0000,  0.0000)
  69 K     18.497588   13.064281   17.409247    ( 0.0000,  0.0000,  0.0000)
  70 K     18.492886   10.461679   21.150015    ( 0.0000,  0.0000,  0.0000)
  71 K     14.789053   13.075341   21.147936    ( 0.0000,  0.0000,  0.0000)
  72 K      4.318546    0.437454   24.279128    ( 0.0000,  0.0000,  0.0000)

Unit cell:
           periodic     x           y           z      points  spacing
  1. axis:    yes   22.189011    0.000000    0.000000   112     0.1981
  2. axis:    yes    0.000000   15.690000    0.000000    80     0.1961
  3. axis:    no     0.000000    0.000000   31.094505   156     0.1993

  Lengths:  22.189011  15.690000  31.094505
  Angles:   90.000000  90.000000  90.000000

Effective grid spacing dv^(1/3) = 0.1979

     iter     time        total  log10-change:
                         energy   eigst   dens
iter:   1 00:44:05   -61.477986        c
iter:   2 00:47:08   -61.477895        c -3.70
iter:   3 00:48:09   -61.477948c       c -3.93
iter:   4 00:49:12   -61.478006c       c -4.07c

Converged after 4 iterations.

Dipole moment: (-91.885627, -77.586415, 0.438347) |e|*Ang

Energy contributions relative to reference atoms: (reference = -1195904.484944)

Kinetic:       +122.376312
Potential:     -105.269151
External:        +0.000000
XC:             -78.998535
Entropy (-ST):   -3.798501
Local:           +2.312618
SIC:             +0.000000
--------------------------
Free energy:    -63.377257
Extrapolated:   -61.478006

 Band  Eigenvalues  Occupancy
    0    -35.26182    2.00000
    1    -34.76699    2.00000
    2    -34.76398    2.00000
    3    -34.76293    2.00000
    4    -34.75956    2.00000
    5    -34.75938    2.00000
    6    -34.75889    2.00000
    7    -34.75847    2.00000
    8    -34.75740    2.00000
    9    -34.75625    2.00000
   10    -34.75584    2.00000
   11    -34.75540    2.00000
   12    -34.75495    2.00000
   13    -34.75447    2.00000
   14    -34.75441    2.00000
   15    -34.75377    2.00000
   16    -34.75374    2.00000
   17    -34.75321    2.00000
   18    -34.75308    2.00000
   19    -34.75252    2.00000
   20    -34.75248    2.00000
   21    -34.75229    2.00000
   22    -34.75198    2.00000
   23    -34.75178    2.00000
   24    -34.75170    2.00000
   25    -34.75140    2.00000
   26    -34.75095    2.00000
   27    -34.75065    2.00000
   28    -34.74978    2.00000
   29    -34.74880    2.00000
   30    -34.74656    2.00000
   31    -34.74574    2.00000
   32    -34.74355    2.00000
   33    -34.74242    2.00000
   34    -34.72710    2.00000
   35    -34.69110    2.00000
   36    -34.65578    2.00000
   37    -34.61045    2.00000
   38    -34.60720    2.00000
   39    -34.60630    2.00000
   40    -34.60607    2.00000
   41    -34.60545    2.00000
   42    -34.60349    2.00000
   43    -34.60283    2.00000
   44    -34.60267    2.00000
   45    -34.60210    2.00000
   46    -34.60206    2.00000
   47    -34.60133    2.00000
   48    -34.60100    2.00000
   49    -34.60066    2.00000
   50    -34.60056    2.00000
   51    -34.59995    2.00000
   52    -34.59966    2.00000
   53    -34.59913    2.00000
   54    -34.59857    2.00000
   55    -34.59785    2.00000
   56    -34.59749    2.00000
   57    -34.59641    2.00000
   58    -34.59593    2.00000
   59    -34.59559    2.00000
   60    -34.59522    2.00000
   61    -34.59497    2.00000
   62    -34.59457    2.00000
   63    -34.59441    2.00000
   64    -34.59383    2.00000
   65    -34.59350    2.00000
   66    -34.59313    2.00000
   67    -34.59286    2.00000
   68    -34.59221    2.00000
   69    -34.59157    2.00000
   70    -34.59102    2.00000
   71    -34.58415    2.00000
   72    -34.58129    2.00000
   73    -18.76761    2.00000
   74    -18.72661    2.00000
   75    -18.72249    2.00000
   76    -18.27108    2.00000
   77    -18.26817    2.00000
   78    -18.26258    2.00000
   79    -18.26239    2.00000
   80    -18.26212    2.00000
   81    -18.26142    2.00000
   82    -18.26026    2.00000
   83    -18.26011    2.00000
   84    -18.25937    2.00000
   85    -18.25819    2.00000
   86    -18.25757    2.00000
   87    -18.25738    2.00000
   88    -18.25674    2.00000
   89    -18.25659    2.00000
   90    -18.25643    2.00000
   91    -18.25574    2.00000
   92    -18.25552    2.00000
   93    -18.25542    2.00000
   94    -18.25519    2.00000
   95    -18.25453    2.00000
   96    -18.25421    2.00000
   97    -18.25362    2.00000
   98    -18.25343    2.00000
   99    -18.25335    2.00000
  100    -18.25314    2.00000
  101    -18.25239    2.00000
  102    -18.25189    2.00000
  103    -18.25180    2.00000
  104    -18.25171    2.00000
  105    -18.25137    2.00000
  106    -18.25109    2.00000
  107    -18.25046    2.00000
  108    -18.25040    2.00000
  109    -18.25031    2.00000
  110    -18.24997    2.00000
  111    -18.24941    2.00000
  112    -18.24899    2.00000
  113    -18.24874    2.00000
  114    -18.24853    2.00000
  115    -18.24825    2.00000
  116    -18.24797    2.00000
  117    -18.24796    2.00000
  118    -18.24787    2.00000
  119    -18.24779    2.00000
  120    -18.24712    2.00000
  121    -18.24696    2.00000
  122    -18.24633    2.00000
  123    -18.24631    2.00000
  124    -18.24571    2.00000
  125    -18.24531    2.00000
  126    -18.24523    2.00000
  127    -18.24465    2.00000
  128    -18.24440    2.00000
  129    -18.24234    2.00000
  130    -18.24220    2.00000
  131    -18.24169    2.00000
  132    -18.24039    2.00000
  133    -18.23925    2.00000
  134    -18.23787    2.00000
  135    -18.23642    2.00000
  136    -18.23494    2.00000
  137    -18.23487    2.00000
  138    -18.23425    2.00000
  139    -18.23218    2.00000
  140    -18.23001    2.00000
  141    -18.22818    2.00000
  142    -18.22800    2.00000
  143    -18.22781    2.00000
  144    -18.22668    2.00000
  145    -18.22625    2.00000
  146    -18.22550    2.00000
  147    -18.22525    2.00000
  148    -18.22442    2.00000
  149    -18.22363    2.00000
  150    -18.22279    2.00000
  151    -18.22177    2.00000
  152    -18.22070    2.00000
  153    -18.22068    2.00000
  154    -18.21990    2.00000
  155    -18.21899    2.00000
  156    -18.21878    2.00000
  157    -18.21869    2.00000
  158    -18.21772    2.00000
  159    -18.21719    2.00000
  160    -18.21711    2.00000
  161    -18.21673    2.00000
  162    -18.21514    2.00000
  163    -18.21464    2.00000
  164    -18.21417    2.00000
  165    -18.21416    2.00000
  166    -18.21385    2.00000
  167    -18.21158    2.00000
  168    -18.21001    2.00000
  169    -18.20985    2.00000
  170    -18.20932    2.00000
  171    -18.20660    2.00000
  172    -18.20648    2.00000
  173    -18.20567    2.00000
  174    -18.20509    2.00000
  175    -18.20312    2.00000
  176    -18.20308    2.00000
  177    -18.19803    2.00000
  178    -18.18824    2.00000
  179    -18.17674    2.00000
  180    -18.17152    2.00000
  181    -18.16777    2.00000
  182    -18.14821    2.00000
  183    -18.13264    2.00000
  184    -18.12510    2.00000
  185    -18.12271    2.00000
  186    -18.12047    2.00000
  187    -18.11868    2.00000
  188    -18.11787    2.00000
  189    -18.11753    2.00000
  190    -18.11718    2.00000
  191    -18.11689    2.00000
  192    -18.11551    2.00000
  193    -18.11310    2.00000
  194    -18.11287    2.00000
  195    -18.11261    2.00000
  196    -18.11173    2.00000
  197    -18.11010    2.00000
  198    -18.10982    2.00000
  199    -18.10936    2.00000
  200    -18.10881    2.00000
  201    -18.10702    2.00000
  202    -18.10687    2.00000
  203    -18.10627    2.00000
  204    -18.10585    2.00000
  205    -18.10560    2.00000
  206    -18.10545    2.00000
  207    -18.10516    2.00000
  208    -18.10341    2.00000
  209    -18.10321    2.00000
  210    -18.10064    2.00000
  211    -18.10062    2.00000
  212    -18.10014    2.00000
  213    -18.09969    2.00000
  214    -18.09932    2.00000
  215    -18.09867    2.00000
  216    -18.09826    2.00000
  217    -18.09788    2.00000
  218    -18.09743    2.00000
  219    -18.09709    2.00000
  220    -18.09423    2.00000
  221    -18.09405    2.00000
  222    -18.09353    2.00000
  223    -18.09215    2.00000
  224    -18.09136    2.00000
  225    -18.09010    2.00000
  226    -18.08935    2.00000
  227    -18.08766    2.00000
  228    -18.08646    2.00000
  229    -18.08550    2.00000
  230    -18.08525    2.00000
  231    -18.08439    2.00000
  232    -18.08391    2.00000
  233    -18.08348    2.00000
  234    -18.08304    2.00000
  235    -18.08273    2.00000
  236    -18.08243    2.00000
  237    -18.08209    2.00000
  238    -18.08180    2.00000
  239    -18.07975    2.00000
  240    -18.07939    2.00000
  241    -18.07878    2.00000
  242    -18.07805    2.00000
  243    -18.07745    2.00000
  244    -18.07642    2.00000
  245    -18.07580    2.00000
  246    -18.07511    2.00000
  247    -18.07459    2.00000
  248    -18.07433    2.00000
  249    -18.07416    2.00000
  250    -18.07384    2.00000
  251    -18.07371    2.00000
  252    -18.07345    2.00000
  253    -18.07225    2.00000
  254    -18.07206    2.00000
  255    -18.07182    2.00000
  256    -18.07140    2.00000
  257    -18.07036    2.00000
  258    -18.07003    2.00000
  259    -18.06964    2.00000
  260    -18.06950    2.00000
  261    -18.06909    2.00000
  262    -18.06876    2.00000
  263    -18.06840    2.00000
  264    -18.06821    2.00000
  265    -18.06796    2.00000
  266    -18.06784    2.00000
  267    -18.06641    2.00000
  268    -18.06623    2.00000
  269    -18.06593    2.00000
  270    -18.06586    2.00000
  271    -18.06535    2.00000
  272    -18.06448    2.00000
  273    -18.06431    2.00000
  274    -18.06405    2.00000
  275    -18.06373    2.00000
  276    -18.06313    2.00000
  277    -18.06276    2.00000
  278    -18.06216    2.00000
  279    -18.06106    2.00000
  280    -18.06026    2.00000
  281    -18.05988    2.00000
  282    -18.05961    2.00000
  283    -18.05935    2.00000
  284    -18.05928    2.00000
  285    -18.05855    2.00000
  286    -18.05827    2.00000
  287    -18.05665    2.00000
  288    -18.05571    2.00000
  289    -18.05522    2.00000
  290    -18.05398    2.00000
  291    -18.05345    2.00000
  292     -4.54247    2.00000
  293     -4.19916    1.99999
  294     -4.18811    1.99999
  295     -4.14960    1.99998
  296     -3.85438    1.99989
  297     -3.85335    1.99989
  298     -3.81473    1.99986
  299     -3.79907    1.99984
  300     -3.53723    1.99909
  301     -3.52423    1.99901
  302     -3.51408    1.99894
  303     -3.51334    1.99893
  304     -3.51148    1.99892
  305     -3.47248    1.99860
  306     -3.46443    1.99852
  307     -3.21641    1.99230
  308     -3.19308    1.99101
  309     -3.18905    1.99077
  310     -3.17347    1.98976
  311     -3.14700    1.98780
  312     -3.14120    1.98732
  313     -3.13647    1.98692
  314     -3.13227    1.98655
  315     -2.88138    1.93038
  316     -2.84656    1.91298
  317     -2.82017    1.89710
  318     -2.81858    1.89606
  319     -2.72529    1.81472
  320     -2.56717    1.54682
  321     -2.54889    1.50269
  322     -2.54562    1.49450
  323     -2.54504    1.49304
  324     -2.54384    1.49002
  325     -2.53384    1.46427
  326     -2.52367    1.43726
  327     -2.51725    1.41979
  328     -2.41828    1.11701
  329     -2.35797    0.91669
  330     -2.22611    0.51997
  331     -2.21337    0.48795
  332     -2.18917    0.43091
  333     -2.18799    0.42827
  334     -2.18676    0.42552
  335     -2.18420    0.41981
  336     -2.10488    0.27075
  337     -2.04606    0.19132
  338     -1.94793    0.10425
  339     -1.94738    0.10389
  340     -1.91806    0.08623
  341     -1.75438    0.02981
  342     -1.75181    0.02931
  343     -1.73624    0.02646
  344     -1.71188    0.02254
  345     -1.67213    0.01734
  346     -1.65459    0.01544
  347     -1.65150    0.01513
  348     -1.64537    0.01453
  349     -1.64456    0.01445
  350     -1.62639    0.01281
  351     -1.62130    0.01239
  352     -1.61217    0.01166
  353     -1.61002    0.01149
  354     -1.60246    0.01093
  355     -1.58886    0.00999
  356     -1.58858    0.00997
  357     -1.58297    0.00961
  358     -1.53037    0.00677
  359     -1.41531    0.00315
  360     -1.41109    0.00306
  361     -1.37111    0.00235
  362     -1.34402    0.00196
  363     -1.30995    0.00156
  364     -1.27196    0.00121

Fermi level: -2.38302

Gap: 0.060 eV
Transition (v -> c):
  (s=0, k=0, n=328, [0.00, 0.00, 0.00]) -> (s=0, k=0, n=329, [0.00, 0.00, 0.00])
No difference between direct/indirect transitions

Forces in eV/Ang:
  0 K     0.00028    0.00007   -0.02446
  1 K    -0.00583    0.00427   -0.02737
  2 K     0.00370   -0.00116   -0.01151
  3 K    -0.00562    0.00393   -0.01667
  4 K     0.00566   -0.00017    0.02014
  5 K     0.00712   -0.00306    0.02238
  6 K    -0.04945   -0.02452   -0.07182
  7 K     0.02392   -0.00556    0.03471
  8 K    -0.00138   -0.00077   -0.02457
  9 K     0.00314   -0.00063   -0.01995
 10 K    -0.01140    0.01660   -0.05359
 11 K     0.00070   -0.00051    0.00553
 12 K    -0.01348    0.00075    0.02549
 13 K     0.00102   -0.00072    0.02420
 14 K    -0.00435   -0.01806    0.03250
 15 K     0.00670   -0.00041    0.02872
 16 K    -0.00191    0.00069   -0.02409
 17 K    -0.00589   -0.00362   -0.02705
 18 K    -0.01000   -0.01512   -0.04893
 19 K    -0.00503   -0.00351   -0.01583
 20 K    -0.01319   -0.00076    0.02678
 21 K    -0.00083    0.00573    0.02100
 22 K     0.00484    0.00809    0.02111
 23 K     0.01975    0.00764    0.03012
 24 K    -0.00403    0.00008   -0.02291
 25 K     0.00019    0.00042   -0.02572
 26 K     0.00261   -0.00095   -0.00206
 27 K     0.01590    0.01442   -0.02381
 28 K    -0.00979    0.00181    0.02573
 29 K    -0.00209   -0.00131    0.02203
 30 K     0.00116   -0.00332    0.02844
 31 K     0.00850    0.00331    0.05290
 32 K     0.00701   -0.00695   -0.02775
 33 K     0.00252    0.00027   -0.02495
 34 K     0.00141   -0.00009   -0.00560
 35 K    -0.00580    0.00554   -0.00421
 36 K     0.01056   -0.01047    0.03051
 37 K    -0.00045    0.00072    0.01570
 38 K    -0.00256   -0.00017    0.02548
 39 K    -0.00728   -0.00052    0.02673
 40 K     0.00763    0.00685   -0.02780
 41 K     0.00061   -0.00070   -0.02596
 42 K     0.00030    0.00112   -0.00231
 43 K     0.01565   -0.02049   -0.02966
 44 K     0.01097   -0.00385    0.02457
 45 K     0.00718   -0.00013    0.01770
 46 K    -0.00673    0.00132    0.01979
 47 K    -0.00272    0.00770    0.03811
 48 K     0.00388   -0.00041   -0.02306
 49 K     0.00548    0.00634   -0.03033
 50 K    -0.00576    0.00008   -0.00084
 51 K    -0.01016    0.01179   -0.00871
 52 K     0.00277   -0.00026    0.01104
 53 K    -0.00455   -0.00301    0.01472
 54 K     0.00230   -0.00006    0.01975
 55 K    -0.00032   -0.00095    0.02633
 56 K    -0.00523   -0.00332   -0.03220
 57 K    -0.00627    0.00021   -0.02529
 58 K     0.01014   -0.01148   -0.00854
 59 K     0.00496    0.00008    0.00100
 60 K     0.00359    0.00423    0.01152
 61 K    -0.00318    0.00024    0.01299
 62 K     0.00583   -0.00300    0.02655
 63 K     0.00013   -0.00128    0.01856
 64 K    -0.00521    0.00374   -0.03293
 65 K     0.00503   -0.00654   -0.03056
 66 K     0.00979    0.01142   -0.00867
 67 K    -0.01049   -0.01188   -0.00871
 68 K     0.00329   -0.00431    0.01131
 69 K    -0.00424    0.00278    0.01482
 70 K     0.00618    0.00325    0.02649
 71 K    -0.00152    0.00193    0.02729
 72 K     0.02137    0.01851    0.08063

System changes: positions 

Initializing position-dependent things.

Density initialized from wave functions
           .------------------------------------------------------.  
          /|                                                      |  
         / |                                                      |  
        /  |                                                      |  
       /   |                                                      |  
      /    |                                                      |  
     /     |                                                      |  
    /      |                                                      |  
   /       |                                                      |  
  /        |                                                      |  
 *         |                                                      |  
 |         |                                                      |  
 |         |                                                      |  
[...]

Converged after 4 iterations.

Dipole moment: (-92.162010, -77.373043, 0.439644) |e|*Ang

Energy contributions relative to reference atoms: (reference = -1195904.484944)

Kinetic:       +121.856347
Potential:     -104.816431
External:        +0.000000
XC:             -78.941649
Entropy (-ST):   -3.799059
Local:           +2.320607
SIC:             +0.000000
--------------------------
Free energy:    -63.380185
Extrapolated:   -61.480655

 Band  Eigenvalues  Occupancy
    0    -35.26099    2.00000
    1    -34.76684    2.00000
    2    -34.76378    2.00000
    3    -34.76326    2.00000
    4    -34.75960    2.00000
    5    -34.75943    2.00000
    6    -34.75894    2.00000
    7    -34.75846    2.00000
    8    -34.75758    2.00000
    9    -34.75640    2.00000
   10    -34.75597    2.00000
   11    -34.75548    2.00000
   12    -34.75520    2.00000
   13    -34.75456    2.00000
   14    -34.75451    2.00000
   15    -34.75404    2.00000
   16    -34.75368    2.00000
   17    -34.75333    2.00000
   18    -34.75317    2.00000
   19    -34.75269    2.00000
   20    -34.75244    2.00000
   21    -34.75224    2.00000
   22    -34.75196    2.00000
   23    -34.75194    2.00000
   24    -34.75162    2.00000
   25    -34.75126    2.00000
   26    -34.75093    2.00000
   27    -34.75077    2.00000
   28    -34.74963    2.00000
   29    -34.74879    2.00000
   30    -34.74629    2.00000
   31    -34.74546    2.00000
   32    -34.74319    2.00000
   33    -34.74246    2.00000
   34    -34.72709    2.00000
   35    -34.69101    2.00000
   36    -34.65428    2.00000
   37    -34.61075    2.00000
   38    -34.60738    2.00000
   39    -34.60645    2.00000
   40    -34.60618    2.00000
   41    -34.60564    2.00000
   42    -34.60382    2.00000
   43    -34.60317    2.00000
   44    -34.60291    2.00000
   45    -34.60235    2.00000
   46    -34.60234    2.00000
   47    -34.60162    2.00000
   48    -34.60131    2.00000
   49    -34.60099    2.00000
   50    -34.60091    2.00000
   51    -34.60025    2.00000
   52    -34.60002    2.00000
   53    -34.59922    2.00000
   54    -34.59883    2.00000
   55    -34.59806    2.00000
   56    -34.59756    2.00000
   57    -34.59669    2.00000
   58    -34.59598    2.00000
   59    -34.59576    2.00000
   60    -34.59528    2.00000
   61    -34.59504    2.00000
   62    -34.59470    2.00000
   63    -34.59442    2.00000
   64    -34.59391    2.00000
   65    -34.59355    2.00000
   66    -34.59311    2.00000
   67    -34.59296    2.00000
   68    -34.59227    2.00000
   69    -34.59155    2.00000
   70    -34.59108    2.00000
   71    -34.58406    2.00000
   72    -34.58127    2.00000
   73    -18.76570    2.00000
   74    -18.72598    2.00000
   75    -18.72187    2.00000
   76    -18.27102    2.00000
   77    -18.26820    2.00000
   78    -18.26284    2.00000
   79    -18.26238    2.00000
   80    -18.26208    2.00000
   81    -18.26131    2.00000
   82    -18.26030    2.00000
   83    -18.26015    2.00000
   84    -18.25924    2.00000
   85    -18.25826    2.00000
   86    -18.25757    2.00000
   87    -18.25734    2.00000
   88    -18.25681    2.00000
   89    -18.25667    2.00000
   90    -18.25653    2.00000
   91    -18.25584    2.00000
   92    -18.25556    2.00000
   93    -18.25547    2.00000
   94    -18.25523    2.00000
   95    -18.25458    2.00000
   96    -18.25425    2.00000
   97    -18.25361    2.00000
   98    -18.25346    2.00000
   99    -18.25333    2.00000
  100    -18.25304    2.00000
  101    -18.25241    2.00000
  102    -18.25198    2.00000
  103    -18.25186    2.00000
  104    -18.25166    2.00000
  105    -18.25132    2.00000
  106    -18.25121    2.00000
  107    -18.25061    2.00000
  108    -18.25039    2.00000
  109    -18.25022    2.00000
  110    -18.25016    2.00000
  111    -18.24931    2.00000
  112    -18.24884    2.00000
  113    -18.24864    2.00000
  114    -18.24859    2.00000
  115    -18.24819    2.00000
  116    -18.24811    2.00000
  117    -18.24787    2.00000
  118    -18.24775    2.00000
  119    -18.24768    2.00000
  120    -18.24718    2.00000
  121    -18.24699    2.00000
  122    -18.24642    2.00000
  123    -18.24620    2.00000
  124    -18.24577    2.00000
  125    -18.24544    2.00000
  126    -18.24509    2.00000
  127    -18.24444    2.00000
  128    -18.24423    2.00000
  129    -18.24221    2.00000
  130    -18.24203    2.00000
  131    -18.24167    2.00000
  132    -18.24005    2.00000
  133    -18.23925    2.00000
  134    -18.23789    2.00000
  135    -18.23634    2.00000
  136    -18.23499    2.00000
  137    -18.23484    2.00000
  138    -18.23427    2.00000
  139    -18.23229    2.00000
  140    -18.23005    2.00000
  141    -18.22826    2.00000
  142    -18.22795    2.00000
  143    -18.22780    2.00000
  144    -18.22670    2.00000
  145    -18.22612    2.00000
  146    -18.22546    2.00000
  147    -18.22531    2.00000
  148    -18.22436    2.00000
  149    -18.22366    2.00000
  150    -18.22283    2.00000
  151    -18.22182    2.00000
  152    -18.22071    2.00000
  153    -18.22061    2.00000
  154    -18.21983    2.00000
  155    -18.21891    2.00000
  156    -18.21875    2.00000
  157    -18.21868    2.00000
  158    -18.21762    2.00000
  159    -18.21732    2.00000
  160    -18.21704    2.00000
  161    -18.21665    2.00000
  162    -18.21536    2.00000
  163    -18.21462    2.00000
  164    -18.21433    2.00000
  165    -18.21406    2.00000
  166    -18.21403    2.00000
  167    -18.21174    2.00000
  168    -18.20997    2.00000
  169    -18.20988    2.00000
  170    -18.20920    2.00000
  171    -18.20665    2.00000
  172    -18.20630    2.00000
  173    -18.20547    2.00000
  174    -18.20485    2.00000
  175    -18.20311    2.00000
  176    -18.20289    2.00000
  177    -18.19790    2.00000
  178    -18.18803    2.00000
  179    -18.17557    2.00000
  180    -18.17136    2.00000
  181    -18.16742    2.00000
  182    -18.14788    2.00000
  183    -18.13157    2.00000
  184    -18.12522    2.00000
  185    -18.12261    2.00000
  186    -18.12047    2.00000
  187    -18.11884    2.00000
  188    -18.11806    2.00000
  189    -18.11753    2.00000
  190    -18.11730    2.00000
  191    -18.11700    2.00000
  192    -18.11563    2.00000
  193    -18.11322    2.00000
  194    -18.11294    2.00000
  195    -18.11270    2.00000
  196    -18.11192    2.00000
  197    -18.11025    2.00000
  198    -18.10993    2.00000
  199    -18.10951    2.00000
  200    -18.10897    2.00000
  201    -18.10720    2.00000
  202    -18.10688    2.00000
  203    -18.10633    2.00000
  204    -18.10597    2.00000
  205    -18.10566    2.00000
  206    -18.10555    2.00000
  207    -18.10525    2.00000
  208    -18.10350    2.00000
  209    -18.10332    2.00000
  210    -18.10075    2.00000
  211    -18.10073    2.00000
  212    -18.10024    2.00000
  213    -18.09979    2.00000
  214    -18.09942    2.00000
  215    -18.09874    2.00000
  216    -18.09832    2.00000
  217    -18.09797    2.00000
  218    -18.09754    2.00000
  219    -18.09724    2.00000
  220    -18.09434    2.00000
  221    -18.09421    2.00000
  222    -18.09364    2.00000
  223    -18.09225    2.00000
  224    -18.09144    2.00000
  225    -18.09021    2.00000
  226    -18.08948    2.00000
  227    -18.08776    2.00000
  228    -18.08655    2.00000
  229    -18.08563    2.00000
  230    -18.08539    2.00000
  231    -18.08454    2.00000
  232    -18.08405    2.00000
  233    -18.08359    2.00000
  234    -18.08315    2.00000
  235    -18.08286    2.00000
  236    -18.08256    2.00000
  237    -18.08221    2.00000
  238    -18.08193    2.00000
  239    -18.07989    2.00000
  240    -18.07955    2.00000
  241    -18.07894    2.00000
  242    -18.07813    2.00000
  243    -18.07760    2.00000
  244    -18.07659    2.00000
  245    -18.07594    2.00000
  246    -18.07525    2.00000
  247    -18.07485    2.00000
  248    -18.07458    2.00000
  249    -18.07430    2.00000
  250    -18.07400    2.00000
  251    -18.07388    2.00000
  252    -18.07355    2.00000
  253    -18.07235    2.00000
  254    -18.07220    2.00000
  255    -18.07194    2.00000
  256    -18.07157    2.00000
  257    -18.07049    2.00000
  258    -18.07015    2.00000
  259    -18.06979    2.00000
  260    -18.06955    2.00000
  261    -18.06918    2.00000
  262    -18.06889    2.00000
  263    -18.06855    2.00000
  264    -18.06833    2.00000
  265    -18.06810    2.00000
  266    -18.06790    2.00000
  267    -18.06656    2.00000
  268    -18.06635    2.00000
  269    -18.06608    2.00000
  270    -18.06596    2.00000
  271    -18.06549    2.00000
  272    -18.06463    2.00000
  273    -18.06446    2.00000
  274    -18.06420    2.00000
  275    -18.06388    2.00000
  276    -18.06324    2.00000
  277    -18.06287    2.00000
  278    -18.06232    2.00000
  279    -18.06118    2.00000
  280    -18.06034    2.00000
  281    -18.05992    2.00000
  282    -18.05966    2.00000
  283    -18.05941    2.00000
  284    -18.05932    2.00000
  285    -18.05863    2.00000
  286    -18.05834    2.00000
  287    -18.05670    2.00000
  288    -18.05572    2.00000
  289    -18.05518    2.00000
  290    -18.05410    2.00000
  291    -18.05347    2.00000
  292     -4.54205    2.00000
  293     -4.19878    1.99999
  294     -4.18766    1.99999
  295     -4.14940    1.99998
  296     -3.85400    1.99989
  297     -3.85293    1.99989
  298     -3.81443    1.99986
  299     -3.79890    1.99984
  300     -3.53672    1.99909
  301     -3.52381    1.99901
  302     -3.51378    1.99894
  303     -3.51305    1.99893
  304     -3.51107    1.99892
  305     -3.47228    1.99860
  306     -3.46425    1.99852
  307     -3.21597    1.99229
  308     -3.19272    1.99100
  309     -3.18864    1.99075
  310     -3.17332    1.98976
  311     -3.14680    1.98780
  312     -3.14101    1.98732
  313     -3.13629    1.98692
  314     -3.13209    1.98655
  315     -2.88106    1.93031
  316     -2.84638    1.91298
  317     -2.82001    1.89711
  318     -2.81838    1.89604
  319     -2.72539    1.81502
  320     -2.56695    1.54671
  321     -2.54847    1.50206
  322     -2.54517    1.49379
  323     -2.54470    1.49261
  324     -2.54349    1.48956
  325     -2.53364    1.46419
  326     -2.52349    1.43723
  327     -2.51713    1.41993
  328     -2.41834    1.11775
  329     -2.35805    0.91754
  330     -2.22602    0.52016
  331     -2.21314    0.48781
  332     -2.18897    0.43086
  333     -2.18781    0.42824
  334     -2.18653    0.42539
  335     -2.18404    0.41985
  336     -2.10503    0.27125
  337     -2.04610    0.19156
  338     -1.94750    0.10408
  339     -1.94699    0.10374
  340     -1.91827    0.08644
  341     -1.75431    0.02983
  342     -1.75187    0.02936
  343     -1.73624    0.02649
  344     -1.71197    0.02258
  345     -1.67172    0.01731
  346     -1.65422    0.01542
  347     -1.65119    0.01511
  348     -1.64494    0.01450
  349     -1.64414    0.01442
  350     -1.62644    0.01283
  351     -1.62104    0.01238
  352     -1.61196    0.01166
  353     -1.60975    0.01149
  354     -1.60229    0.01093
  355     -1.58880    0.01000
  356     -1.58840    0.00997
  357     -1.58285    0.00961
  358     -1.53053    0.00679
  359     -1.41548    0.00316
  360     -1.41109    0.00307
  361     -1.37091    0.00235
  362     -1.34427    0.00197
  363     -1.31005    0.00157
  364     -1.27182    0.00121

Fermi level: -2.38285

Gap: 0.060 eV
Transition (v -> c):
  (s=0, k=0, n=328, [0.00, 0.00, 0.00]) -> (s=0, k=0, n=329, [0.00, 0.00, 0.00])
No difference between direct/indirect transitions

Forces in eV/Ang:
  0 K     0.00015    0.00009   -0.02431
  1 K    -0.00586    0.00413   -0.02715
  2 K     0.00367   -0.00110   -0.01086
  3 K    -0.00561    0.00397   -0.01602
  4 K     0.00495   -0.00003    0.01971
  5 K     0.00670   -0.00139    0.02094
  6 K    -0.04219   -0.02341   -0.06386
  7 K     0.02364   -0.00525    0.03431
  8 K    -0.00165   -0.00084   -0.02437
  9 K     0.00307   -0.00066   -0.01965
 10 K    -0.01141    0.01643   -0.05265
 11 K     0.00067   -0.00050    0.00613
 12 K    -0.01283    0.00025    0.02488
 13 K     0.00087   -0.00101    0.02402
 14 K    -0.00363   -0.01699    0.03381
 15 K     0.00687   -0.00025    0.02946
 16 K    -0.00222    0.00073   -0.02390
 17 K    -0.00593   -0.00345   -0.02682
 18 K    -0.01004   -0.01499   -0.04801
 19 K    -0.00507   -0.00355   -0.01520
 20 K    -0.01268   -0.00025    0.02585
 21 K    -0.00059    0.00360    0.01821
 22 K     0.00480    0.00772    0.02053
 23 K     0.01929    0.00691    0.02998
 24 K    -0.00387    0.00011   -0.02273
 25 K     0.00030    0.00039   -0.02561
 26 K     0.00259   -0.00089   -0.00153
 27 K     0.01599    0.01438   -0.02319
 28 K    -0.00803    0.00168    0.02614
 29 K    -0.00161   -0.00150    0.02052
 30 K     0.00113   -0.00341    0.02846
 31 K     0.00547    0.00083    0.05012
 32 K     0.00724   -0.00708   -0.02750
 33 K     0.00280    0.00030   -0.02488
 34 K     0.00140   -0.00022   -0.00517
 35 K    -0.00574    0.00531   -0.00334
 36 K     0.01006   -0.00971    0.03037
 37 K    -0.00011    0.00040    0.01505
 38 K    -0.00269    0.00019    0.02514
 39 K    -0.00739   -0.00034    0.02734
 40 K     0.00790    0.00695   -0.02754
 41 K     0.00077   -0.00070   -0.02586
 42 K     0.00031    0.00118   -0.00205
 43 K     0.01574   -0.02040   -0.02881
 44 K     0.01032   -0.00325    0.02459
 45 K     0.00679    0.00027    0.01763
 46 K    -0.00710    0.00135    0.02161
 47 K    -0.00316    0.00817    0.03773
 48 K     0.00385   -0.00045   -0.02302
 49 K     0.00541    0.00639   -0.03028
 50 K    -0.00577    0.00011   -0.00055
 51 K    -0.01023    0.01169   -0.00839
 52 K     0.00230   -0.00015    0.01083
 53 K    -0.00435   -0.00308    0.01471
 54 K     0.00266   -0.00001    0.02111
 55 K    -0.00059   -0.00063    0.02602
 56 K    -0.00519   -0.00320   -0.03229
 57 K    -0.00647    0.00023   -0.02533
 58 K     0.01018   -0.01159   -0.00833
 59 K     0.00490    0.00006    0.00092
 60 K     0.00321    0.00358    0.01165
 61 K    -0.00284    0.00020    0.01248
 62 K     0.00644   -0.00329    0.02660
 63 K     0.00021   -0.00125    0.01978
 64 K    -0.00517    0.00366   -0.03306
 65 K     0.00491   -0.00662   -0.03054
 66 K     0.00984    0.01150   -0.00851
 67 K    -0.01052   -0.01176   -0.00851
 68 K     0.00312   -0.00383    0.01153
 69 K    -0.00406    0.00293    0.01477
 70 K     0.00667    0.00350    0.02659
 71 K    -0.00168    0.00138    0.02697
 72 K     0.01603    0.01977    0.07348

Timing:                                       incl.     excl.
--------------------------------------------------------------------
Basic WFS set positions:                      0.151     0.018   0.0% |
 Redistribute:                                0.134     0.134   0.0% |
Basis functions set positions:                9.489     9.489   0.1% |
Forces:                                     738.771     4.406   0.0% |
 LCAO forces:                               734.365     0.385   0.0% |
  Atomic Hamiltonian force:                   7.078     7.078   0.0% |
  Initial:                                    0.128     0.000   0.0% |
   Get density matrix:                        0.128     0.128   0.0% |
  Paw correction:                             6.460     6.460   0.0% |
  Potential:                                704.916   704.916   4.3% |-|
  TCI derivative:                            15.398    15.398   0.1% |
  Wait for sum:                               0.000     0.000   0.0% |
LCAO WFS Initialize:                        174.097     0.742   0.0% |
 Density initialized from wave functions:   136.543    11.917   0.1% |
  Calculate density matrix:                   1.552     1.552   0.0% |
  Construct density:                        123.072   123.072   0.8% |
  Symmetrize density:                         0.002     0.002   0.0% |
 Hamiltonian:                                36.812     0.004   0.0% |
  Atomic:                                     8.865     0.033   0.0% |
   XC Correction:                             8.832     8.832   0.1% |
  Calculate atomic Hamiltonians:              0.982     0.982   0.0% |
  Communicate:                                0.000     0.000   0.0% |
  Hartree integrate/restrict:                 1.360     1.360   0.0% |
  Initialize Hamiltonian:                     0.000     0.000   0.0% |
  Poisson:                                   14.465     7.551   0.0% |
   Communicate from 1D:                       1.053     1.053   0.0% |
   Communicate from 2D:                       0.556     0.556   0.0% |
   Communicate to 1D:                         0.407     0.407   0.0% |
   Communicate to 2D:                         1.420     1.420   0.0% |
   FFT 1D:                                    1.875     1.875   0.0% |
   FFT 2D:                                    1.602     1.602   0.0% |
  XC 3D grid:                                 9.068     9.068   0.1% |
  vbar:                                       2.068     2.068   0.0% |
P tci:                                        6.560     6.560   0.0% |
Redistribute:                                 0.002     0.002   0.0% |
SCF-cycle:                                 1841.910     0.080   0.0% |
 Density:                                   731.749     0.001   0.0% |
  Atomic density matrices:                    0.226     0.226   0.0% |
  Mix:                                       12.695    12.695   0.1% |
  Multipole moments:                          0.033     0.033   0.0% |
  Normalize:                                  0.025     0.025   0.0% |
  Pseudo density:                           718.770     0.325   0.0% |
   Calculate density matrix:                  0.325     0.325   0.0% |
   Construct density:                       718.114   718.114   4.4% |-|
   Symmetrize density:                        0.005     0.005   0.0% |
 Hamiltonian:                               136.566     0.023   0.0% |
  Atomic:                                    36.778     0.102   0.0% |
   XC Correction:                            36.676    36.676   0.2% |
  Calculate atomic Hamiltonians:              1.791     1.791   0.0% |
  Communicate:                                0.001     0.001   0.0% |
  Hartree integrate/restrict:                 1.680     1.680   0.0% |
  Poisson:                                   41.535     4.573   0.0% |
   Communicate from 1D:                       5.243     5.243   0.0% |
   Communicate from 2D:                       2.928     2.928   0.0% |
   Communicate to 1D:                         2.111     2.111   0.0% |
   Communicate to 2D:                         6.369     6.369   0.0% |
   FFT 1D:                                    8.977     8.977   0.1% |
   FFT 2D:                                   11.335    11.335   0.1% |
  XC 3D grid:                                51.947    51.947   0.3% |
  vbar:                                       2.811     2.811   0.0% |
 LCAO eigensolver:                          973.515     0.200   0.0% |
  Calculate projections:                      0.545     0.545   0.0% |
  DenseAtomicCorrection:                      8.164     8.164   0.1% |
  Distribute overlap matrix:                  0.003     0.003   0.0% |
  Orbital Layouts:                           15.989    15.989   0.1% |
  Potential matrix:                         948.613   948.613   5.8% |-|
ST tci:                                       8.241     8.241   0.1% |
Set symmetry:                                 0.001     0.001   0.0% |
TCI: Evaluate splines:                        0.066     0.066   0.0% |
mktci:                                        0.259     0.259   0.0% |
Other:                                    13527.232 13527.232  83.0% |--------------------------------|
--------------------------------------------------------------------
Total:                                              16306.779 100.0%

Memory usage: 3.67 GiB
Date: Wed Nov 26 03:07:07 2025
