
  ___ ___ ___ _ _ _  
 |   |   |_  | | | | 
 | | | | | . | | | | 
 |__ |  _|___|_____|  25.7.0
 |___|_|             

User:   tew@Mathuss-MacBook-Air-357.local
Date:   Tue Nov 25 22:35:20 2025
Arch:   arm64
Pid:    88448
CWD:    /Users/tew/Documents/Project/GitHub/chem-com
Python: 3.13.5
gpaw:   /Users/tew/Documents/Project/GitHub/chem-com/.venv/lib/python3.13/site-packages/gpaw
_gpaw:  /Users/tew/Documents/Project/GitHub/chem-com/.venv/lib/python3.13/site-packages/
        _gpaw.cpython-313-darwin.so
ase:    /Users/tew/Documents/Project/GitHub/chem-com/.venv/lib/python3.13/site-packages/ase (version 3.26.0)
numpy:  /Users/tew/Documents/Project/GitHub/chem-com/.venv/lib/python3.13/site-packages/numpy (version 2.3.5)
scipy:  /Users/tew/Documents/Project/GitHub/chem-com/.venv/lib/python3.13/site-packages/scipy (version 1.16.3)
libxc:  2.x.y
units:  Angstrom and eV
cores: 1
OpenMP: False
OMP_NUM_THREADS: 1

Input parameters:
  basis: dzp
  convergence: {density: 0.0001,
                eigenstates: 5e-06}
  kpts: [1 1 1]
  mode: {interpolation: 3,
         name: lcao}
  occupations: {fixmagmom: False,
                name: fermi-dirac,
                width: 0.15}
  xc: PBE

System changes: positions, numbers, cell, pbc, initial_charges, initial_magmoms 

Initialize ...

species:
  K:
    name: Potassium
    id: 04190408da443a44668134082ce1c192
    Z: 19.0
    valence: 9
    core: 10
    charge: 0.0
    file: /Users/tew/Documents/Project/GitHub/chem-com/.venv/lib/python3.13/site-packages/gpaw_data/setups/K.PBE.gz
    compensation charges: {type: gauss,
                           rc: 0.35,
                           lmax: 2}
    cutoffs: {filter: 1.91,
              core: 1.27}
    projectors:
      #              energy  rcut
      - 3s(2.00)   -35.338   1.122
      - 4s(1.00)    -2.319   1.122
      - 3p(6.00)   -18.813   1.106
      -  p           8.398   1.106
      -  d           0.000   0.937
  
    # LCAO basis set for K:
    #   Name: dzp
    #   File: /Users/tew/Documents/Project/GitHub/chem-com/.venv/lib/python3.13/site-packages/gpaw_data/setups/K.dzp.basis.gz
    #   Number of radial functions: 9
    #   Number of spherical harmonics: 19
    #     l=0, rc=4.2656 Bohr: 3s-sz confined orbital
    #     l=0, rc=13.1094 Bohr: 4s-sz confined orbital
    #     l=1, rc=5.0312 Bohr: 3p-sz confined orbital
    #     l=1, rc=16.0000 Bohr: 4p-sz confined orbital
    #     l=0, rc=2.3594 Bohr: 3s-dz split-valence wave
    #     l=0, rc=8.1719 Bohr: 4s-dz split-valence wave
    #     l=1, rc=2.8906 Bohr: 3p-dz split-valence wave
    #     l=1, rc=10.2812 Bohr: 4p-dz split-valence wave
    #     l=1, rc=13.1094 Bohr: p-type Gaussian polarization
    #   Number of RI-basis functions 0

Reference energy: -1195904.484944  # eV

Spin-paired calculation

Convergence criteria:
 Maximum [total energy] change in last 3 cyles: 0.0005 eV / valence electron
 Maximum integral of absolute [dens]ity change: 0.0001 electrons / valence electron
 Maximum integral of absolute [eigenst]ate change: 5e-06 eV^2 / valence electron
 Maximum number of scf [iter]ations: 333
 (Square brackets indicate name in SCF output, whereas a 'c' in
 the SCF output indicates the quantity has converged.)

Symmetries present (total): 1

  ( 1  0  0)
  ( 0  1  0)
  ( 0  0  1)

1 k-point (Gamma)
1 k-point in the irreducible part of the Brillouin zone
       k-points in crystal coordinates                weights
   0:     0.00000000    0.00000000    0.00000000          1/1

Wave functions: LCAO
  Diagonalizer: Serial LAPACK
  Atomic Correction: dense with blas
  Data-type: float
 

Occupation numbers: Fermi-Dirac:
  width: 0.1500  # eV
 

Eigensolver
   LCAO using direct dense diagonalizer 

Densities:
  Coarse grid: 112*80*156 grid
  Fine grid: 224*160*312 grid
  Total Charge: 0.000000 

Density mixing:
  Method: separate
  Backend: pulay
  Linear mixing parameter: 0.05
  old densities: 5
  Damping of long wavelength oscillations: 50 

Hamiltonian:
  XC and Coulomb potentials evaluated on a 224*160*312 grid
  Using the PBE Exchange-Correlation functional
  Interpolation: tri-quintic (5. degree polynomial)
  Poisson solver: FastPoissonSolver using
    Stencil: 6*3+1=19 point O(h^6) finite-difference Laplacian
    FFT axes: [np.int64(0), np.int64(1)]
    FST axes: [np.int64(2)]
 

XC parameters: PBE with 2 nearest neighbor stencil

Memory estimate:
  Process memory now: 3762.67 MiB
  Calculator: 2004.64 MiB
    Density: 627.85 MiB
      Arrays: 276.31 MiB
      Localized functions: 245.59 MiB
      Mixer: 105.96 MiB
    Hamiltonian: 197.33 MiB
      Arrays: 180.67 MiB
      XC: 0.00 MiB
      Poisson: 0.00 MiB
      vbar: 16.66 MiB
    Wavefunctions: 1179.45 MiB
      C [qnM]: 3.86 MiB
      S, T [2 x qmm]: 29.35 MiB
      P [aqMi]: 1.26 MiB
      BasisFunctions: 1144.98 MiB
      Eigensolver: 0.00 MiB

Total number of cores used: 1

Number of atoms: 73
Number of atomic orbitals: 1387
Number of bands in calculation: 365
Number of valence electrons: 657
Bands to converge: occupied

... initialized

Initializing position-dependent things.

Density initialized from atomic densities
           .------------------------------------------------------.  
          /|                                                      |  
         / |                                                      |  
        /  |                                                      |  
       /   |                                                      |  
      /    |                                                      |  
     /     |                                                      |  
    /      |                                                      |  
   /       |                                                      |  
  /        |                                                      |  
 *         |                                                      |  
 |         |                                                      |  
 |         |                                                      |  
 |         |                                                      |  
 |       K |                K                 K                   |  
 |         |     K                 K                  K           |  
 |         |                                                      |  
 |    K    |     K      K    K             K    K                 K  
 |         |      K                  K                 K          |  
 |         |  K                 K                 K               |  
 | K       |              K            K    K                  K  |  
 |         |         K                                            |  
 |        K|   K            K     K            K    K             |  
 |       K |           K    K            K    K            K      |  
 |         |                                                      |  
 |         |K    K            K    K             K   K            |  
 |    K    |            K                  K                      |  
 |         |       K                 K                 K          |  
 |         | K                  K                 K               |  
 |      K  |              K                 K                     |  
 | K       |         K                 K                          |  
 |        K|   K             K   K             K    K             |  
 |  K      |           K                 K                        |  
 |         |                                                      |  
 |         |K                 K                  K                |  
 |         |                                                      |  
 K         |       K                  K                           |  
 |         |                                                      |  
 |         .------------------------------------------------------.  
 |        /                                                      /   
 |       /                                                      /    
 |      /                                                      /     
 |     /                                                      /      
 |    /                                                      /       
 |   /                                                      /        
 |  /                                                      /         
 | /                                                      /          
 |/                                                      /           
 *------------------------------------------------------*            

Atomic positions and initial magnetic moments

Positions:
   0 K      0.000000    0.000000   10.000000    ( 0.0000,  0.0000,  0.0000)
   1 K      3.698168    2.615000   10.000000    ( 0.0000,  0.0000,  0.0000)
   2 K      3.698168    0.000000   13.698168    ( 0.0000,  0.0000,  0.0000)
   3 K      0.000000    2.615000   13.698168    ( 0.0000,  0.0000,  0.0000)
   4 K     -0.015375   -0.002355   17.391641    ( 0.0000,  0.0000,  0.0000)
   5 K      3.660896    2.680021   17.313902    ( 0.0000,  0.0000,  0.0000)
   6 K      3.750696    0.039647   20.936061    ( 0.0000,  0.0000,  0.0000)
   7 K      0.017190    2.597578   21.194684    ( 0.0000,  0.0000,  0.0000)
   8 K      0.000000    5.230000   10.000000    ( 0.0000,  0.0000,  0.0000)
   9 K      3.698168    7.845000   10.000000    ( 0.0000,  0.0000,  0.0000)
  10 K      3.698168    5.230000   13.698168    ( 0.0000,  0.0000,  0.0000)
  11 K      0.000000    7.845000   13.698168    ( 0.0000,  0.0000,  0.0000)
  12 K     -0.004682    5.233667   17.416943    ( 0.0000,  0.0000,  0.0000)
  13 K      3.696581    7.839820   17.423249    ( 0.0000,  0.0000,  0.0000)
  14 K      3.743150    5.173397   21.230443    ( 0.0000,  0.0000,  0.0000)
  15 K      0.004888    7.840124   21.159567    ( 0.0000,  0.0000,  0.0000)
  16 K      0.000000   10.460000   10.000000    ( 0.0000,  0.0000,  0.0000)
  17 K      3.698168   13.075000   10.000000    ( 0.0000,  0.0000,  0.0000)
  18 K      3.698168   10.460000   13.698168    ( 0.0000,  0.0000,  0.0000)
  19 K      0.000000   13.075000   13.698168    ( 0.0000,  0.0000,  0.0000)
  20 K     -0.002289   10.458772   17.410813    ( 0.0000,  0.0000,  0.0000)
  21 K      3.676895   13.013478   17.358201    ( 0.0000,  0.0000,  0.0000)
  22 K      3.699295   10.473524   21.180496    ( 0.0000,  0.0000,  0.0000)
  23 K      0.018825   13.096322   21.194748    ( 0.0000,  0.0000,  0.0000)
  24 K      7.396337    0.000000   10.000000    ( 0.0000,  0.0000,  0.0000)
  25 K     11.094505    2.615000   10.000000    ( 0.0000,  0.0000,  0.0000)
  26 K     11.094505    0.000000   13.698168    ( 0.0000,  0.0000,  0.0000)
  27 K      7.396337    2.615000   13.698168    ( 0.0000,  0.0000,  0.0000)
  28 K      7.402127   -0.155627   17.234547    ( 0.0000,  0.0000,  0.0000)
  29 K     11.133877    2.613073   17.382158    ( 0.0000,  0.0000,  0.0000)
  30 K     11.049758    0.042661   21.214908    ( 0.0000,  0.0000,  0.0000)
  31 K      7.392473    2.609549   20.569003    ( 0.0000,  0.0000,  0.0000)
  32 K      7.396337    5.230000   10.000000    ( 0.0000,  0.0000,  0.0000)
  33 K     11.094505    7.845000   10.000000    ( 0.0000,  0.0000,  0.0000)
  34 K     11.094505    5.230000   13.698168    ( 0.0000,  0.0000,  0.0000)
  35 K      7.396337    7.845000   13.698168    ( 0.0000,  0.0000,  0.0000)
  36 K      7.401426    5.377122   17.247068    ( 0.0000,  0.0000,  0.0000)
  37 K     11.106410    7.841503   17.415221    ( 0.0000,  0.0000,  0.0000)
  38 K     11.052200    5.201375   21.217855    ( 0.0000,  0.0000,  0.0000)
  39 K      7.390394    7.805900   21.202726    ( 0.0000,  0.0000,  0.0000)
  40 K      7.396337   10.460000   10.000000    ( 0.0000,  0.0000,  0.0000)
  41 K     11.094505   13.075000   10.000000    ( 0.0000,  0.0000,  0.0000)
  42 K     11.094505   10.460000   13.698168    ( 0.0000,  0.0000,  0.0000)
  43 K      7.396337   13.075000   13.698168    ( 0.0000,  0.0000,  0.0000)
  44 K      7.407226   10.469908   17.431824    ( 0.0000,  0.0000,  0.0000)
  45 K     11.110537   13.081454   17.425045    ( 0.0000,  0.0000,  0.0000)
  46 K     11.090402   10.454454   21.174964    ( 0.0000,  0.0000,  0.0000)
  47 K      7.382560   13.123648   21.219556    ( 0.0000,  0.0000,  0.0000)
  48 K     14.792674    0.000000   10.000000    ( 0.0000,  0.0000,  0.0000)
  49 K     18.490842    2.615000   10.000000    ( 0.0000,  0.0000,  0.0000)
  50 K     18.490842    0.000000   13.698168    ( 0.0000,  0.0000,  0.0000)
  51 K     14.792674    2.615000   13.698168    ( 0.0000,  0.0000,  0.0000)
  52 K     14.806701   -0.003638   17.413749    ( 0.0000,  0.0000,  0.0000)
  53 K     18.498906    2.623816   17.421168    ( 0.0000,  0.0000,  0.0000)
  54 K     18.481081    0.000764   21.173033    ( 0.0000,  0.0000,  0.0000)
  55 K     14.786050    2.616242   21.164304    ( 0.0000,  0.0000,  0.0000)
  56 K     14.792674    5.230000   10.000000    ( 0.0000,  0.0000,  0.0000)
  57 K     18.490842    7.845000   10.000000    ( 0.0000,  0.0000,  0.0000)
  58 K     18.490842    5.230000   13.698168    ( 0.0000,  0.0000,  0.0000)
  59 K     14.792674    7.845000   13.698168    ( 0.0000,  0.0000,  0.0000)
  60 K     14.786824    5.223783   17.422662    ( 0.0000,  0.0000,  0.0000)
  61 K     18.480254    7.845969   17.405995    ( 0.0000,  0.0000,  0.0000)
  62 K     18.494125    5.227479   21.165707    ( 0.0000,  0.0000,  0.0000)
  63 K     14.797453    7.840141   21.170169    ( 0.0000,  0.0000,  0.0000)
  64 K     14.792674   10.460000   10.000000    ( 0.0000,  0.0000,  0.0000)
  65 K     18.490842   13.075000   10.000000    ( 0.0000,  0.0000,  0.0000)
  66 K     18.490842   10.460000   13.698168    ( 0.0000,  0.0000,  0.0000)
  67 K     14.792674   13.075000   13.698168    ( 0.0000,  0.0000,  0.0000)
  68 K     14.784679   10.468380   17.418038    ( 0.0000,  0.0000,  0.0000)
  69 K     18.499179   13.065567   17.417117    ( 0.0000,  0.0000,  0.0000)
  70 K     18.494625   10.462386   21.166502    ( 0.0000,  0.0000,  0.0000)
  71 K     14.783741   13.078140   21.164156    ( 0.0000,  0.0000,  0.0000)
  72 K      6.169515    1.748454   24.306902    ( 0.0000,  0.0000,  0.0000)

Unit cell:
           periodic     x           y           z      points  spacing
  1. axis:    yes   22.189011    0.000000    0.000000   112     0.1981
  2. axis:    yes    0.000000   15.690000    0.000000    80     0.1961
  3. axis:    no     0.000000    0.000000   31.094505   156     0.1993

  Lengths:  22.189011  15.690000  31.094505
  Angles:   90.000000  90.000000  90.000000

Effective grid spacing dv^(1/3) = 0.1979

     iter     time        total  log10-change:
                         energy   eigst   dens
iter:   1 23:39:55   -65.461176        c
iter:   2 23:40:38   -64.382760        c -1.50
iter:   3 23:41:19   -62.768786        c -1.57
iter:   4 23:41:59   -61.565444        c -1.74
iter:   5 23:42:39   -61.552771        c -2.05
iter:   6 23:43:19   -61.532457c       c -2.12
iter:   7 23:44:01   -61.521803c       c -2.25
iter:   8 23:44:43   -61.516818c       c -2.47
iter:   9 23:45:24   -61.503325c       c -2.52
iter:  10 23:46:04   -61.499300c       c -2.75
iter:  11 23:46:44   -61.498370c       c -2.96
iter:  12 23:47:24   -61.498202c       c -3.26
iter:  13 23:48:02   -61.497791c       c -3.33
iter:  14 23:48:40   -61.497123c       c -3.35
iter:  15 23:49:18   -61.497010c       c -3.41
iter:  16 23:49:59   -61.497557c       c -3.53
iter:  17 23:50:39   -61.497926c       c -3.69
iter:  18 23:51:19   -61.497966c       c -3.77
iter:  19 23:51:59   -61.497908c       c -3.85
iter:  20 23:52:40   -61.497810c       c -3.93
iter:  21 23:53:20   -61.497818c       c -4.04c

Converged after 21 iterations.

Dipole moment: (-90.577586, -54.224505, 0.450141) |e|*Ang

Energy contributions relative to reference atoms: (reference = -1195904.484944)

Kinetic:       +125.149123
Potential:     -107.835859
External:        +0.000000
XC:             -79.114118
Entropy (-ST):   -3.801278
Local:           +2.203676
SIC:             +0.000000
--------------------------
Free energy:    -63.398457
Extrapolated:   -61.497818

 Band  Eigenvalues  Occupancy
    0    -35.24083    2.00000
    1    -34.76915    2.00000
    2    -34.76679    2.00000
    3    -34.76648    2.00000
    4    -34.76330    2.00000
    5    -34.76041    2.00000
    6    -34.75842    2.00000
    7    -34.75754    2.00000
    8    -34.75739    2.00000
    9    -34.75613    2.00000
   10    -34.75461    2.00000
   11    -34.75405    2.00000
   12    -34.75374    2.00000
   13    -34.75330    2.00000
   14    -34.75245    2.00000
   15    -34.75185    2.00000
   16    -34.75176    2.00000
   17    -34.75155    2.00000
   18    -34.75115    2.00000
   19    -34.75091    2.00000
   20    -34.75068    2.00000
   21    -34.75058    2.00000
   22    -34.75037    2.00000
   23    -34.75010    2.00000
   24    -34.74979    2.00000
   25    -34.74958    2.00000
   26    -34.74947    2.00000
   27    -34.74923    2.00000
   28    -34.74795    2.00000
   29    -34.74746    2.00000
   30    -34.74522    2.00000
   31    -34.74300    2.00000
   32    -34.74136    2.00000
   33    -34.73712    2.00000
   34    -34.72362    2.00000
   35    -34.65843    2.00000
   36    -34.64353    2.00000
   37    -34.60706    2.00000
   38    -34.60588    2.00000
   39    -34.60465    2.00000
   40    -34.60307    2.00000
   41    -34.60193    2.00000
   42    -34.60109    2.00000
   43    -34.60103    2.00000
   44    -34.60046    2.00000
   45    -34.60035    2.00000
   46    -34.59995    2.00000
   47    -34.59978    2.00000
   48    -34.59938    2.00000
   49    -34.59921    2.00000
   50    -34.59917    2.00000
   51    -34.59842    2.00000
   52    -34.59803    2.00000
   53    -34.59736    2.00000
   54    -34.59696    2.00000
   55    -34.59679    2.00000
   56    -34.59560    2.00000
   57    -34.59488    2.00000
   58    -34.59428    2.00000
   59    -34.59367    2.00000
   60    -34.59327    2.00000
   61    -34.59308    2.00000
   62    -34.59278    2.00000
   63    -34.59245    2.00000
   64    -34.59229    2.00000
   65    -34.59212    2.00000
   66    -34.59196    2.00000
   67    -34.59136    2.00000
   68    -34.59061    2.00000
   69    -34.58914    2.00000
   70    -34.58861    2.00000
   71    -34.58423    2.00000
   72    -34.58376    2.00000
   73    -18.73697    2.00000
   74    -18.71408    2.00000
   75    -18.70246    2.00000
   76    -18.27310    2.00000
   77    -18.26644    2.00000
   78    -18.26445    2.00000
   79    -18.26280    2.00000
   80    -18.26221    2.00000
   81    -18.26156    2.00000
   82    -18.26044    2.00000
   83    -18.26016    2.00000
   84    -18.25886    2.00000
   85    -18.25866    2.00000
   86    -18.25847    2.00000
   87    -18.25827    2.00000
   88    -18.25790    2.00000
   89    -18.25627    2.00000
   90    -18.25594    2.00000
   91    -18.25576    2.00000
   92    -18.25514    2.00000
   93    -18.25477    2.00000
   94    -18.25410    2.00000
   95    -18.25400    2.00000
   96    -18.25363    2.00000
   97    -18.25342    2.00000
   98    -18.25237    2.00000
   99    -18.25162    2.00000
  100    -18.25123    2.00000
  101    -18.25100    2.00000
  102    -18.25095    2.00000
  103    -18.25093    2.00000
  104    -18.25062    2.00000
  105    -18.25008    2.00000
  106    -18.25002    2.00000
  107    -18.24942    2.00000
  108    -18.24935    2.00000
  109    -18.24871    2.00000
  110    -18.24843    2.00000
  111    -18.24835    2.00000
  112    -18.24791    2.00000
  113    -18.24782    2.00000
  114    -18.24780    2.00000
  115    -18.24687    2.00000
  116    -18.24667    2.00000
  117    -18.24652    2.00000
  118    -18.24636    2.00000
  119    -18.24599    2.00000
  120    -18.24575    2.00000
  121    -18.24557    2.00000
  122    -18.24548    2.00000
  123    -18.24513    2.00000
  124    -18.24443    2.00000
  125    -18.24439    2.00000
  126    -18.24334    2.00000
  127    -18.24333    2.00000
  128    -18.24286    2.00000
  129    -18.24260    2.00000
  130    -18.24204    2.00000
  131    -18.24062    2.00000
  132    -18.24052    2.00000
  133    -18.23820    2.00000
  134    -18.23608    2.00000
  135    -18.23544    2.00000
  136    -18.23485    2.00000
  137    -18.23397    2.00000
  138    -18.23319    2.00000
  139    -18.23098    2.00000
  140    -18.23064    2.00000
  141    -18.22946    2.00000
  142    -18.22815    2.00000
  143    -18.22692    2.00000
  144    -18.22635    2.00000
  145    -18.22602    2.00000
  146    -18.22438    2.00000
  147    -18.22435    2.00000
  148    -18.22361    2.00000
  149    -18.22279    2.00000
  150    -18.22157    2.00000
  151    -18.21994    2.00000
  152    -18.21924    2.00000
  153    -18.21823    2.00000
  154    -18.21743    2.00000
  155    -18.21731    2.00000
  156    -18.21701    2.00000
  157    -18.21675    2.00000
  158    -18.21620    2.00000
  159    -18.21574    2.00000
  160    -18.21536    2.00000
  161    -18.21515    2.00000
  162    -18.21468    2.00000
  163    -18.21331    2.00000
  164    -18.21310    2.00000
  165    -18.21237    2.00000
  166    -18.21221    2.00000
  167    -18.21041    2.00000
  168    -18.20924    2.00000
  169    -18.20786    2.00000
  170    -18.20708    2.00000
  171    -18.20546    2.00000
  172    -18.20384    2.00000
  173    -18.20363    2.00000
  174    -18.20307    2.00000
  175    -18.20184    2.00000
  176    -18.20106    2.00000
  177    -18.19392    2.00000
  178    -18.15946    2.00000
  179    -18.15658    2.00000
  180    -18.14687    2.00000
  181    -18.14095    2.00000
  182    -18.13417    2.00000
  183    -18.12415    2.00000
  184    -18.12188    2.00000
  185    -18.11903    2.00000
  186    -18.11764    2.00000
  187    -18.11689    2.00000
  188    -18.11623    2.00000
  189    -18.11545    2.00000
  190    -18.11541    2.00000
  191    -18.11468    2.00000
  192    -18.11386    2.00000
  193    -18.11158    2.00000
  194    -18.11070    2.00000
  195    -18.11021    2.00000
  196    -18.10977    2.00000
  197    -18.10815    2.00000
  198    -18.10785    2.00000
  199    -18.10747    2.00000
  200    -18.10662    2.00000
  201    -18.10527    2.00000
  202    -18.10472    2.00000
  203    -18.10440    2.00000
  204    -18.10416    2.00000
  205    -18.10404    2.00000
  206    -18.10346    2.00000
  207    -18.10268    2.00000
  208    -18.10176    2.00000
  209    -18.10123    2.00000
  210    -18.09905    2.00000
  211    -18.09892    2.00000
  212    -18.09874    2.00000
  213    -18.09783    2.00000
  214    -18.09771    2.00000
  215    -18.09687    2.00000
  216    -18.09653    2.00000
  217    -18.09643    2.00000
  218    -18.09603    2.00000
  219    -18.09519    2.00000
  220    -18.09292    2.00000
  221    -18.09253    2.00000
  222    -18.09153    2.00000
  223    -18.09039    2.00000
  224    -18.08975    2.00000
  225    -18.08825    2.00000
  226    -18.08693    2.00000
  227    -18.08573    2.00000
  228    -18.08487    2.00000
  229    -18.08415    2.00000
  230    -18.08309    2.00000
  231    -18.08233    2.00000
  232    -18.08222    2.00000
  233    -18.08195    2.00000
  234    -18.08168    2.00000
  235    -18.08096    2.00000
  236    -18.08053    2.00000
  237    -18.08050    2.00000
  238    -18.07983    2.00000
  239    -18.07849    2.00000
  240    -18.07782    2.00000
  241    -18.07720    2.00000
  242    -18.07664    2.00000
  243    -18.07590    2.00000
  244    -18.07439    2.00000
  245    -18.07412    2.00000
  246    -18.07347    2.00000
  247    -18.07310    2.00000
  248    -18.07282    2.00000
  249    -18.07248    2.00000
  250    -18.07231    2.00000
  251    -18.07165    2.00000
  252    -18.07109    2.00000
  253    -18.07087    2.00000
  254    -18.07052    2.00000
  255    -18.07003    2.00000
  256    -18.06985    2.00000
  257    -18.06854    2.00000
  258    -18.06823    2.00000
  259    -18.06812    2.00000
  260    -18.06787    2.00000
  261    -18.06741    2.00000
  262    -18.06703    2.00000
  263    -18.06701    2.00000
  264    -18.06656    2.00000
  265    -18.06640    2.00000
  266    -18.06624    2.00000
  267    -18.06543    2.00000
  268    -18.06503    2.00000
  269    -18.06443    2.00000
  270    -18.06416    2.00000
  271    -18.06395    2.00000
  272    -18.06325    2.00000
  273    -18.06313    2.00000
  274    -18.06267    2.00000
  275    -18.06246    2.00000
  276    -18.06186    2.00000
  277    -18.06127    2.00000
  278    -18.06060    2.00000
  279    -18.05955    2.00000
  280    -18.05876    2.00000
  281    -18.05857    2.00000
  282    -18.05839    2.00000
  283    -18.05831    2.00000
  284    -18.05776    2.00000
  285    -18.05756    2.00000
  286    -18.05699    2.00000
  287    -18.05656    2.00000
  288    -18.05624    2.00000
  289    -18.05433    2.00000
  290    -18.05341    2.00000
  291    -18.05195    2.00000
  292     -4.53870    2.00000
  293     -4.19465    1.99999
  294     -4.18541    1.99999
  295     -4.14891    1.99998
  296     -3.85119    1.99989
  297     -3.84957    1.99989
  298     -3.81412    1.99986
  299     -3.79837    1.99984
  300     -3.53779    1.99910
  301     -3.51959    1.99899
  302     -3.51241    1.99894
  303     -3.50924    1.99891
  304     -3.50786    1.99890
  305     -3.47139    1.99860
  306     -3.46334    1.99852
  307     -3.21891    1.99249
  308     -3.18914    1.99085
  309     -3.18534    1.99062
  310     -3.17213    1.98976
  311     -3.14535    1.98777
  312     -3.14006    1.98733
  313     -3.13596    1.98698
  314     -3.13110    1.98656
  315     -2.88302    1.93168
  316     -2.84486    1.91275
  317     -2.81890    1.89711
  318     -2.81746    1.89617
  319     -2.72559    1.81649
  320     -2.56963    1.55552
  321     -2.54481    1.49570
  322     -2.54220    1.48910
  323     -2.54178    1.48804
  324     -2.53950    1.48222
  325     -2.53292    1.46522
  326     -2.52117    1.43398
  327     -2.51581    1.41937
  328     -2.41864    1.12242
  329     -2.35820    0.92172
  330     -2.22725    0.52620
  331     -2.21138    0.48624
  332     -2.18762    0.43032
  333     -2.18638    0.42753
  334     -2.18602    0.42673
  335     -2.18219    0.41822
  336     -2.10569    0.27404
  337     -2.04568    0.19237
  338     -1.94408    0.10258
  339     -1.94379    0.10239
  340     -1.91999    0.08802
  341     -1.75520    0.03023
  342     -1.75293    0.02978
  343     -1.73452    0.02639
  344     -1.71252    0.02283
  345     -1.66827    0.01705
  346     -1.64977    0.01508
  347     -1.64786    0.01489
  348     -1.64251    0.01438
  349     -1.64176    0.01430
  350     -1.62701    0.01297
  351     -1.62107    0.01247
  352     -1.60912    0.01152
  353     -1.60612    0.01130
  354     -1.60035    0.01087
  355     -1.58777    0.01000
  356     -1.58680    0.00994
  357     -1.58407    0.00976
  358     -1.53132    0.00688
  359     -1.41645    0.00320
  360     -1.41083    0.00309
  361     -1.36957    0.00234
  362     -1.34404    0.00198
  363     -1.31389    0.00162
  364     -1.27172    0.00122

Fermi level: -2.38173

Gap: 0.060 eV
Transition (v -> c):
  (s=0, k=0, n=328, [0.00, 0.00, 0.00]) -> (s=0, k=0, n=329, [0.00, 0.00, 0.00])
No difference between direct/indirect transitions

Forces in eV/Ang:
  0 K    -0.00045   -0.00010   -0.02510
  1 K    -0.00597    0.00502   -0.02995
  2 K     0.00006   -0.00406   -0.01180
  3 K    -0.00370    0.00208   -0.00698
  4 K     0.01262   -0.00063    0.02693
  5 K     0.02153   -0.01303    0.01635
  6 K    -0.03412   -0.02223    0.02749
  7 K     0.00744    0.00394    0.01964
  8 K    -0.00110    0.00036   -0.02651
  9 K     0.00186   -0.00160   -0.02171
 10 K    -0.01520    0.00183   -0.03030
 11 K    -0.00051   -0.00120    0.00649
 12 K    -0.00749    0.00169    0.02584
 13 K    -0.00658   -0.00025    0.03153
 14 K    -0.00297   -0.00952    0.03327
 15 K     0.00535   -0.00152    0.02931
 16 K    -0.00261   -0.00026   -0.02627
 17 K    -0.00688   -0.00341   -0.02857
 18 K    -0.00865    0.00254   -0.01315
 19 K    -0.00225   -0.00097   -0.00532
 20 K    -0.00732   -0.00092    0.02255
 21 K    -0.00851    0.00880    0.01788
 22 K     0.00569    0.00058    0.02264
 23 K     0.00081   -0.00294    0.01299
 24 K    -0.00370    0.00062   -0.02211
 25 K     0.00020   -0.00018   -0.02645
 26 K     0.00558   -0.00364   -0.00511
 27 K     0.01267    0.01203   -0.01550
 28 K    -0.00589    0.03551    0.03043
 29 K    -0.02563    0.01332    0.01863
 30 K    -0.01633    0.00567    0.03545
 31 K     0.07051    0.05263   -0.04729
 32 K     0.00618   -0.00712   -0.02780
 33 K     0.00238   -0.00034   -0.02401
 34 K     0.00476    0.00230   -0.00965
 35 K    -0.00521    0.02648   -0.03367
 36 K     0.00333   -0.01904    0.02473
 37 K     0.00574    0.00051    0.02156
 38 K    -0.00976   -0.00614    0.03297
 39 K    -0.00071   -0.00107    0.02490
 40 K     0.00722    0.00647   -0.02774
 41 K     0.00145    0.00051   -0.02600
 42 K    -0.00095    0.00148    0.00514
 43 K     0.01210   -0.03888   -0.04818
 44 K     0.00532   -0.00221    0.02480
 45 K     0.00729   -0.00054    0.02697
 46 K    -0.00983    0.00011    0.02514
 47 K     0.00052    0.01380    0.03913
 48 K     0.00439   -0.00086   -0.02413
 49 K     0.00557    0.00583   -0.03031
 50 K    -0.00515   -0.00019    0.00203
 51 K    -0.00937    0.01129   -0.00652
 52 K     0.00123   -0.00200    0.01566
 53 K    -0.00256   -0.00317    0.01527
 54 K     0.00068   -0.00007    0.02402
 55 K    -0.00486    0.00252    0.02553
 56 K    -0.00460   -0.00400   -0.03137
 57 K    -0.00511    0.00097   -0.02670
 58 K     0.01048   -0.01120   -0.00648
 59 K     0.00548   -0.00020    0.00326
 60 K     0.00479    0.00308    0.01323
 61 K    -0.00009    0.00054    0.01163
 62 K     0.00779   -0.00553    0.02621
 63 K    -0.00388   -0.00555    0.02877
 64 K    -0.00361    0.00484   -0.03298
 65 K     0.00481   -0.00681   -0.03211
 66 K     0.00984    0.01137   -0.00663
 67 K    -0.01017   -0.01124   -0.00595
 68 K     0.00363   -0.00433    0.01359
 69 K    -0.00252    0.00362    0.01535
 70 K     0.00810    0.00596    0.02617
 71 K    -0.01012    0.00121    0.02838
 72 K    -0.00221   -0.01763    0.06525

System changes: positions 

Initializing position-dependent things.

Density initialized from wave functions
           .------------------------------------------------------.  
          /|                                                      |  
         / |                                                      |  
        /  |                                                      |  
       /   |                                                      |  
      /    |                                                      |  
     /     |                                                      |  
    /      |                                                      |  
   /       |                                                      |  
  /        |                                                      |  
 *         |                                                      |  
 |         |                                                      |  
 |         |                                                      |  
 |         |                                                      |  
 |       K |                K                 K                   |  
 |         |     K                 K                  K           |  
 |         |                                                      |  
 |    K    |     K      K    K             K    K                 K  
 |         |      K                  K                 K          |  
 |         |  K                 K                 K               |  
 | K       |              K            K    K                  K  |  
 |         |         K                                            |  
 |        K|   K            K     K            K    K             |  
 |       K |           K    K            K    K            K      |  
 |         |                                                      |  
 |         |K    K            K    K             K   K            |  
 |    K    |            K                  K                      |  
 |         |       K                 K                 K          |  
 |         | K                  K                 K               |  
 |      K  |              K                 K                     |  
 | K       |         K                 K                          |  
 |        K|   K             K   K             K    K             |  
 |  K      |           K                 K                        |  
 |         |                                                      |  
 |         |K                 K                  K                |  
 |         |                                                      |  
 K         |       K                  K                           |  
 |         |                                                      |  
 |         .------------------------------------------------------.  
 |        /                                                      /   
 |       /                                                      /    
 |      /                                                      /     
 |     /                                                      /      
 |    /                                                      /       
 |   /                                                      /        
 |  /                                                      /         
 | /                                                      /          
 |/                                                      /           
 *------------------------------------------------------*            

Atomic positions and initial magnetic moments

Positions:
   0 K      0.000000    0.000000   10.000000    ( 0.0000,  0.0000,  0.0000)
   1 K      3.698168    2.615000   10.000000    ( 0.0000,  0.0000,  0.0000)
   2 K      3.698168    0.000000   13.698168    ( 0.0000,  0.0000,  0.0000)
   3 K      0.000000    2.615000   13.698168    ( 0.0000,  0.0000,  0.0000)
   4 K     -0.015249   -0.002361   17.391909    ( 0.0000,  0.0000,  0.0000)
   5 K      3.661112    2.679894   17.314062    ( 0.0000,  0.0000,  0.0000)
   6 K      3.750353    0.039424   20.936319    ( 0.0000,  0.0000,  0.0000)
   7 K      0.017265    2.597617   21.194881    ( 0.0000,  0.0000,  0.0000)
   8 K      0.000000    5.230000   10.000000    ( 0.0000,  0.0000,  0.0000)
   9 K      3.698168    7.845000   10.000000    ( 0.0000,  0.0000,  0.0000)
  10 K      3.698168    5.230000   13.698168    ( 0.0000,  0.0000,  0.0000)
  11 K      0.000000    7.845000   13.698168    ( 0.0000,  0.0000,  0.0000)
  12 K     -0.004757    5.233684   17.417201    ( 0.0000,  0.0000,  0.0000)
  13 K      3.696515    7.839818   17.423564    ( 0.0000,  0.0000,  0.0000)
  14 K      3.743119    5.173302   21.230775    ( 0.0000,  0.0000,  0.0000)
  15 K      0.004942    7.840108   21.159860    ( 0.0000,  0.0000,  0.0000)
  16 K      0.000000   10.460000   10.000000    ( 0.0000,  0.0000,  0.0000)
  17 K      3.698168   13.075000   10.000000    ( 0.0000,  0.0000,  0.0000)
  18 K      3.698168   10.460000   13.698168    ( 0.0000,  0.0000,  0.0000)
  19 K      0.000000   13.075000   13.698168    ( 0.0000,  0.0000,  0.0000)
  20 K     -0.002362   10.458763   17.411038    ( 0.0000,  0.0000,  0.0000)
  21 K      3.676810   13.013563   17.358375    ( 0.0000,  0.0000,  0.0000)
  22 K      3.699352   10.473531   21.180723    ( 0.0000,  0.0000,  0.0000)
  23 K      0.018834   13.096293   21.194878    ( 0.0000,  0.0000,  0.0000)
  24 K      7.396337    0.000000   10.000000    ( 0.0000,  0.0000,  0.0000)
  25 K     11.094505    2.615000   10.000000    ( 0.0000,  0.0000,  0.0000)
  26 K     11.094505    0.000000   13.698168    ( 0.0000,  0.0000,  0.0000)
  27 K      7.396337    2.615000   13.698168    ( 0.0000,  0.0000,  0.0000)
  28 K      7.402069   -0.155268   17.234854    ( 0.0000,  0.0000,  0.0000)
  29 K     11.133619    2.613207   17.382344    ( 0.0000,  0.0000,  0.0000)
  30 K     11.049596    0.042717   21.215260    ( 0.0000,  0.0000,  0.0000)
  31 K      7.393178    2.610075   20.568547    ( 0.0000,  0.0000,  0.0000)
  32 K      7.396337    5.230000   10.000000    ( 0.0000,  0.0000,  0.0000)
  33 K     11.094505    7.845000   10.000000    ( 0.0000,  0.0000,  0.0000)
  34 K     11.094505    5.230000   13.698168    ( 0.0000,  0.0000,  0.0000)
  35 K      7.396337    7.845000   13.698168    ( 0.0000,  0.0000,  0.0000)
  36 K      7.401459    5.376928   17.247319    ( 0.0000,  0.0000,  0.0000)
  37 K     11.106467    7.841508   17.415436    ( 0.0000,  0.0000,  0.0000)
  38 K     11.052104    5.201314   21.218183    ( 0.0000,  0.0000,  0.0000)
  39 K      7.390387    7.805890   21.202974    ( 0.0000,  0.0000,  0.0000)
  40 K      7.396337   10.460000   10.000000    ( 0.0000,  0.0000,  0.0000)
  41 K     11.094505   13.075000   10.000000    ( 0.0000,  0.0000,  0.0000)
  42 K     11.094505   10.460000   13.698168    ( 0.0000,  0.0000,  0.0000)
  43 K      7.396337   13.075000   13.698168    ( 0.0000,  0.0000,  0.0000)
  44 K      7.407279   10.469886   17.432071    ( 0.0000,  0.0000,  0.0000)
  45 K     11.110610   13.081448   17.425314    ( 0.0000,  0.0000,  0.0000)
  46 K     11.090304   10.454455   21.175214    ( 0.0000,  0.0000,  0.0000)
  47 K      7.382564   13.123785   21.219946    ( 0.0000,  0.0000,  0.0000)
  48 K     14.792674    0.000000   10.000000    ( 0.0000,  0.0000,  0.0000)
  49 K     18.490842    2.615000   10.000000    ( 0.0000,  0.0000,  0.0000)
  50 K     18.490842    0.000000   13.698168    ( 0.0000,  0.0000,  0.0000)
  51 K     14.792674    2.615000   13.698168    ( 0.0000,  0.0000,  0.0000)
  52 K     14.806714   -0.003658   17.413906    ( 0.0000,  0.0000,  0.0000)
  53 K     18.498880    2.623784   17.421320    ( 0.0000,  0.0000,  0.0000)
  54 K     18.481088    0.000764   21.173273    ( 0.0000,  0.0000,  0.0000)
  55 K     14.786001    2.616267   21.164558    ( 0.0000,  0.0000,  0.0000)
  56 K     14.792674    5.230000   10.000000    ( 0.0000,  0.0000,  0.0000)
  57 K     18.490842    7.845000   10.000000    ( 0.0000,  0.0000,  0.0000)
  58 K     18.490842    5.230000   13.698168    ( 0.0000,  0.0000,  0.0000)
  59 K     14.792674    7.845000   13.698168    ( 0.0000,  0.0000,  0.0000)
  60 K     14.786872    5.223814   17.422794    ( 0.0000,  0.0000,  0.0000)
  61 K     18.480253    7.845974   17.406111    ( 0.0000,  0.0000,  0.0000)
  62 K     18.494203    5.227424   21.165968    ( 0.0000,  0.0000,  0.0000)
  63 K     14.797414    7.840085   21.170456    ( 0.0000,  0.0000,  0.0000)
  64 K     14.792674   10.460000   10.000000    ( 0.0000,  0.0000,  0.0000)
  65 K     18.490842   13.075000   10.000000    ( 0.0000,  0.0000,  0.0000)
  66 K     18.490842   10.460000   13.698168    ( 0.0000,  0.0000,  0.0000)
  67 K     14.792674   13.075000   13.698168    ( 0.0000,  0.0000,  0.0000)
  68 K     14.784715   10.468337   17.418173    ( 0.0000,  0.0000,  0.0000)
  69 K     18.499154   13.065603   17.417270    ( 0.0000,  0.0000,  0.0000)
  70 K     18.494706   10.462445   21.166764    ( 0.0000,  0.0000,  0.0000)
  71 K     14.783640   13.078152   21.164440    ( 0.0000,  0.0000,  0.0000)
  72 K      6.169428    1.748232   24.307553    ( 0.0000,  0.0000,  0.0000)

Unit cell:
           periodic     x           y           z      points  spacing
  1. axis:    yes   22.189011    0.000000    0.000000   112     0.1981
  2. axis:    yes    0.000000   15.690000    0.000000    80     0.1961
  3. axis:    no     0.000000    0.000000   31.094505   156     0.1993

  Lengths:  22.189011  15.690000  31.094505
  Angles:   90.000000  90.000000  90.000000

Effective grid spacing dv^(1/3) = 0.1979

     iter     time        total  log10-change:
                         energy   eigst   dens
iter:   1 00:30:38   -61.498079        c
iter:   2 00:31:41   -61.498034        c -3.95
iter:   3 00:32:42   -61.497997c       c -4.09c

Converged after 3 iterations.

Dipole moment: (-90.596894, -54.241129, 0.454865) |e|*Ang

Energy contributions relative to reference atoms: (reference = -1195904.484944)

Kinetic:       +120.236908
Potential:     -103.416941
External:        +0.000000
XC:             -78.721695
Entropy (-ST):   -3.801763
Local:           +2.304613
SIC:             +0.000000
--------------------------
Free energy:    -63.398878
Extrapolated:   -61.497997

 Band  Eigenvalues  Occupancy
    0    -35.24409    2.00000
    1    -34.77370    2.00000
    2    -34.77094    2.00000
    3    -34.77061    2.00000
    4    -34.76693    2.00000
    5    -34.76282    2.00000
    6    -34.76205    2.00000
    7    -34.76137    2.00000
    8    -34.76004    2.00000
    9    -34.75980    2.00000
   10    -34.75769    2.00000
   11    -34.75731    2.00000
   12    -34.75685    2.00000
   13    -34.75644    2.00000
   14    -34.75580    2.00000
   15    -34.75564    2.00000
   16    -34.75505    2.00000
   17    -34.75496    2.00000
   18    -34.75474    2.00000
   19    -34.75432    2.00000
   20    -34.75403    2.00000
   21    -34.75397    2.00000
   22    -34.75379    2.00000
   23    -34.75353    2.00000
   24    -34.75331    2.00000
   25    -34.75310    2.00000
   26    -34.75302    2.00000
   27    -34.75270    2.00000
   28    -34.75197    2.00000
   29    -34.75101    2.00000
   30    -34.74959    2.00000
   31    -34.74769    2.00000
   32    -34.74616    2.00000
   33    -34.74212    2.00000
   34    -34.72856    2.00000
   35    -34.66361    2.00000
   36    -34.64914    2.00000
   37    -34.61000    2.00000
   38    -34.60910    2.00000
   39    -34.60794    2.00000
   40    -34.60645    2.00000
   41    -34.60521    2.00000
   42    -34.60461    2.00000
   43    -34.60423    2.00000
   44    -34.60396    2.00000
   45    -34.60360    2.00000
   46    -34.60334    2.00000
   47    -34.60316    2.00000
   48    -34.60282    2.00000
   49    -34.60268    2.00000
   50    -34.60246    2.00000
   51    -34.60204    2.00000
   52    -34.60171    2.00000
   53    -34.60099    2.00000
   54    -34.59962    2.00000
   55    -34.59939    2.00000
   56    -34.59837    2.00000
   57    -34.59820    2.00000
   58    -34.59773    2.00000
   59    -34.59736    2.00000
   60    -34.59687    2.00000
   61    -34.59678    2.00000
   62    -34.59666    2.00000
   63    -34.59606    2.00000
   64    -34.59573    2.00000
   65    -34.59557    2.00000
   66    -34.59533    2.00000
   67    -34.59466    2.00000
   68    -34.59428    2.00000
   69    -34.59339    2.00000
   70    -34.59284    2.00000
   71    -34.58731    2.00000
   72    -34.58610    2.00000
   73    -18.73994    2.00000
   74    -18.71711    2.00000
   75    -18.70551    2.00000
   76    -18.27704    2.00000
   77    -18.26930    2.00000
   78    -18.26850    2.00000
   79    -18.26662    2.00000
   80    -18.26613    2.00000
   81    -18.26522    2.00000
   82    -18.26394    2.00000
   83    -18.26272    2.00000
   84    -18.26243    2.00000
   85    -18.26189    2.00000
   86    -18.26144    2.00000
   87    -18.26140    2.00000
   88    -18.26128    2.00000
   89    -18.25894    2.00000
   90    -18.25885    2.00000
   91    -18.25857    2.00000
   92    -18.25854    2.00000
   93    -18.25823    2.00000
   94    -18.25759    2.00000
   95    -18.25708    2.00000
   96    -18.25671    2.00000
   97    -18.25618    2.00000
   98    -18.25575    2.00000
   99    -18.25471    2.00000
  100    -18.25459    2.00000
  101    -18.25443    2.00000
  102    -18.25432    2.00000
  103    -18.25403    2.00000
  104    -18.25358    2.00000
  105    -18.25354    2.00000
  106    -18.25309    2.00000
  107    -18.25274    2.00000
  108    -18.25239    2.00000
  109    -18.25184    2.00000
  110    -18.25179    2.00000
  111    -18.25172    2.00000
  112    -18.25138    2.00000
  113    -18.25122    2.00000
  114    -18.25084    2.00000
  115    -18.25012    2.00000
  116    -18.24997    2.00000
  117    -18.24978    2.00000
  118    -18.24951    2.00000
  119    -18.24919    2.00000
  120    -18.24912    2.00000
  121    -18.24897    2.00000
  122    -18.24872    2.00000
  123    -18.24850    2.00000
  124    -18.24818    2.00000
  125    -18.24782    2.00000
  126    -18.24685    2.00000
  127    -18.24675    2.00000
  128    -18.24648    2.00000
  129    -18.24621    2.00000
  130    -18.24561    2.00000
  131    -18.24484    2.00000
  132    -18.24419    2.00000
  133    -18.24258    2.00000
  134    -18.23906    2.00000
  135    -18.23904    2.00000
  136    -18.23802    2.00000
  137    -18.23758    2.00000
  138    -18.23603    2.00000
  139    -18.23488    2.00000
  140    -18.23439    2.00000
  141    -18.23316    2.00000
  142    -18.23215    2.00000
  143    -18.23054    2.00000
  144    -18.22965    2.00000
  145    -18.22938    2.00000
  146    -18.22795    2.00000
  147    -18.22787    2.00000
  148    -18.22665    2.00000
  149    -18.22590    2.00000
  150    -18.22445    2.00000
  151    -18.22346    2.00000
  152    -18.22239    2.00000
  153    -18.22149    2.00000
  154    -18.22135    2.00000
  155    -18.22118    2.00000
  156    -18.22054    2.00000
  157    -18.22009    2.00000
  158    -18.21948    2.00000
  159    -18.21914    2.00000
  160    -18.21850    2.00000
  161    -18.21826    2.00000
  162    -18.21815    2.00000
  163    -18.21682    2.00000
  164    -18.21606    2.00000
  165    -18.21576    2.00000
  166    -18.21563    2.00000
  167    -18.21378    2.00000
  168    -18.21309    2.00000
  169    -18.21116    2.00000
  170    -18.21040    2.00000
  171    -18.20897    2.00000
  172    -18.20794    2.00000
  173    -18.20756    2.00000
  174    -18.20692    2.00000
  175    -18.20618    2.00000
  176    -18.20477    2.00000
  177    -18.19850    2.00000
  178    -18.16418    2.00000
  179    -18.16126    2.00000
  180    -18.15162    2.00000
  181    -18.14576    2.00000
  182    -18.13839    2.00000
  183    -18.12780    2.00000
  184    -18.12624    2.00000
  185    -18.12232    2.00000
  186    -18.12082    2.00000
  187    -18.12010    2.00000
  188    -18.11946    2.00000
  189    -18.11840    2.00000
  190    -18.11832    2.00000
  191    -18.11807    2.00000
  192    -18.11703    2.00000
  193    -18.11495    2.00000
  194    -18.11388    2.00000
  195    -18.11320    2.00000
  196    -18.11274    2.00000
  197    -18.11132    2.00000
  198    -18.11099    2.00000
  199    -18.11045    2.00000
  200    -18.10969    2.00000
  201    -18.10853    2.00000
  202    -18.10783    2.00000
  203    -18.10756    2.00000
  204    -18.10740    2.00000
  205    -18.10715    2.00000
  206    -18.10658    2.00000
  207    -18.10572    2.00000
  208    -18.10487    2.00000
  209    -18.10432    2.00000
  210    -18.10219    2.00000
  211    -18.10211    2.00000
  212    -18.10193    2.00000
  213    -18.10098    2.00000
  214    -18.10089    2.00000
  215    -18.10001    2.00000
  216    -18.09974    2.00000
  217    -18.09954    2.00000
  218    -18.09926    2.00000
  219    -18.09838    2.00000
  220    -18.09610    2.00000
  221    -18.09542    2.00000
  222    -18.09469    2.00000
  223    -18.09354    2.00000
  224    -18.09291    2.00000
  225    -18.09132    2.00000
  226    -18.09003    2.00000
  227    -18.08892    2.00000
  228    -18.08802    2.00000
  229    -18.08729    2.00000
  230    -18.08622    2.00000
  231    -18.08539    2.00000
  232    -18.08538    2.00000
  233    -18.08514    2.00000
  234    -18.08483    2.00000
  235    -18.08415    2.00000
  236    -18.08364    2.00000
  237    -18.08357    2.00000
  238    -18.08282    2.00000
  239    -18.08161    2.00000
  240    -18.08094    2.00000
  241    -18.08032    2.00000
  242    -18.07979    2.00000
  243    -18.07906    2.00000
  244    -18.07753    2.00000
  245    -18.07725    2.00000
  246    -18.07662    2.00000
  247    -18.07620    2.00000
  248    -18.07601    2.00000
  249    -18.07568    2.00000
  250    -18.07536    2.00000
  251    -18.07455    2.00000
  252    -18.07417    2.00000
  253    -18.07400    2.00000
  254    -18.07361    2.00000
  255    -18.07308    2.00000
  256    -18.07296    2.00000
  257    -18.07177    2.00000
  258    -18.07142    2.00000
  259    -18.07123    2.00000
  260    -18.07120    2.00000
  261    -18.07055    2.00000
  262    -18.07026    2.00000
  263    -18.07013    2.00000
  264    -18.06971    2.00000
  265    -18.06948    2.00000
  266    -18.06935    2.00000
  267    -18.06848    2.00000
  268    -18.06818    2.00000
  269    -18.06756    2.00000
  270    -18.06725    2.00000
  271    -18.06709    2.00000
  272    -18.06621    2.00000
  273    -18.06618    2.00000
  274    -18.06583    2.00000
  275    -18.06554    2.00000
  276    -18.06498    2.00000
  277    -18.06467    2.00000
  278    -18.06379    2.00000
  279    -18.06261    2.00000
  280    -18.06195    2.00000
  281    -18.06184    2.00000
  282    -18.06169    2.00000
  283    -18.06144    2.00000
  284    -18.06106    2.00000
  285    -18.06057    2.00000
  286    -18.06017    2.00000
  287    -18.05940    2.00000
  288    -18.05911    2.00000
  289    -18.05758    2.00000
  290    -18.05594    2.00000
  291    -18.05538    2.00000
  292     -4.54032    2.00000
  293     -4.19629    1.99999
  294     -4.18706    1.99999
  295     -4.15093    1.99998
  296     -3.85284    1.99989
  297     -3.85118    1.99989
  298     -3.81623    1.99986
  299     -3.80045    1.99984
  300     -3.53940    1.99910
  301     -3.52117    1.99899
  302     -3.51398    1.99894
  303     -3.51084    1.99891
  304     -3.50946    1.99890
  305     -3.47334    1.99860
  306     -3.46542    1.99853
  307     -3.22044    1.99249
  308     -3.19077    1.99085
  309     -3.18698    1.99062
  310     -3.17349    1.98974
  311     -3.14728    1.98780
  312     -3.14217    1.98738
  313     -3.13807    1.98703
  314     -3.13319    1.98660
  315     -2.88437    1.93157
  316     -2.84619    1.91261
  317     -2.82093    1.89740
  318     -2.81950    1.89647
  319     -2.72704    1.81633
  320     -2.57107    1.55518
  321     -2.54642    1.49576
  322     -2.54384    1.48925
  323     -2.54339    1.48810
  324     -2.54114    1.48235
  325     -2.53425    1.46456
  326     -2.52253    1.43337
  327     -2.51715    1.41869
  328     -2.42009    1.12196
  329     -2.35967    0.92132
  330     -2.22863    0.52567
  331     -2.21283    0.48589
  332     -2.18949    0.43097
  333     -2.18840    0.42852
  334     -2.18806    0.42774
  335     -2.18431    0.41940
  336     -2.10717    0.27387
  337     -2.04712    0.19220
  338     -1.94570    0.10259
  339     -1.94541    0.10241
  340     -1.92142    0.08794
  341     -1.75670    0.03021
  342     -1.75442    0.02976
  343     -1.73602    0.02637
  344     -1.71395    0.02280
  345     -1.66986    0.01705
  346     -1.65138    0.01509
  347     -1.64945    0.01489
  348     -1.64416    0.01438
  349     -1.64342    0.01431
  350     -1.62831    0.01295
  351     -1.62246    0.01246
  352     -1.61050    0.01151
  353     -1.60762    0.01129
  354     -1.60172    0.01086
  355     -1.58941    0.01001
  356     -1.58881    0.00997
  357     -1.58588    0.00977
  358     -1.53274    0.00687
  359     -1.41766    0.00319
  360     -1.41214    0.00308
  361     -1.37168    0.00235
  362     -1.34545    0.00198
  363     -1.31537    0.00162
  364     -1.27379    0.00123

Fermi level: -2.38332

Gap: 0.060 eV
Transition (v -> c):
  (s=0, k=0, n=328, [0.00, 0.00, 0.00]) -> (s=0, k=0, n=329, [0.00, 0.00, 0.00])
No difference between direct/indirect transitions

Forces in eV/Ang:
  0 K     0.00008    0.00007   -0.02813
  1 K    -0.00556    0.00502   -0.03384
  2 K     0.00021   -0.00459   -0.00802
  3 K    -0.00409    0.00235   -0.00352
  4 K     0.01317   -0.00034    0.02396
  5 K     0.02135   -0.01269    0.01309
  6 K    -0.03368   -0.02162    0.02867
  7 K     0.00623    0.00388    0.02119
  8 K    -0.00031    0.00004   -0.02928
  9 K     0.00260   -0.00141   -0.02452
 10 K    -0.01512    0.00263   -0.02652
 11 K    -0.00077   -0.00063    0.01029
 12 K    -0.00677    0.00136    0.02288
 13 K    -0.00615   -0.00125    0.02810
 14 K    -0.00322   -0.00933    0.03435
 15 K     0.00486   -0.00164    0.03149
 16 K    -0.00139   -0.00011   -0.02835
 17 K    -0.00632   -0.00361   -0.03175
 18 K    -0.00877    0.00225   -0.01035
 19 K    -0.00272   -0.00181   -0.00181
 20 K    -0.00772   -0.00087    0.01874
 21 K    -0.00761    0.00946    0.01468
 22 K     0.00517    0.00037    0.02412
 23 K     0.00035   -0.00287    0.01503
 24 K    -0.00396    0.00057   -0.02597
 25 K    -0.00029   -0.00022   -0.02985
 26 K     0.00581   -0.00418   -0.00156
 27 K     0.01252    0.01233   -0.01150
 28 K    -0.00598    0.03425    0.02627
 29 K    -0.02536    0.01274    0.01607
 30 K    -0.01471    0.00546    0.03647
 31 K     0.06798    0.05066   -0.04313
 32 K     0.00589   -0.00692   -0.03126
 33 K     0.00122   -0.00044   -0.02641
 34 K     0.00506    0.00326   -0.00634
 35 K    -0.00523    0.02666   -0.03066
 36 K     0.00294   -0.01849    0.02031
 37 K     0.00582    0.00000    0.01807
 38 K    -0.00836   -0.00574    0.03443
 39 K    -0.00060   -0.00049    0.02613
 40 K     0.00675    0.00632   -0.03059
 41 K     0.00057    0.00065   -0.02885
 42 K    -0.00070    0.00113    0.00859
 43 K     0.01205   -0.03927   -0.04438
 44 K     0.00506   -0.00135    0.02159
 45 K     0.00657    0.00018    0.02374
 46 K    -0.00923    0.00014    0.02704
 47 K     0.00059    0.01354    0.04005
 48 K     0.00411   -0.00038   -0.02657
 49 K     0.00567    0.00549   -0.03266
 50 K    -0.00548   -0.00054    0.00545
 51 K    -0.00888    0.01149   -0.00317
 52 K     0.00069   -0.00220    0.01262
 53 K    -0.00235   -0.00275    0.01187
 54 K     0.00086   -0.00004    0.02656
 55 K    -0.00501    0.00251    0.02784
 56 K    -0.00511   -0.00472   -0.03360
 57 K    -0.00473    0.00057   -0.02859
 58 K     0.01015   -0.01076   -0.00244
 59 K     0.00568    0.00009    0.00784
 60 K     0.00480    0.00345    0.00965
 61 K    -0.00058    0.00100    0.00751
 62 K     0.00795   -0.00539    0.02871
 63 K    -0.00364   -0.00546    0.03086
 64 K    -0.00433    0.00507   -0.03489
 65 K     0.00513   -0.00606   -0.03414
 66 K     0.00979    0.01129   -0.00166
 67 K    -0.00973   -0.01176   -0.00180
 68 K     0.00436   -0.00438    0.00950
 69 K    -0.00283    0.00274    0.01127
 70 K     0.00774    0.00577    0.02851
 71 K    -0.01027    0.00114    0.03067
 72 K    -0.00188   -0.01712    0.06426

System changes: positions 

Initializing position-dependent things.

Density initialized from wave functions
           .------------------------------------------------------.  
          /|                                                      |  
         / |                                                      |  
        /  |                                                      |  
       /   |                                                      |  
      /    |                                                      |  
     /     |                                                      |  
    /      |                                                      |  
   /       |                                                      |  
  /        |                                                      |  
 *         |                                                      |  
 |         |                                                      |  
 |         |                                                      |  
 |         |                                                      |  
 |       K |                K                 K                   |  
 |         |     K                 K                  K           |  
 |         |                                                      |  
 |    K    |     K      K    K             K    K                 K  
 |         |      K                  K                 K          |  
 |         |  K                 K                 K               |  
 | K       |              K            K    K                  K  |  
 |         |         K                                            |  
 |        K|   K            K     K            K    K             |  
 |       K |           K    K            K    K            K      |  
 |         |                                                      |  
 |         |K    K            K    K             K   K            |  
 |    K    |            K                  K                      |  
 |         |       K                 K                 K          |  
 |         | K                  K                 K               |  
 |      K  |              K                 K                     |  
 | K       |         K                 K                          |  
 |        K|   K             K   K             K    K             |  
 |  K      |           K                 K                        |  
 |         |                                                      |  
 |         |K                 K                  K                |  
 |         |                                                      |  
 K         |       K                  K                           |  
 |         |                                                      |  
 |         .------------------------------------------------------.  
 |        /                                                      /   
 |       /                                                      /    
 |      /                                                      /     
 |     /                                                      /      
 |    /                                                      /       
 |   /                                                      /        
 |  /                                                      /         
 | /                                                      /          
 |/                                                      /           
 *------------------------------------------------------*            

Atomic positions and initial magnetic moments

Positions:
   0 K      0.000000    0.000000   10.000000    ( 0.0000,  0.0000,  0.0000)
   1 K      3.698168    2.615000   10.000000    ( 0.0000,  0.0000,  0.0000)
   2 K      3.698168    0.000000   13.698168    ( 0.0000,  0.0000,  0.0000)
   3 K      0.000000    2.615000   13.698168    ( 0.0000,  0.0000,  0.0000)
   4 K     -0.014992   -0.002370   17.392413    ( 0.0000,  0.0000,  0.0000)
   5 K      3.661544    2.679643   17.314346    ( 0.0000,  0.0000,  0.0000)
   6 K      3.749673    0.038984   20.936849    ( 0.0000,  0.0000,  0.0000)
   7 K      0.017402    2.597694   21.195292    ( 0.0000,  0.0000,  0.0000)
   8 K      0.000000    5.230000   10.000000    ( 0.0000,  0.0000,  0.0000)
   9 K      3.698168    7.845000   10.000000    ( 0.0000,  0.0000,  0.0000)
  10 K      3.698168    5.230000   13.698168    ( 0.0000,  0.0000,  0.0000)
  11 K      0.000000    7.845000   13.698168    ( 0.0000,  0.0000,  0.0000)
  12 K     -0.004899    5.233714   17.417684    ( 0.0000,  0.0000,  0.0000)
  13 K      3.696389    7.839802   17.424156    ( 0.0000,  0.0000,  0.0000)
  14 K      3.743055    5.173114   21.231450    ( 0.0000,  0.0000,  0.0000)
  15 K      0.005043    7.840077   21.160470    ( 0.0000,  0.0000,  0.0000)
  16 K      0.000000   10.460000   10.000000    ( 0.0000,  0.0000,  0.0000)
  17 K      3.698168   13.075000   10.000000    ( 0.0000,  0.0000,  0.0000)
  18 K      3.698168   10.460000   13.698168    ( 0.0000,  0.0000,  0.0000)
  19 K      0.000000   13.075000   13.698168    ( 0.0000,  0.0000,  0.0000)
  20 K     -0.002513   10.458745   17.411446    ( 0.0000,  0.0000,  0.0000)
  21 K      3.676650   13.013740   17.358689    ( 0.0000,  0.0000,  0.0000)
  22 K      3.699460   10.473541   21.181193    ( 0.0000,  0.0000,  0.0000)
  23 K      0.018846   13.096235   21.195162    ( 0.0000,  0.0000,  0.0000)
  24 K      7.396337    0.000000   10.000000    ( 0.0000,  0.0000,  0.0000)
  25 K     11.094505    2.615000   10.000000    ( 0.0000,  0.0000,  0.0000)
  26 K     11.094505    0.000000   13.698168    ( 0.0000,  0.0000,  0.0000)
  27 K      7.396337    2.615000   13.698168    ( 0.0000,  0.0000,  0.0000)
  28 K      7.401952   -0.154563   17.235423    ( 0.0000,  0.0000,  0.0000)
  29 K     11.133107    2.613467   17.382690    ( 0.0000,  0.0000,  0.0000)
  30 K     11.049289    0.042826   21.215977    ( 0.0000,  0.0000,  0.0000)
  31 K      7.394560    2.611105   20.567679    ( 0.0000,  0.0000,  0.0000)
  32 K      7.396337    5.230000   10.000000    ( 0.0000,  0.0000,  0.0000)
  33 K     11.094505    7.845000   10.000000    ( 0.0000,  0.0000,  0.0000)
  34 K     11.094505    5.230000   13.698168    ( 0.0000,  0.0000,  0.0000)
  35 K      7.396337    7.845000   13.698168    ( 0.0000,  0.0000,  0.0000)
  36 K      7.401522    5.376544   17.247774    ( 0.0000,  0.0000,  0.0000)
  37 K     11.106582    7.841513   17.415828    ( 0.0000,  0.0000,  0.0000)
  38 K     11.051926    5.201198   21.218855    ( 0.0000,  0.0000,  0.0000)
  39 K      7.390375    7.805877   21.203483    ( 0.0000,  0.0000,  0.0000)
  40 K      7.396337   10.460000   10.000000    ( 0.0000,  0.0000,  0.0000)
  41 K     11.094505   13.075000   10.000000    ( 0.0000,  0.0000,  0.0000)
  42 K     11.094505   10.460000   13.698168    ( 0.0000,  0.0000,  0.0000)
  43 K      7.396337   13.075000   13.698168    ( 0.0000,  0.0000,  0.0000)
  44 K      7.407383   10.469851   17.432531    ( 0.0000,  0.0000,  0.0000)
  45 K     11.110747   13.081445   17.425817    ( 0.0000,  0.0000,  0.0000)
  46 K     11.090114   10.454458   21.175737    ( 0.0000,  0.0000,  0.0000)
  47 K      7.382574   13.124058   21.220739    ( 0.0000,  0.0000,  0.0000)
  48 K     14.792674    0.000000   10.000000    ( 0.0000,  0.0000,  0.0000)
  49 K     18.490842    2.615000   10.000000    ( 0.0000,  0.0000,  0.0000)
  50 K     18.490842    0.000000   13.698168    ( 0.0000,  0.0000,  0.0000)
  51 K     14.792674    2.615000   13.698168    ( 0.0000,  0.0000,  0.0000)
  52 K     14.806732   -0.003700   17.414185    ( 0.0000,  0.0000,  0.0000)
  53 K     18.498831    2.623726   17.421588    ( 0.0000,  0.0000,  0.0000)
  54 K     18.481104    0.000763   21.173781    ( 0.0000,  0.0000,  0.0000)
  55 K     14.785903    2.616317   21.165094    ( 0.0000,  0.0000,  0.0000)
  56 K     14.792674    5.230000   10.000000    ( 0.0000,  0.0000,  0.0000)
  57 K     18.490842    7.845000   10.000000    ( 0.0000,  0.0000,  0.0000)
  58 K     18.490842    5.230000   13.698168    ( 0.0000,  0.0000,  0.0000)
  59 K     14.792674    7.845000   13.698168    ( 0.0000,  0.0000,  0.0000)
  60 K     14.786968    5.223879   17.423018    ( 0.0000,  0.0000,  0.0000)
  61 K     18.480246    7.845990   17.406298    ( 0.0000,  0.0000,  0.0000)
  62 K     18.494360    5.227314   21.166519    ( 0.0000,  0.0000,  0.0000)
  63 K     14.797339    7.839975   21.171053    ( 0.0000,  0.0000,  0.0000)
  64 K     14.792674   10.460000   10.000000    ( 0.0000,  0.0000,  0.0000)
  65 K     18.490842   13.075000   10.000000    ( 0.0000,  0.0000,  0.0000)
  66 K     18.490842   10.460000   13.698168    ( 0.0000,  0.0000,  0.0000)
  67 K     14.792674   13.075000   13.698168    ( 0.0000,  0.0000,  0.0000)
  68 K     14.784796   10.468250   17.418400    ( 0.0000,  0.0000,  0.0000)
  69 K     18.499100   13.065665   17.417532    ( 0.0000,  0.0000,  0.0000)
  70 K     18.494864   10.462562   21.167312    ( 0.0000,  0.0000,  0.0000)
  71 K     14.783436   13.078175   21.165032    ( 0.0000,  0.0000,  0.0000)
  72 K      6.169256    1.747792   24.308847    ( 0.0000,  0.0000,  0.0000)

Unit cell:
           periodic     x           y           z      points  spacing
  1. axis:    yes   22.189011    0.000000    0.000000   112     0.1981
  2. axis:    yes    0.000000   15.690000    0.000000    80     0.1961
  3. axis:    no     0.000000    0.000000   31.094505   156     0.1993

  Lengths:  22.189011  15.690000  31.094505
  Angles:   90.000000  90.000000  90.000000

Effective grid spacing dv^(1/3) = 0.1979

     iter     time        total  log10-change:
                         energy   eigst   dens
iter:   1 01:07:38   -61.499069        c
iter:   2 01:08:34   -61.498900        c -3.68
iter:   3 01:09:24   -61.498942c       c -3.94
iter:   4 01:10:19   -61.498990c       c -4.08c

Converged after 4 iterations.

Dipole moment: (-90.627293, -54.266343, 0.451115) |e|*Ang

Energy contributions relative to reference atoms: (reference = -1195904.484944)

Kinetic:       +121.992638
Potential:     -105.012313
External:        +0.000000
XC:             -78.886834
Entropy (-ST):   -3.801415
Local:           +2.308226
SIC:             +0.000000
--------------------------
Free energy:    -63.399698
Extrapolated:   -61.498990

 Band  Eigenvalues  Occupancy
    0    -35.24185    2.00000
    1    -34.76984    2.00000
    2    -34.76731    2.00000
    3    -34.76699    2.00000
    4    -34.76348    2.00000
    5    -34.76039    2.00000
    6    -34.75882    2.00000
    7    -34.75787    2.00000
    8    -34.75745    2.00000
    9    -34.75630    2.00000
   10    -34.75466    2.00000
   11    -34.75397    2.00000
   12    -34.75375    2.00000
   13    -34.75330    2.00000
   14    -34.75268    2.00000
   15    -34.75218    2.00000
   16    -34.75205    2.00000
   17    -34.75192    2.00000
   18    -34.75144    2.00000
   19    -34.75131    2.00000
   20    -34.75105    2.00000
   21    -34.75087    2.00000
   22    -34.75053    2.00000
   23    -34.75042    2.00000
   24    -34.75024    2.00000
   25    -34.75012    2.00000
   26    -34.74961    2.00000
   27    -34.74951    2.00000
   28    -34.74865    2.00000
   29    -34.74760    2.00000
   30    -34.74592    2.00000
   31    -34.74345    2.00000
   32    -34.74187    2.00000
   33    -34.73809    2.00000
   34    -34.72452    2.00000
   35    -34.65925    2.00000
   36    -34.64420    2.00000
   37    -34.60793    2.00000
   38    -34.60635    2.00000
   39    -34.60511    2.00000
   40    -34.60359    2.00000
   41    -34.60264    2.00000
   42    -34.60187    2.00000
   43    -34.60183    2.00000
   44    -34.60136    2.00000
   45    -34.60106    2.00000
   46    -34.60058    2.00000
   47    -34.60053    2.00000
   48    -34.60024    2.00000
   49    -34.60008    2.00000
   50    -34.60000    2.00000
   51    -34.59910    2.00000
   52    -34.59895    2.00000
   53    -34.59815    2.00000
   54    -34.59783    2.00000
   55    -34.59740    2.00000
   56    -34.59618    2.00000
   57    -34.59571    2.00000
   58    -34.59503    2.00000
   59    -34.59456    2.00000
   60    -34.59426    2.00000
   61    -34.59382    2.00000
   62    -34.59360    2.00000
   63    -34.59323    2.00000
   64    -34.59313    2.00000
   65    -34.59304    2.00000
   66    -34.59286    2.00000
   67    -34.59229    2.00000
   68    -34.59133    2.00000
   69    -34.58988    2.00000
   70    -34.58942    2.00000
   71    -34.58512    2.00000
   72    -34.58478    2.00000
   73    -18.73756    2.00000
   74    -18.71499    2.00000
   75    -18.70342    2.00000
   76    -18.27347    2.00000
   77    -18.26653    2.00000
   78    -18.26490    2.00000
   79    -18.26309    2.00000
   80    -18.26259    2.00000
   81    -18.26175    2.00000
   82    -18.26044    2.00000
   83    -18.26030    2.00000
   84    -18.25897    2.00000
   85    -18.25873    2.00000
   86    -18.25853    2.00000
   87    -18.25845    2.00000
   88    -18.25803    2.00000
   89    -18.25621    2.00000
   90    -18.25595    2.00000
   91    -18.25580    2.00000
   92    -18.25514    2.00000
   93    -18.25485    2.00000
   94    -18.25422    2.00000
   95    -18.25402    2.00000
   96    -18.25368    2.00000
   97    -18.25343    2.00000
   98    -18.25252    2.00000
   99    -18.25194    2.00000
  100    -18.25168    2.00000
  101    -18.25121    2.00000
  102    -18.25113    2.00000
  103    -18.25088    2.00000
  104    -18.25069    2.00000
  105    -18.25021    2.00000
  106    -18.25015    2.00000
  107    -18.24951    2.00000
  108    -18.24937    2.00000
  109    -18.24887    2.00000
  110    -18.24871    2.00000
  111    -18.24842    2.00000
  112    -18.24807    2.00000
  113    -18.24801    2.00000
  114    -18.24799    2.00000
  115    -18.24724    2.00000
  116    -18.24683    2.00000
  117    -18.24663    2.00000
  118    -18.24642    2.00000
  119    -18.24625    2.00000
  120    -18.24601    2.00000
  121    -18.24577    2.00000
  122    -18.24570    2.00000
  123    -18.24511    2.00000
  124    -18.24478    2.00000
  125    -18.24469    2.00000
  126    -18.24357    2.00000
  127    -18.24339    2.00000
  128    -18.24316    2.00000
  129    -18.24286    2.00000
  130    -18.24222    2.00000
  131    -18.24100    2.00000
  132    -18.24077    2.00000
  133    -18.23855    2.00000
  134    -18.23618    2.00000
  135    -18.23557    2.00000
  136    -18.23502    2.00000
  137    -18.23414    2.00000
  138    -18.23330    2.00000
  139    -18.23131    2.00000
  140    -18.23087    2.00000
  141    -18.22969    2.00000
  142    -18.22856    2.00000
  143    -18.22710    2.00000
  144    -18.22646    2.00000
  145    -18.22619    2.00000
  146    -18.22466    2.00000
  147    -18.22449    2.00000
  148    -18.22385    2.00000
  149    -18.22300    2.00000
  150    -18.22177    2.00000
  151    -18.22002    2.00000
  152    -18.21947    2.00000
  153    -18.21843    2.00000
  154    -18.21777    2.00000
  155    -18.21761    2.00000
  156    -18.21754    2.00000
  157    -18.21698    2.00000
  158    -18.21641    2.00000
  159    -18.21563    2.00000
  160    -18.21545    2.00000
  161    -18.21522    2.00000
  162    -18.21471    2.00000
  163    -18.21336    2.00000
  164    -18.21310    2.00000
  165    -18.21243    2.00000
  166    -18.21235    2.00000
  167    -18.21038    2.00000
  168    -18.20952    2.00000
  169    -18.20830    2.00000
  170    -18.20749    2.00000
  171    -18.20584    2.00000
  172    -18.20422    2.00000
  173    -18.20413    2.00000
  174    -18.20336    2.00000
  175    -18.20242    2.00000
  176    -18.20130    2.00000
  177    -18.19459    2.00000
  178    -18.16005    2.00000
  179    -18.15716    2.00000
  180    -18.14743    2.00000
  181    -18.14165    2.00000
  182    -18.13488    2.00000
  183    -18.12476    2.00000
  184    -18.12249    2.00000
  185    -18.11941    2.00000
  186    -18.11828    2.00000
  187    -18.11746    2.00000
  188    -18.11675    2.00000
  189    -18.11601    2.00000
  190    -18.11598    2.00000
  191    -18.11515    2.00000
  192    -18.11435    2.00000
  193    -18.11213    2.00000
  194    -18.11128    2.00000
  195    -18.11080    2.00000
  196    -18.11036    2.00000
  197    -18.10876    2.00000
  198    -18.10852    2.00000
  199    -18.10808    2.00000
  200    -18.10727    2.00000
  201    -18.10591    2.00000
  202    -18.10537    2.00000
  203    -18.10504    2.00000
  204    -18.10475    2.00000
  205    -18.10462    2.00000
  206    -18.10402    2.00000
  207    -18.10329    2.00000
  208    -18.10237    2.00000
  209    -18.10180    2.00000
  210    -18.09964    2.00000
  211    -18.09951    2.00000
  212    -18.09936    2.00000
  213    -18.09844    2.00000
  214    -18.09831    2.00000
  215    -18.09743    2.00000
  216    -18.09711    2.00000
  217    -18.09700    2.00000
  218    -18.09660    2.00000
  219    -18.09576    2.00000
  220    -18.09350    2.00000
  221    -18.09313    2.00000
  222    -18.09214    2.00000
  223    -18.09098    2.00000
  224    -18.09029    2.00000
  225    -18.08878    2.00000
  226    -18.08749    2.00000
  227    -18.08642    2.00000
  228    -18.08543    2.00000
  229    -18.08473    2.00000
  230    -18.08366    2.00000
  231    -18.08291    2.00000
  232    -18.08281    2.00000
  233    -18.08256    2.00000
  234    -18.08225    2.00000
  235    -18.08154    2.00000
  236    -18.08117    2.00000
  237    -18.08110    2.00000
  238    -18.08049    2.00000
  239    -18.07917    2.00000
  240    -18.07846    2.00000
  241    -18.07778    2.00000
  242    -18.07725    2.00000
  243    -18.07656    2.00000
  244    -18.07496    2.00000
  245    -18.07470    2.00000
  246    -18.07409    2.00000
  247    -18.07375    2.00000
  248    -18.07341    2.00000
  249    -18.07305    2.00000
  250    -18.07292    2.00000
  251    -18.07227    2.00000
  252    -18.07171    2.00000
  253    -18.07143    2.00000
  254    -18.07108    2.00000
  255    -18.07070    2.00000
  256    -18.07042    2.00000
  257    -18.06921    2.00000
  258    -18.06886    2.00000
  259    -18.06880    2.00000
  260    -18.06847    2.00000
  261    -18.06807    2.00000
  262    -18.06772    2.00000
  263    -18.06763    2.00000
  264    -18.06723    2.00000
  265    -18.06708    2.00000
  266    -18.06689    2.00000
  267    -18.06611    2.00000
  268    -18.06566    2.00000
  269    -18.06508    2.00000
  270    -18.06481    2.00000
  271    -18.06462    2.00000
  272    -18.06390    2.00000
  273    -18.06374    2.00000
  274    -18.06332    2.00000
  275    -18.06311    2.00000
  276    -18.06253    2.00000
  277    -18.06193    2.00000
  278    -18.06125    2.00000
  279    -18.06019    2.00000
  280    -18.05942    2.00000
  281    -18.05924    2.00000
  282    -18.05906    2.00000
  283    -18.05898    2.00000
  284    -18.05841    2.00000
  285    -18.05825    2.00000
  286    -18.05763    2.00000
  287    -18.05727    2.00000
  288    -18.05692    2.00000
  289    -18.05497    2.00000
  290    -18.05416    2.00000
  291    -18.05259    2.00000
  292     -4.53832    2.00000
  293     -4.19433    1.99999
  294     -4.18502    1.99999
  295     -4.14848    1.99998
  296     -3.85083    1.99989
  297     -3.84919    1.99989
  298     -3.81369    1.99986
  299     -3.79805    1.99984
  300     -3.53735    1.99910
  301     -3.51920    1.99898
  302     -3.51203    1.99893
  303     -3.50896    1.99891
  304     -3.50752    1.99890
  305     -3.47095    1.99860
  306     -3.46299    1.99852
  307     -3.21847    1.99249
  308     -3.18877    1.99085
  309     -3.18498    1.99061
  310     -3.17182    1.98976
  311     -3.14497    1.98776
  312     -3.13969    1.98733
  313     -3.13564    1.98698
  314     -3.13077    1.98656
  315     -2.88259    1.93163
  316     -2.84453    1.91274
  317     -2.81856    1.89709
  318     -2.81711    1.89615
  319     -2.72542    1.81665
  320     -2.56929    1.55546
  321     -2.54442    1.49550
  322     -2.54185    1.48902
  323     -2.54140    1.48788
  324     -2.53915    1.48213
  325     -2.53257    1.46514
  326     -2.52086    1.43398
  327     -2.51552    1.41943
  328     -2.41847    1.12286
  329     -2.35802    0.92216
  330     -2.22687    0.52604
  331     -2.21102    0.48612
  332     -2.18725    0.43019
  333     -2.18602    0.42742
  334     -2.18565    0.42660
  335     -2.18186    0.41819
  336     -2.10552    0.27425
  337     -2.04547    0.19248
  338     -1.94371    0.10254
  339     -1.94343    0.10235
  340     -1.91985    0.08812
  341     -1.75497    0.03024
  342     -1.75272    0.02980
  343     -1.73434    0.02641
  344     -1.71233    0.02285
  345     -1.66789    0.01704
  346     -1.64944    0.01508
  347     -1.64752    0.01489
  348     -1.64214    0.01437
  349     -1.64140    0.01430
  350     -1.62673    0.01298
  351     -1.62064    0.01246
  352     -1.60872    0.01152
  353     -1.60582    0.01130
  354     -1.60003    0.01087
  355     -1.58754    0.01001
  356     -1.58644    0.00993
  357     -1.58375    0.00976
  358     -1.53121    0.00689
  359     -1.41617    0.00320
  360     -1.41055    0.00309
  361     -1.36920    0.00234
  362     -1.34391    0.00198
  363     -1.31368    0.00162
  364     -1.27136    0.00122

Fermi level: -2.38142

Gap: 0.060 eV
Transition (v -> c):
  (s=0, k=0, n=328, [0.00, 0.00, 0.00]) -> (s=0, k=0, n=329, [0.00, 0.00, 0.00])
No difference between direct/indirect transitions

Forces in eV/Ang:
  0 K     0.00002   -0.00017   -0.02444
  1 K    -0.00571    0.00501   -0.02912
  2 K     0.00013   -0.00424   -0.01212
  3 K    -0.00345    0.00212   -0.00649
  4 K     0.01201   -0.00035    0.02563
  5 K     0.02049   -0.01217    0.01608
  6 K    -0.03197   -0.02048    0.02851
  7 K     0.00652    0.00380    0.01938
  8 K    -0.00074    0.00051   -0.02588
  9 K     0.00202   -0.00158   -0.02090
 10 K    -0.01515    0.00205   -0.03011
 11 K    -0.00025   -0.00109    0.00695
 12 K    -0.00687    0.00145    0.02576
 13 K    -0.00610   -0.00045    0.03080
 14 K    -0.00224   -0.00975    0.03273
 15 K     0.00480   -0.00127    0.02888
 16 K    -0.00235   -0.00034   -0.02561
 17 K    -0.00666   -0.00342   -0.02772
 18 K    -0.00861    0.00244   -0.01291
 19 K    -0.00205   -0.00112   -0.00487
 20 K    -0.00730   -0.00094    0.02257
 21 K    -0.00765    0.00820    0.01726
 22 K     0.00529    0.00038    0.02189
 23 K     0.00028   -0.00322    0.01278
 24 K    -0.00383    0.00065   -0.02124
 25 K    -0.00027   -0.00016   -0.02574
 26 K     0.00536   -0.00376   -0.00483
 27 K     0.01265    0.01213   -0.01589
 28 K    -0.00548    0.03281    0.02845
 29 K    -0.02368    0.01235    0.01863
 30 K    -0.01511    0.00551    0.03439
 31 K     0.06405    0.04778   -0.03859
 32 K     0.00606   -0.00717   -0.02694
 33 K     0.00211   -0.00022   -0.02329
 34 K     0.00459    0.00260   -0.00958
 35 K    -0.00525    0.02641   -0.03332
 36 K     0.00334   -0.01659    0.02206
 37 K     0.00575    0.00027    0.02133
 38 K    -0.00845   -0.00550    0.03213
 39 K    -0.00108   -0.00106    0.02400
 40 K     0.00715    0.00648   -0.02691
 41 K     0.00113    0.00037   -0.02529
 42 K    -0.00112    0.00143    0.00548
 43 K     0.01208   -0.03873   -0.04764
 44 K     0.00513   -0.00173    0.02395
 45 K     0.00636   -0.00022    0.02635
 46 K    -0.00949    0.00003    0.02423
 47 K     0.00016    0.01453    0.03860
 48 K     0.00405   -0.00106   -0.02362
 49 K     0.00579    0.00597   -0.02983
 50 K    -0.00494   -0.00024    0.00278
 51 K    -0.00966    0.01131   -0.00580
 52 K     0.00099   -0.00160    0.01608
 53 K    -0.00250   -0.00307    0.01521
 54 K     0.00049   -0.00015    0.02288
 55 K    -0.00484    0.00262    0.02485
 56 K    -0.00483   -0.00371   -0.03091
 57 K    -0.00503    0.00115   -0.02632
 58 K     0.01065   -0.01115   -0.00587
 59 K     0.00520   -0.00012    0.00365
 60 K     0.00469    0.00264    0.01333
 61 K    -0.00019    0.00060    0.01211
 62 K     0.00765   -0.00528    0.02569
 63 K    -0.00342   -0.00536    0.02765
 64 K    -0.00377    0.00474   -0.03254
 65 K     0.00490   -0.00713   -0.03173
 66 K     0.01004    0.01137   -0.00611
 67 K    -0.01043   -0.01138   -0.00542
 68 K     0.00378   -0.00408    0.01388
 69 K    -0.00251    0.00347    0.01547
 70 K     0.00771    0.00575    0.02558
 71 K    -0.01000    0.00095    0.02793
 72 K    -0.00175   -0.01677    0.06030

System changes: positions 

Initializing position-dependent things.

Density initialized from wave functions
           .------------------------------------------------------.  
          /|                                                      |  
         / |                                                      |  
        /  |                                                      |  
       /   |                                                      |  
      /    |                                                      |  
     /     |                                                      |  
    /      |                                                      |  
   /       |                                                      |  
  /        |                                                      |  
 *         |                                                      |  
 |         |                                                      |  
 |         |                                                      |  
[...]

Converged after 3 iterations.

Dipole moment: (-90.733762, -54.357592, 0.451562) |e|*Ang

Energy contributions relative to reference atoms: (reference = -1195904.484944)

Kinetic:       +121.549064
Potential:     -104.624679
External:        +0.000000
XC:             -78.838252
Entropy (-ST):   -3.802186
Local:           +2.313633
SIC:             +0.000000
--------------------------
Free energy:    -63.402420
Extrapolated:   -61.501327

 Band  Eigenvalues  Occupancy
    0    -35.24192    2.00000
    1    -34.76857    2.00000
    2    -34.76631    2.00000
    3    -34.76593    2.00000
    4    -34.76266    2.00000
    5    -34.76034    2.00000
    6    -34.75828    2.00000
    7    -34.75727    2.00000
    8    -34.75704    2.00000
    9    -34.75565    2.00000
   10    -34.75431    2.00000
   11    -34.75361    2.00000
   12    -34.75344    2.00000
   13    -34.75294    2.00000
   14    -34.75190    2.00000
   15    -34.75155    2.00000
   16    -34.75129    2.00000
   17    -34.75106    2.00000
   18    -34.75086    2.00000
   19    -34.75054    2.00000
   20    -34.75024    2.00000
   21    -34.75017    2.00000
   22    -34.74987    2.00000
   23    -34.74963    2.00000
   24    -34.74928    2.00000
   25    -34.74918    2.00000
   26    -34.74910    2.00000
   27    -34.74859    2.00000
   28    -34.74743    2.00000
   29    -34.74712    2.00000
   30    -34.74453    2.00000
   31    -34.74175    2.00000
   32    -34.74010    2.00000
   33    -34.73722    2.00000
   34    -34.72371    2.00000
   35    -34.65811    2.00000
   36    -34.64230    2.00000
   37    -34.60699    2.00000
   38    -34.60514    2.00000
   39    -34.60392    2.00000
   40    -34.60226    2.00000
   41    -34.60182    2.00000
   42    -34.60106    2.00000
   43    -34.60089    2.00000
   44    -34.60046    2.00000
   45    -34.60016    2.00000
   46    -34.59978    2.00000
   47    -34.59945    2.00000
   48    -34.59934    2.00000
   49    -34.59922    2.00000
   50    -34.59900    2.00000
   51    -34.59810    2.00000
   52    -34.59777    2.00000
   53    -34.59708    2.00000
   54    -34.59700    2.00000
   55    -34.59634    2.00000
   56    -34.59567    2.00000
   57    -34.59477    2.00000
   58    -34.59422    2.00000
   59    -34.59320    2.00000
   60    -34.59293    2.00000
   61    -34.59247    2.00000
   62    -34.59233    2.00000
   63    -34.59188    2.00000
   64    -34.59180    2.00000
   65    -34.59166    2.00000
   66    -34.59140    2.00000
   67    -34.59102    2.00000
   68    -34.58987    2.00000
   69    -34.58824    2.00000
   70    -34.58774    2.00000
   71    -34.58395    2.00000
   72    -34.58370    2.00000
   73    -18.73694    2.00000
   74    -18.71509    2.00000
   75    -18.70360    2.00000
   76    -18.27243    2.00000
   77    -18.26589    2.00000
   78    -18.26369    2.00000
   79    -18.26214    2.00000
   80    -18.26148    2.00000
   81    -18.26096    2.00000
   82    -18.26012    2.00000
   83    -18.25957    2.00000
   84    -18.25820    2.00000
   85    -18.25817    2.00000
   86    -18.25791    2.00000
   87    -18.25760    2.00000
   88    -18.25716    2.00000
   89    -18.25586    2.00000
   90    -18.25521    2.00000
   91    -18.25503    2.00000
   92    -18.25456    2.00000
   93    -18.25416    2.00000
   94    -18.25355    2.00000
   95    -18.25344    2.00000
   96    -18.25301    2.00000
   97    -18.25283    2.00000
   98    -18.25193    2.00000
   99    -18.25111    2.00000
  100    -18.25084    2.00000
  101    -18.25054    2.00000
  102    -18.25035    2.00000
  103    -18.25025    2.00000
  104    -18.24991    2.00000
  105    -18.24954    2.00000
  106    -18.24937    2.00000
  107    -18.24888    2.00000
  108    -18.24869    2.00000
  109    -18.24800    2.00000
  110    -18.24782    2.00000
  111    -18.24776    2.00000
  112    -18.24742    2.00000
  113    -18.24713    2.00000
  114    -18.24700    2.00000
  115    -18.24631    2.00000
  116    -18.24596    2.00000
  117    -18.24588    2.00000
  118    -18.24567    2.00000
  119    -18.24538    2.00000
  120    -18.24504    2.00000
  121    -18.24504    2.00000
  122    -18.24483    2.00000
  123    -18.24459    2.00000
  124    -18.24393    2.00000
  125    -18.24373    2.00000
  126    -18.24279    2.00000
  127    -18.24243    2.00000
  128    -18.24194    2.00000
  129    -18.24166    2.00000
  130    -18.24149    2.00000
  131    -18.24006    2.00000
  132    -18.23938    2.00000
  133    -18.23684    2.00000
  134    -18.23549    2.00000
  135    -18.23491    2.00000
  136    -18.23414    2.00000
  137    -18.23343    2.00000
  138    -18.23258    2.00000
  139    -18.23052    2.00000
  140    -18.23018    2.00000
  141    -18.22886    2.00000
  142    -18.22777    2.00000
  143    -18.22629    2.00000
  144    -18.22566    2.00000
  145    -18.22550    2.00000
  146    -18.22382    2.00000
  147    -18.22358    2.00000
  148    -18.22310    2.00000
  149    -18.22220    2.00000
  150    -18.22113    2.00000
  151    -18.21940    2.00000
  152    -18.21864    2.00000
  153    -18.21758    2.00000
  154    -18.21701    2.00000
  155    -18.21679    2.00000
  156    -18.21678    2.00000
  157    -18.21596    2.00000
  158    -18.21544    2.00000
  159    -18.21520    2.00000
  160    -18.21452    2.00000
  161    -18.21432    2.00000
  162    -18.21421    2.00000
  163    -18.21285    2.00000
  164    -18.21229    2.00000
  165    -18.21186    2.00000
  166    -18.21133    2.00000
  167    -18.20987    2.00000
  168    -18.20884    2.00000
  169    -18.20737    2.00000
  170    -18.20654    2.00000
  171    -18.20478    2.00000
  172    -18.20339    2.00000
  173    -18.20285    2.00000
  174    -18.20201    2.00000
  175    -18.20161    2.00000
  176    -18.19999    2.00000
  177    -18.19370    2.00000
  178    -18.15873    2.00000
  179    -18.15552    2.00000
  180    -18.14598    2.00000
  181    -18.14055    2.00000
  182    -18.13363    2.00000
  183    -18.12367    2.00000
  184    -18.12102    2.00000
  185    -18.11801    2.00000
  186    -18.11729    2.00000
  187    -18.11639    2.00000
  188    -18.11561    2.00000
  189    -18.11511    2.00000
  190    -18.11496    2.00000
  191    -18.11381    2.00000
  192    -18.11308    2.00000
  193    -18.11082    2.00000
  194    -18.11018    2.00000
  195    -18.10973    2.00000
  196    -18.10933    2.00000
  197    -18.10764    2.00000
  198    -18.10746    2.00000
  199    -18.10690    2.00000
  200    -18.10608    2.00000
  201    -18.10461    2.00000
  202    -18.10429    2.00000
  203    -18.10389    2.00000
  204    -18.10348    2.00000
  205    -18.10333    2.00000
  206    -18.10283    2.00000
  207    -18.10213    2.00000
  208    -18.10116    2.00000
  209    -18.10067    2.00000
  210    -18.09847    2.00000
  211    -18.09834    2.00000
  212    -18.09812    2.00000
  213    -18.09733    2.00000
  214    -18.09710    2.00000
  215    -18.09622    2.00000
  216    -18.09585    2.00000
  217    -18.09579    2.00000
  218    -18.09537    2.00000
  219    -18.09459    2.00000
  220    -18.09234    2.00000
  221    -18.09208    2.00000
  222    -18.09100    2.00000
  223    -18.08983    2.00000
  224    -18.08910    2.00000
  225    -18.08763    2.00000
  226    -18.08633    2.00000
  227    -18.08521    2.00000
  228    -18.08427    2.00000
  229    -18.08359    2.00000
  230    -18.08254    2.00000
  231    -18.08184    2.00000
  232    -18.08164    2.00000
  233    -18.08144    2.00000
  234    -18.08115    2.00000
  235    -18.08039    2.00000
  236    -18.08007    2.00000
  237    -18.07995    2.00000
  238    -18.07936    2.00000
  239    -18.07808    2.00000
  240    -18.07735    2.00000
  241    -18.07670    2.00000
  242    -18.07609    2.00000
  243    -18.07547    2.00000
  244    -18.07386    2.00000
  245    -18.07358    2.00000
  246    -18.07297    2.00000
  247    -18.07277    2.00000
  248    -18.07229    2.00000
  249    -18.07195    2.00000
  250    -18.07182    2.00000
  251    -18.07126    2.00000
  252    -18.07055    2.00000
  253    -18.07027    2.00000
  254    -18.07002    2.00000
  255    -18.06964    2.00000
  256    -18.06925    2.00000
  257    -18.06803    2.00000
  258    -18.06768    2.00000
  259    -18.06759    2.00000
  260    -18.06719    2.00000
  261    -18.06689    2.00000
  262    -18.06665    2.00000
  263    -18.06641    2.00000
  264    -18.06610    2.00000
  265    -18.06594    2.00000
  266    -18.06561    2.00000
  267    -18.06505    2.00000
  268    -18.06444    2.00000
  269    -18.06395    2.00000
  270    -18.06367    2.00000
  271    -18.06345    2.00000
  272    -18.06287    2.00000
  273    -18.06267    2.00000
  274    -18.06221    2.00000
  275    -18.06203    2.00000
  276    -18.06139    2.00000
  277    -18.06064    2.00000
  278    -18.06013    2.00000
  279    -18.05909    2.00000
  280    -18.05818    2.00000
  281    -18.05796    2.00000
  282    -18.05779    2.00000
  283    -18.05768    2.00000
  284    -18.05721    2.00000
  285    -18.05702    2.00000
  286    -18.05629    2.00000
  287    -18.05612    2.00000
  288    -18.05564    2.00000
  289    -18.05359    2.00000
  290    -18.05325    2.00000
  291    -18.05113    2.00000
  292     -4.53676    2.00000
  293     -4.19280    1.99999
  294     -4.18345    1.99999
  295     -4.14735    1.99998
  296     -3.84935    1.99989
  297     -3.84762    1.99989
  298     -3.81234    1.99986
  299     -3.79700    1.99984
  300     -3.53587    1.99910
  301     -3.51760    1.99898
  302     -3.51054    1.99893
  303     -3.50769    1.99891
  304     -3.50605    1.99890
  305     -3.46979    1.99860
  306     -3.46189    1.99852
  307     -3.21714    1.99247
  308     -3.18725    1.99082
  309     -3.18346    1.99059
  310     -3.17087    1.98977
  311     -3.14379    1.98776
  312     -3.13850    1.98732
  313     -3.13457    1.98698
  314     -3.12972    1.98656
  315     -2.88151    1.93163
  316     -2.84354    1.91279
  317     -2.81747    1.89709
  318     -2.81601    1.89613
  319     -2.72472    1.81708
  320     -2.56820    1.55542
  321     -2.54284    1.49426
  322     -2.54037    1.48800
  323     -2.53984    1.48666
  324     -2.53767    1.48112
  325     -2.53151    1.46519
  326     -2.51988    1.43426
  327     -2.51459    1.41985
  328     -2.41770    1.12390
  329     -2.35734    0.92348
  330     -2.22599    0.52657
  331     -2.20999    0.48623
  332     -2.18610    0.43005
  333     -2.18489    0.42732
  334     -2.18449    0.42643
  335     -2.18078    0.41820
  336     -2.10482    0.27486
  337     -2.04474    0.19290
  338     -1.94216    0.10223
  339     -1.94191    0.10207
  340     -1.91924    0.08838
  341     -1.75412    0.03029
  342     -1.75192    0.02986
  343     -1.73363    0.02647
  344     -1.71168    0.02291
  345     -1.66632    0.01698
  346     -1.64792    0.01504
  347     -1.64604    0.01485
  348     -1.64058    0.01432
  349     -1.63987    0.01426
  350     -1.62603    0.01301
  351     -1.61948    0.01246
  352     -1.60765    0.01152
  353     -1.60456    0.01128
  354     -1.59905    0.01088
  355     -1.58664    0.01002
  356     -1.58531    0.00993
  357     -1.58269    0.00976
  358     -1.53061    0.00691
  359     -1.41564    0.00322
  360     -1.40985    0.00309
  361     -1.36802    0.00234
  362     -1.34335    0.00199
  363     -1.31299    0.00162
  364     -1.27016    0.00122

Fermi level: -2.38034

Gap: 0.060 eV
Transition (v -> c):
  (s=0, k=0, n=328, [0.00, 0.00, 0.00]) -> (s=0, k=0, n=329, [0.00, 0.00, 0.00])
No difference between direct/indirect transitions

Forces in eV/Ang:
  0 K    -0.00017   -0.00013   -0.02287
  1 K    -0.00602    0.00489   -0.02718
  2 K     0.00005   -0.00412   -0.01244
  3 K    -0.00334    0.00202   -0.00601
  4 K     0.01104    0.00033    0.02294
  5 K     0.01888   -0.01075    0.01699
  6 K    -0.02889   -0.01775    0.02926
  7 K     0.00616    0.00350    0.01886
  8 K    -0.00124    0.00061   -0.02441
  9 K     0.00141   -0.00178   -0.01914
 10 K    -0.01533    0.00181   -0.02956
 11 K    -0.00013   -0.00130    0.00688
 12 K    -0.00550    0.00079    0.02572
 13 K    -0.00490   -0.00051    0.03018
 14 K    -0.00057   -0.01006    0.03119
 15 K     0.00477   -0.00082    0.02822
 16 K    -0.00317   -0.00048   -0.02432
 17 K    -0.00707   -0.00310   -0.02586
 18 K    -0.00875    0.00247   -0.01228
 19 K    -0.00198   -0.00081   -0.00468
 20 K    -0.00658   -0.00091    0.02340
 21 K    -0.00606    0.00727    0.01723
 22 K     0.00535    0.00015    0.02042
 23 K     0.00040   -0.00356    0.01245
 24 K    -0.00364    0.00085   -0.01924
 25 K    -0.00005   -0.00024   -0.02403
 26 K     0.00525   -0.00363   -0.00438
 27 K     0.01278    0.01206   -0.01640
 28 K    -0.00500    0.02835    0.02679
 29 K    -0.02034    0.01029    0.01899
 30 K    -0.01391    0.00535    0.03219
 31 K     0.05149    0.03863   -0.02523
 32 K     0.00627   -0.00755   -0.02503
 33 K     0.00294   -0.00012   -0.02178
 34 K     0.00455    0.00249   -0.00957
 35 K    -0.00516    0.02600   -0.03237
 36 K     0.00346   -0.01276    0.01887
 37 K     0.00556   -0.00020    0.02155
 38 K    -0.00745   -0.00458    0.02975
 39 K    -0.00220   -0.00164    0.02210
 40 K     0.00755    0.00667   -0.02506
 41 K     0.00172    0.00036   -0.02368
 42 K    -0.00111    0.00159    0.00552
 43 K     0.01223   -0.03793   -0.04638
 44 K     0.00480   -0.00117    0.02316
 45 K     0.00439    0.00047    0.02543
 46 K    -0.01007   -0.00014    0.02230
 47 K    -0.00067    0.01584    0.03659
 48 K     0.00406   -0.00139   -0.02241
 49 K     0.00588    0.00626   -0.02866
 50 K    -0.00471    0.00003    0.00301
 51 K    -0.00989    0.01116   -0.00544
 52 K     0.00033   -0.00066    0.01680
 53 K    -0.00216   -0.00305    0.01486
 54 K     0.00045   -0.00009    0.02007
 55 K    -0.00556    0.00271    0.02327
 56 K    -0.00455   -0.00321   -0.02983
 57 K    -0.00524    0.00142   -0.02552
 58 K     0.01087   -0.01152   -0.00612
 59 K     0.00498   -0.00025    0.00283
 60 K     0.00409    0.00130    0.01340
 61 K    -0.00005    0.00025    0.01299
 62 K     0.00767   -0.00519    0.02447
 63 K    -0.00332   -0.00530    0.02515
 64 K    -0.00336    0.00457   -0.03165
 65 K     0.00472   -0.00769   -0.03083
 66 K     0.01019    0.01149   -0.00691
 67 K    -0.01069   -0.01115   -0.00574
 68 K     0.00340   -0.00338    0.01449
 69 K    -0.00215    0.00387    0.01566
 70 K     0.00747    0.00549    0.02450
 71 K    -0.01043    0.00082    0.02699
 72 K    -0.00137   -0.01562    0.05278

Timing:                                       incl.     excl.
--------------------------------------------------------------------
Basic WFS set positions:                      0.108     0.012   0.0% |
 Redistribute:                                0.096     0.096   0.0% |
Basis functions set positions:                8.847     8.847   0.1% |
Forces:                                     770.499     3.691   0.0% |
 LCAO forces:                               766.807     0.454   0.0% |
  Atomic Hamiltonian force:                   5.980     5.980   0.0% |
  Initial:                                    0.243     0.000   0.0% |
   Get density matrix:                        0.243     0.243   0.0% |
  Paw correction:                             6.557     6.557   0.0% |
  Potential:                                738.753   738.753   4.5% |-|
  TCI derivative:                            14.820    14.820   0.1% |
  Wait for sum:                               0.000     0.000   0.0% |
LCAO WFS Initialize:                        210.473     0.969   0.0% |
 Density initialized from wave functions:   164.269    12.339   0.1% |
  Calculate density matrix:                   1.650     1.650   0.0% |
  Construct density:                        150.277   150.277   0.9% |
  Symmetrize density:                         0.003     0.003   0.0% |
 Hamiltonian:                                45.236     0.010   0.0% |
  Atomic:                                     7.721     0.042   0.0% |
   XC Correction:                             7.679     7.679   0.0% |
  Calculate atomic Hamiltonians:              0.623     0.623   0.0% |
  Communicate:                                0.000     0.000   0.0% |
  Hartree integrate/restrict:                 2.114     2.114   0.0% |
  Initialize Hamiltonian:                     0.000     0.000   0.0% |
  Poisson:                                   17.620    10.482   0.1% |
   Communicate from 1D:                       0.939     0.939   0.0% |
   Communicate from 2D:                       0.552     0.552   0.0% |
   Communicate to 1D:                         0.470     0.470   0.0% |
   Communicate to 2D:                         1.504     1.504   0.0% |
   FFT 1D:                                    1.843     1.843   0.0% |
   FFT 2D:                                    1.830     1.830   0.0% |
  XC 3D grid:                                13.953    13.953   0.1% |
  vbar:                                       3.194     3.194   0.0% |
P tci:                                        6.276     6.276   0.0% |
Redistribute:                                 0.002     0.002   0.0% |
SCF-cycle:                                 1519.938     0.135   0.0% |
 Density:                                   560.296     0.001   0.0% |
  Atomic density matrices:                    0.144     0.144   0.0% |
  Mix:                                        7.088     7.088   0.0% |
  Multipole moments:                          0.021     0.021   0.0% |
  Normalize:                                  0.021     0.021   0.0% |
  Pseudo density:                           553.020     0.205   0.0% |
   Calculate density matrix:                  0.355     0.355   0.0% |
   Construct density:                       552.458   552.458   3.4% ||
   Symmetrize density:                        0.002     0.002   0.0% |
 Hamiltonian:                               108.834     0.004   0.0% |
  Atomic:                                    32.070     0.087   0.0% |
   XC Correction:                            31.983    31.983   0.2% |
  Calculate atomic Hamiltonians:              1.496     1.496   0.0% |
  Communicate:                                0.001     0.001   0.0% |
  Hartree integrate/restrict:                 1.218     1.218   0.0% |
  Poisson:                                   30.126     2.090   0.0% |
   Communicate from 1D:                       4.181     4.181   0.0% |
   Communicate from 2D:                       2.453     2.453   0.0% |
   Communicate to 1D:                         1.738     1.738   0.0% |
   Communicate to 2D:                         3.895     3.895   0.0% |
   FFT 1D:                                    7.793     7.793   0.0% |
   FFT 2D:                                    7.976     7.976   0.0% |
  XC 3D grid:                                42.058    42.058   0.3% |
  vbar:                                       1.861     1.861   0.0% |
 LCAO eigensolver:                          850.673     0.276   0.0% |
  Calculate projections:                      0.523     0.523   0.0% |
  DenseAtomicCorrection:                      7.334     7.334   0.0% |
  Distribute overlap matrix:                  0.003     0.003   0.0% |
  Orbital Layouts:                           14.243    14.243   0.1% |
  Potential matrix:                         828.294   828.294   5.1% |-|
ST tci:                                       7.763     7.763   0.0% |
Set symmetry:                                 0.001     0.001   0.0% |
TCI: Evaluate splines:                        0.069     0.069   0.0% |
mktci:                                        0.305     0.305   0.0% |
Other:                                    13782.498 13782.498  84.5% |---------------------------------|
--------------------------------------------------------------------
Total:                                              16306.780 100.0%

Memory usage: 3.67 GiB
Date: Wed Nov 26 03:07:07 2025
