
  ___ ___ ___ _ _ _  
 |   |   |_  | | | | 
 | | | | | . | | | | 
 |__ |  _|___|_____|  25.7.0
 |___|_|             

User:   tew@Mathuss-MacBook-Air-357.local
Date:   Wed Nov 26 03:59:44 2025
Arch:   arm64
Pid:    88448
CWD:    /Users/tew/Documents/Project/GitHub/chem-com
Python: 3.13.5
gpaw:   /Users/tew/Documents/Project/GitHub/chem-com/.venv/lib/python3.13/site-packages/gpaw
_gpaw:  /Users/tew/Documents/Project/GitHub/chem-com/.venv/lib/python3.13/site-packages/
        _gpaw.cpython-313-darwin.so
ase:    /Users/tew/Documents/Project/GitHub/chem-com/.venv/lib/python3.13/site-packages/ase (version 3.26.0)
numpy:  /Users/tew/Documents/Project/GitHub/chem-com/.venv/lib/python3.13/site-packages/numpy (version 2.3.5)
scipy:  /Users/tew/Documents/Project/GitHub/chem-com/.venv/lib/python3.13/site-packages/scipy (version 1.16.3)
libxc:  2.x.y
units:  Angstrom and eV
cores: 1
OpenMP: False
OMP_NUM_THREADS: 1

Input parameters:
  basis: dzp
  convergence: {density: 0.0001,
                eigenstates: 5e-06}
  kpts: [1 1 1]
  mode: {interpolation: 3,
         name: lcao}
  occupations: {fixmagmom: False,
                name: fermi-dirac,
                width: 0.15}
  xc: PBE

System changes: positions, numbers, cell, pbc, initial_charges, initial_magmoms 

Initialize ...

species:
  Li:
    name: Lithium
    id: 830b4218f175192f93f959cfc0aad614
    Z: 3.0
    valence: 1
    core: 2
    charge: 0.0
    file: /Users/tew/Documents/Project/GitHub/chem-com/.venv/lib/python3.13/site-packages/gpaw_data/setups/Li.PBE.gz
    compensation charges: {type: gauss,
                           rc: 0.33,
                           lmax: 2}
    cutoffs: {filter: 1.91,
              core: 2.55}
    projectors:
      #              energy  rcut
      - 2s(1.00)    -2.874   1.058
      - 2p(0.00)    -1.090   1.058
      -  s          24.337   1.058
  
    # LCAO basis set for Li:
    #   Name: dzp
    #   File: /Users/tew/Documents/Project/GitHub/chem-com/.venv/lib/python3.13/site-packages/gpaw_data/setups/Li.dzp.basis.gz
    #   Number of radial functions: 3
    #   Number of spherical harmonics: 5
    #     l=0, rc=10.8906 Bohr: 2s-sz confined orbital
    #     l=0, rc=6.6719 Bohr: 2s-dz split-valence wave
    #     l=1, rc=10.8906 Bohr: p-type Gaussian polarization
    #   Number of RI-basis functions 0

Reference energy: -14803.510878  # eV

Spin-paired calculation

Convergence criteria:
 Maximum [total energy] change in last 3 cyles: 0.0005 eV / valence electron
 Maximum integral of absolute [dens]ity change: 0.0001 electrons / valence electron
 Maximum integral of absolute [eigenst]ate change: 5e-06 eV^2 / valence electron
 Maximum number of scf [iter]ations: 333
 (Square brackets indicate name in SCF output, whereas a 'c' in
 the SCF output indicates the quantity has converged.)

Symmetries present (total): 2

  ( 1  0  0)  (-1  0  0)
  ( 0  1  0)  ( 0  1  0)
  ( 0  0  1)  ( 0  0  1)

1 k-point (Gamma)
1 k-point in the irreducible part of the Brillouin zone
       k-points in crystal coordinates                weights
   0:     0.00000000    0.00000000    0.00000000          1/1

Wave functions: LCAO
  Diagonalizer: Serial LAPACK
  Atomic Correction: dense with blas
  Data-type: float
 

Occupation numbers: Fermi-Dirac:
  width: 0.1500  # eV
 

Eigensolver
   LCAO using direct dense diagonalizer 

Densities:
  Coarse grid: 76*52*136 grid
  Fine grid: 152*104*272 grid
  Total Charge: 0.000000 

Density mixing:
  Method: separate
  Backend: pulay
  Linear mixing parameter: 0.05
  old densities: 5
  Damping of long wavelength oscillations: 50 

Hamiltonian:
  XC and Coulomb potentials evaluated on a 152*104*272 grid
  Using the PBE Exchange-Correlation functional
  Interpolation: tri-quintic (5. degree polynomial)
  Poisson solver: FastPoissonSolver using
    Stencil: 6*3+1=19 point O(h^6) finite-difference Laplacian
    FFT axes: [np.int64(0), np.int64(1)]
    FST axes: [np.int64(2)]
 

XC parameters: PBE with 2 nearest neighbor stencil

Memory estimate:
  Process memory now: 3762.67 MiB
  Calculator: 680.35 MiB
    Density: 353.33 MiB
      Arrays: 106.19 MiB
      Localized functions: 206.43 MiB
      Mixer: 40.70 MiB
    Hamiltonian: 85.76 MiB
      Arrays: 69.44 MiB
      XC: 0.00 MiB
      Poisson: 0.00 MiB
      vbar: 16.32 MiB
    Wavefunctions: 241.26 MiB
      C [qnM]: 0.13 MiB
      S, T [2 x qmm]: 2.03 MiB
      P [aqMi]: 0.13 MiB
      BasisFunctions: 238.97 MiB
      Eigensolver: 0.00 MiB

Total number of cores used: 1

Number of atoms: 73
Number of atomic orbitals: 365
Number of bands in calculation: 48
Number of valence electrons: 73
Bands to converge: occupied

... initialized

Initializing position-dependent things.

Density initialized from atomic densities
       .-----------------------------------.  
      /|                                   |  
     / |                                   |  
    /  |                                   |  
   /   |                                   |  
  /    |                                   |  
 *     |                                   |  
 |     |                                   |  
 |     |                                   |  
 |     |                                   |  
 |     |                                   |  
 |     |                                   |  
 |     |                                   |  
 |    Li          Li          Li           |  
 |     |   Li          Li          Li      |  
 |LiLi |        Li          Li             |  
 |     | Li Li       Li Li       Li Li     |  
 |Li Li|      Li Li       Li Li            |  
 |     Li Li       Li Li       Li Li       |  
 | Li  |       Li          Li              |  
 |    LiLi        LiLi        LiLi         |  
 Li    |   LiLi        LiLi        Li      |  
 |  Li |        Li          Li             |  
 |     | Li Li       Li Li       Li Li     |  
 |Li Li|      Li Li       Li Li            |  
 |     Li Li       Li Li       Li Li       |  
 | Li  |       Li          Li              |  
 |     |Li          Li          Li         |  
 Li    |     Li          Li                |  
 |     |                                   |  
 |     |                                   |  
 |     |                                   |  
 |     |                                   |  
 |     |                                   |  
 |     .-----------------------------------.  
 |    /                                   /   
 |   /                                   /    
 |  /                                   /     
 | /                                   /      
 |/                                   /       
 *-----------------------------------*        

Atomic positions and initial magnetic moments

Positions:
   0 Li     0.000000    0.000000   10.000000    ( 0.0000,  0.0000,  0.0000)
   1 Li     2.467803    1.745000   10.000000    ( 0.0000,  0.0000,  0.0000)
   2 Li     2.467803    0.000000   12.467803    ( 0.0000,  0.0000,  0.0000)
   3 Li     0.000000    1.745000   12.467803    ( 0.0000,  0.0000,  0.0000)
   4 Li     0.000000    0.000000   14.935605    ( 0.0000,  0.0000,  0.0000)
   5 Li     2.467803    1.745000   14.935605    ( 0.0000,  0.0000,  0.0000)
   6 Li     2.467803    0.000000   17.403408    ( 0.0000,  0.0000,  0.0000)
   7 Li     0.000000    1.745000   17.403408    ( 0.0000,  0.0000,  0.0000)
   8 Li     0.000000    3.490000   10.000000    ( 0.0000,  0.0000,  0.0000)
   9 Li     2.467803    5.235000   10.000000    ( 0.0000,  0.0000,  0.0000)
  10 Li     2.467803    3.490000   12.467803    ( 0.0000,  0.0000,  0.0000)
  11 Li     0.000000    5.235000   12.467803    ( 0.0000,  0.0000,  0.0000)
  12 Li     0.000000    3.490000   14.935605    ( 0.0000,  0.0000,  0.0000)
  13 Li     2.467803    5.235000   14.935605    ( 0.0000,  0.0000,  0.0000)
  14 Li     2.467803    3.490000   17.403408    ( 0.0000,  0.0000,  0.0000)
  15 Li     0.000000    5.235000   17.403408    ( 0.0000,  0.0000,  0.0000)
  16 Li     0.000000    6.980000   10.000000    ( 0.0000,  0.0000,  0.0000)
  17 Li     2.467803    8.725000   10.000000    ( 0.0000,  0.0000,  0.0000)
  18 Li     2.467803    6.980000   12.467803    ( 0.0000,  0.0000,  0.0000)
  19 Li     0.000000    8.725000   12.467803    ( 0.0000,  0.0000,  0.0000)
  20 Li     0.000000    6.980000   14.935605    ( 0.0000,  0.0000,  0.0000)
  21 Li     2.467803    8.725000   14.935605    ( 0.0000,  0.0000,  0.0000)
  22 Li     2.467803    6.980000   17.403408    ( 0.0000,  0.0000,  0.0000)
  23 Li     0.000000    8.725000   17.403408    ( 0.0000,  0.0000,  0.0000)
  24 Li     4.935605    0.000000   10.000000    ( 0.0000,  0.0000,  0.0000)
  25 Li     7.403408    1.745000   10.000000    ( 0.0000,  0.0000,  0.0000)
  26 Li     7.403408    0.000000   12.467803    ( 0.0000,  0.0000,  0.0000)
  27 Li     4.935605    1.745000   12.467803    ( 0.0000,  0.0000,  0.0000)
  28 Li     4.935605    0.000000   14.935605    ( 0.0000,  0.0000,  0.0000)
  29 Li     7.403408    1.745000   14.935605    ( 0.0000,  0.0000,  0.0000)
  30 Li     7.403408    0.000000   17.403408    ( 0.0000,  0.0000,  0.0000)
  31 Li     4.935605    1.745000   17.403408    ( 0.0000,  0.0000,  0.0000)
  32 Li     4.935605    3.490000   10.000000    ( 0.0000,  0.0000,  0.0000)
  33 Li     7.403408    5.235000   10.000000    ( 0.0000,  0.0000,  0.0000)
  34 Li     7.403408    3.490000   12.467803    ( 0.0000,  0.0000,  0.0000)
  35 Li     4.935605    5.235000   12.467803    ( 0.0000,  0.0000,  0.0000)
  36 Li     4.935605    3.490000   14.935605    ( 0.0000,  0.0000,  0.0000)
  37 Li     7.403408    5.235000   14.935605    ( 0.0000,  0.0000,  0.0000)
  38 Li     7.403408    3.490000   17.403408    ( 0.0000,  0.0000,  0.0000)
  39 Li     4.935605    5.235000   17.403408    ( 0.0000,  0.0000,  0.0000)
  40 Li     4.935605    6.980000   10.000000    ( 0.0000,  0.0000,  0.0000)
  41 Li     7.403408    8.725000   10.000000    ( 0.0000,  0.0000,  0.0000)
  42 Li     7.403408    6.980000   12.467803    ( 0.0000,  0.0000,  0.0000)
  43 Li     4.935605    8.725000   12.467803    ( 0.0000,  0.0000,  0.0000)
  44 Li     4.935605    6.980000   14.935605    ( 0.0000,  0.0000,  0.0000)
  45 Li     7.403408    8.725000   14.935605    ( 0.0000,  0.0000,  0.0000)
  46 Li     7.403408    6.980000   17.403408    ( 0.0000,  0.0000,  0.0000)
  47 Li     4.935605    8.725000   17.403408    ( 0.0000,  0.0000,  0.0000)
  48 Li     9.871211    0.000000   10.000000    ( 0.0000,  0.0000,  0.0000)
  49 Li    12.339013    1.745000   10.000000    ( 0.0000,  0.0000,  0.0000)
  50 Li    12.339013    0.000000   12.467803    ( 0.0000,  0.0000,  0.0000)
  51 Li     9.871211    1.745000   12.467803    ( 0.0000,  0.0000,  0.0000)
  52 Li     9.871211    0.000000   14.935605    ( 0.0000,  0.0000,  0.0000)
  53 Li    12.339013    1.745000   14.935605    ( 0.0000,  0.0000,  0.0000)
  54 Li    12.339013    0.000000   17.403408    ( 0.0000,  0.0000,  0.0000)
  55 Li     9.871211    1.745000   17.403408    ( 0.0000,  0.0000,  0.0000)
  56 Li     9.871211    3.490000   10.000000    ( 0.0000,  0.0000,  0.0000)
  57 Li    12.339013    5.235000   10.000000    ( 0.0000,  0.0000,  0.0000)
  58 Li    12.339013    3.490000   12.467803    ( 0.0000,  0.0000,  0.0000)
  59 Li     9.871211    5.235000   12.467803    ( 0.0000,  0.0000,  0.0000)
  60 Li     9.871211    3.490000   14.935605    ( 0.0000,  0.0000,  0.0000)
  61 Li    12.339013    5.235000   14.935605    ( 0.0000,  0.0000,  0.0000)
  62 Li    12.339013    3.490000   17.403408    ( 0.0000,  0.0000,  0.0000)
  63 Li     9.871211    5.235000   17.403408    ( 0.0000,  0.0000,  0.0000)
  64 Li     9.871211    6.980000   10.000000    ( 0.0000,  0.0000,  0.0000)
  65 Li    12.339013    8.725000   10.000000    ( 0.0000,  0.0000,  0.0000)
  66 Li    12.339013    6.980000   12.467803    ( 0.0000,  0.0000,  0.0000)
  67 Li     9.871211    8.725000   12.467803    ( 0.0000,  0.0000,  0.0000)
  68 Li     9.871211    6.980000   14.935605    ( 0.0000,  0.0000,  0.0000)
  69 Li    12.339013    8.725000   14.935605    ( 0.0000,  0.0000,  0.0000)
  70 Li    12.339013    6.980000   17.403408    ( 0.0000,  0.0000,  0.0000)
  71 Li     9.871211    8.725000   17.403408    ( 0.0000,  0.0000,  0.0000)
  72 Li     0.000000    1.745000   19.403408    ( 0.0000,  0.0000,  0.0000)

Unit cell:
           periodic     x           y           z      points  spacing
  1. axis:    yes   14.806816    0.000000    0.000000    76     0.1948
  2. axis:    yes    0.000000   10.470000    0.000000    52     0.2013
  3. axis:    no     0.000000    0.000000   27.403408   136     0.2015

  Lengths:  14.806816  10.470000  27.403408
  Angles:   90.000000  90.000000  90.000000

Effective grid spacing dv^(1/3) = 0.1992

     iter     time        total  log10-change:
                         energy   eigst   dens
iter:   1 03:59:54  -133.302035        c
iter:   2 04:00:04  -129.990717        c -0.65
iter:   3 04:00:13  -127.546117        c -0.79
iter:   4 04:00:23  -127.330116        c -0.99
iter:   5 04:00:33  -126.628421        c -1.06
iter:   6 04:00:43  -126.491156        c -1.31
iter:   7 04:00:52  -126.366745        c -1.42
iter:   8 04:01:03  -126.342679        c -1.66
iter:   9 04:01:12  -126.312022        c -1.78
iter:  10 04:01:22  -126.308284c       c -2.10
iter:  11 04:01:31  -126.301892c       c -2.20
iter:  12 04:01:41  -126.300789c       c -2.49
iter:  13 04:01:50  -126.300042c       c -2.58
iter:  14 04:02:00  -126.300035c       c -2.70
iter:  15 04:02:09  -126.300161c       c -2.81
iter:  16 04:02:18  -126.300051c       c -2.90
iter:  17 04:02:28  -126.300046c       c -3.04
iter:  18 04:02:37  -126.300281c       c -3.20
iter:  19 04:02:46  -126.300468c       c -3.44
iter:  20 04:02:56  -126.300649c       c -3.61
iter:  21 04:03:06  -126.300678c       c -3.82
iter:  22 04:03:15  -126.300649c       c -3.93
iter:  23 04:03:25  -126.300637c       c -4.03c

Converged after 23 iterations.

Dipole moment: (-13.407518, -8.473859, 0.219589) |e|*Ang

Energy contributions relative to reference atoms: (reference = -14803.510878)

Kinetic:       +131.353961
Potential:     -113.520525
External:        +0.000000
XC:            -142.156396
Entropy (-ST):   -2.156340
Local:           -0.899507
SIC:             +0.000000
--------------------------
Free energy:   -127.378807
Extrapolated:  -126.300637

 Band  Eigenvalues  Occupancy
    0     -6.37569    2.00000
    1     -5.85384    2.00000
    2     -5.85247    2.00000
    3     -5.81469    2.00000
    4     -5.32843    2.00000
    5     -5.32531    2.00000
    6     -5.28843    2.00000
    7     -5.27500    2.00000
    8     -4.81559    1.99999
    9     -4.81086    1.99999
   10     -4.81039    1.99999
   11     -4.80887    1.99999
   12     -4.78415    1.99999
   13     -4.76183    1.99999
   14     -4.72301    1.99999
   15     -4.30086    1.99979
   16     -4.29000    1.99978
   17     -4.27455    1.99975
   18     -4.26105    1.99973
   19     -4.25384    1.99972
   20     -4.24679    1.99970
   21     -4.19235    1.99957
   22     -4.15920    1.99947
   23     -3.74173    1.99144
   24     -3.69082    1.98800
   25     -3.67622    1.98678
   26     -3.66699    1.98595
   27     -3.45235    1.94252
   28     -3.24164    1.78483
   29     -3.24067    1.78358
   30     -3.23140    1.77137
   31     -3.22964    1.76898
   32     -3.20427    1.73210
   33     -3.19868    1.72334
   34     -3.18714    1.70449
   35     -3.16528    1.66587
   36     -2.89678    0.90854
   37     -2.80203    0.61360
   38     -2.68519    0.33763
   39     -2.68507    0.33742
   40     -2.66543    0.30226
   41     -2.66180    0.29610
   42     -2.52911    0.13390
   43     -2.52347    0.12927
   44     -2.37159    0.04898
   45     -2.28557    0.02790
   46     -2.27953    0.02682
   47     -2.14294    0.01087

Fermi level: -2.92430

Gap: 0.269 eV
Transition (v -> c):
  (s=0, k=0, n=35, [0.00, 0.00, 0.00]) -> (s=0, k=0, n=36, [0.00, 0.00, 0.00])
No difference between direct/indirect transitions

Forces in eV/Ang:
  0 Li    0.00000    0.01149    0.09991
  1 Li   -0.00121    0.00190    0.09456
  2 Li    0.00422   -0.00156   -0.01444
  3 Li    0.00000    0.00084    0.00629
  4 Li    0.00000   -0.00281   -0.03801
  5 Li    0.00381    0.00079   -0.01959
  6 Li   -0.11936    0.08733    0.02320
  7 Li    0.00000   -0.00015   -2.19831
  8 Li    0.00000   -0.01142    0.09978
  9 Li    0.01408   -0.00422    0.09719
 10 Li    0.00406    0.00064   -0.01455
 11 Li    0.00000    0.00157   -0.01536
 12 Li    0.00000    0.00244   -0.03916
 13 Li    0.00267    0.00277    0.00501
 14 Li   -0.11789   -0.08889    0.02339
 15 Li    0.00000   -0.11214    0.01845
 16 Li    0.00000   -0.00012    0.11096
 17 Li    0.01515    0.00238    0.09691
 18 Li    0.00011    0.00075   -0.00925
 19 Li    0.00000   -0.00251   -0.01462
 20 Li    0.00000    0.00093    0.00880
 21 Li    0.00274   -0.00346    0.00490
 22 Li    0.00076    0.00180   -0.07716
 23 Li    0.00000    0.11219    0.01838
 24 Li    0.00765   -0.00801    0.08777
 25 Li    0.00000   -0.00008    0.09298
 26 Li    0.00000   -0.00371   -0.01172
 27 Li    0.00343    0.00081   -0.01176
 28 Li   -0.00061   -0.00547    0.01560
 29 Li    0.00000    0.00087    0.01758
 30 Li    0.00000    0.00209   -0.09399
 31 Li   -0.00978    0.00192   -0.08033
 32 Li    0.00660    0.00613    0.08746
 33 Li    0.00000    0.01122    0.07286
 34 Li    0.00000    0.00285   -0.01079
 35 Li    0.00762    0.00063   -0.00912
 36 Li   -0.00047    0.00472    0.01563
 37 Li    0.00000    0.00420   -0.00143
 38 Li    0.00000   -0.00199   -0.09383
 39 Li    0.00430   -0.00234   -0.09134
 40 Li    0.01727    0.00189    0.07840
 41 Li    0.00000   -0.01114    0.07267
 42 Li    0.00000    0.00080   -0.00613
 43 Li    0.00771   -0.00148   -0.00918
 44 Li   -0.00051    0.00088    0.00448
 45 Li    0.00000   -0.00495   -0.00236
 46 Li    0.00000   -0.00007   -0.08563
 47 Li    0.00331    0.00045   -0.09100
 48 Li   -0.00765   -0.00801    0.08777
 49 Li    0.00121    0.00190    0.09456
 50 Li   -0.00422   -0.00156   -0.01444
 51 Li   -0.00343    0.00081   -0.01176
 52 Li    0.00061   -0.00547    0.01560
 53 Li   -0.00381    0.00079   -0.01959
 54 Li    0.11936    0.08733    0.02320
 55 Li    0.00978    0.00192   -0.08033
 56 Li   -0.00660    0.00613    0.08746
 57 Li   -0.01408   -0.00422    0.09719
 58 Li   -0.00406    0.00064   -0.01455
 59 Li   -0.00762    0.00063   -0.00912
 60 Li    0.00047    0.00472    0.01563
 61 Li   -0.00267    0.00277    0.00501
 62 Li    0.11789   -0.08889    0.02339
 63 Li   -0.00430   -0.00234   -0.09134
 64 Li   -0.01727    0.00189    0.07840
 65 Li   -0.01515    0.00238    0.09691
 66 Li   -0.00011    0.00075   -0.00925
 67 Li   -0.00771   -0.00148   -0.00918
 68 Li    0.00051    0.00088    0.00448
 69 Li   -0.00274   -0.00346    0.00490
 70 Li   -0.00076    0.00180   -0.07716
 71 Li   -0.00331    0.00045   -0.09100
 72 Li    0.00000    0.00008    1.58006

System changes: positions 

Initializing position-dependent things.

Density initialized from wave functions
       .-----------------------------------.  
      /|                                   |  
     / |                                   |  
    /  |                                   |  
   /   |                                   |  
  /    |                                   |  
 *     |                                   |  
 |     |                                   |  
 |     |                                   |  
 |     |                                   |  
 |     |                                   |  
 |     |                                   |  
 |     |                                   |  
 |    Li          Li          Li           |  
 |     |   Li          Li          Li      |  
 |LiLi Li       Li Li       Li Li          |  
 |     | Li Li       Li Li       Li Li     |  
 |Li Li|      Li Li       Li Li            |  
 |     Li Li       Li Li       Li Li       |  
 | Li  |       Li          Li              |  
 |    LiLi        LiLi        LiLi         |  
 |     |   Li          Li          Li      |  
 |  Li |        Li          Li             |  
 |     | Li Li       Li Li       Li Li     |  
 |Li Li|      Li Li       Li Li            |  
 |     Li Li       Li Li       Li Li       |  
 | Li  |       Li          Li              |  
 |     |Li          Li          Li         |  
 Li    |     Li          Li                |  
 |     |                                   |  
 |     |                                   |  
 |     |                                   |  
 |     |                                   |  
 |     |                                   |  
 |     .-----------------------------------.  
 |    /                                   /   
 |   /                                   /    
 |  /                                   /     
 | /                                   /      
 |/                                   /       
 *-----------------------------------*        

Atomic positions and initial magnetic moments

Positions:
   0 Li     0.000000    0.000000   10.000000    ( 0.0000,  0.0000,  0.0000)
   1 Li     2.467803    1.745000   10.000000    ( 0.0000,  0.0000,  0.0000)
   2 Li     2.467803    0.000000   12.467803    ( 0.0000,  0.0000,  0.0000)
   3 Li     0.000000    1.745000   12.467803    ( 0.0000,  0.0000,  0.0000)
   4 Li     0.000000   -0.000040   14.935062    ( 0.0000,  0.0000,  0.0000)
   5 Li     2.467857    1.745011   14.935326    ( 0.0000,  0.0000,  0.0000)
   6 Li     2.466098    0.001248   17.403739    ( 0.0000,  0.0000,  0.0000)
   7 Li     0.000000    1.744998   17.372004    ( 0.0000,  0.0000,  0.0000)
   8 Li     0.000000    3.490000   10.000000    ( 0.0000,  0.0000,  0.0000)
   9 Li     2.467803    5.235000   10.000000    ( 0.0000,  0.0000,  0.0000)
  10 Li     2.467803    3.490000   12.467803    ( 0.0000,  0.0000,  0.0000)
  11 Li     0.000000    5.235000   12.467803    ( 0.0000,  0.0000,  0.0000)
  12 Li     0.000000    3.490035   14.935046    ( 0.0000,  0.0000,  0.0000)
  13 Li     2.467841    5.235040   14.935677    ( 0.0000,  0.0000,  0.0000)
  14 Li     2.466119    3.488730   17.403742    ( 0.0000,  0.0000,  0.0000)
  15 Li     0.000000    5.233398   17.403672    ( 0.0000,  0.0000,  0.0000)
  16 Li     0.000000    6.980000   10.000000    ( 0.0000,  0.0000,  0.0000)
  17 Li     2.467803    8.725000   10.000000    ( 0.0000,  0.0000,  0.0000)
  18 Li     2.467803    6.980000   12.467803    ( 0.0000,  0.0000,  0.0000)
  19 Li     0.000000    8.725000   12.467803    ( 0.0000,  0.0000,  0.0000)
  20 Li     0.000000    6.980013   14.935731    ( 0.0000,  0.0000,  0.0000)
  21 Li     2.467842    8.724951   14.935675    ( 0.0000,  0.0000,  0.0000)
  22 Li     2.467813    6.980026   17.402306    ( 0.0000,  0.0000,  0.0000)
  23 Li     0.000000    8.726603   17.403671    ( 0.0000,  0.0000,  0.0000)
  24 Li     4.935605    0.000000   10.000000    ( 0.0000,  0.0000,  0.0000)
  25 Li     7.403408    1.745000   10.000000    ( 0.0000,  0.0000,  0.0000)
  26 Li     7.403408    0.000000   12.467803    ( 0.0000,  0.0000,  0.0000)
  27 Li     4.935605    1.745000   12.467803    ( 0.0000,  0.0000,  0.0000)
  28 Li     4.935597   -0.000078   14.935828    ( 0.0000,  0.0000,  0.0000)
  29 Li     7.403408    1.745012   14.935857    ( 0.0000,  0.0000,  0.0000)
  30 Li     7.403408    0.000030   17.402065    ( 0.0000,  0.0000,  0.0000)
  31 Li     4.935466    1.745027   17.402260    ( 0.0000,  0.0000,  0.0000)
  32 Li     4.935605    3.490000   10.000000    ( 0.0000,  0.0000,  0.0000)
  33 Li     7.403408    5.235000   10.000000    ( 0.0000,  0.0000,  0.0000)
  34 Li     7.403408    3.490000   12.467803    ( 0.0000,  0.0000,  0.0000)
  35 Li     4.935605    5.235000   12.467803    ( 0.0000,  0.0000,  0.0000)
  36 Li     4.935599    3.490067   14.935829    ( 0.0000,  0.0000,  0.0000)
  37 Li     7.403408    5.235060   14.935585    ( 0.0000,  0.0000,  0.0000)
  38 Li     7.403408    3.489972   17.402068    ( 0.0000,  0.0000,  0.0000)
  39 Li     4.935667    5.234967   17.402103    ( 0.0000,  0.0000,  0.0000)
  40 Li     4.935605    6.980000   10.000000    ( 0.0000,  0.0000,  0.0000)
  41 Li     7.403408    8.725000   10.000000    ( 0.0000,  0.0000,  0.0000)
  42 Li     7.403408    6.980000   12.467803    ( 0.0000,  0.0000,  0.0000)
  43 Li     4.935605    8.725000   12.467803    ( 0.0000,  0.0000,  0.0000)
  44 Li     4.935598    6.980013   14.935669    ( 0.0000,  0.0000,  0.0000)
  45 Li     7.403408    8.724929   14.935572    ( 0.0000,  0.0000,  0.0000)
  46 Li     7.403408    6.979999   17.402185    ( 0.0000,  0.0000,  0.0000)
  47 Li     4.935653    8.725006   17.402108    ( 0.0000,  0.0000,  0.0000)
  48 Li     9.871211    0.000000   10.000000    ( 0.0000,  0.0000,  0.0000)
  49 Li    12.339013    1.745000   10.000000    ( 0.0000,  0.0000,  0.0000)
  50 Li    12.339013    0.000000   12.467803    ( 0.0000,  0.0000,  0.0000)
  51 Li     9.871211    1.745000   12.467803    ( 0.0000,  0.0000,  0.0000)
  52 Li     9.871219   -0.000078   14.935828    ( 0.0000,  0.0000,  0.0000)
  53 Li    12.338959    1.745011   14.935326    ( 0.0000,  0.0000,  0.0000)
  54 Li    12.340718    0.001248   17.403739    ( 0.0000,  0.0000,  0.0000)
  55 Li     9.871350    1.745027   17.402260    ( 0.0000,  0.0000,  0.0000)
  56 Li     9.871211    3.490000   10.000000    ( 0.0000,  0.0000,  0.0000)
  57 Li    12.339013    5.235000   10.000000    ( 0.0000,  0.0000,  0.0000)
  58 Li    12.339013    3.490000   12.467803    ( 0.0000,  0.0000,  0.0000)
  59 Li     9.871211    5.235000   12.467803    ( 0.0000,  0.0000,  0.0000)
  60 Li     9.871217    3.490067   14.935829    ( 0.0000,  0.0000,  0.0000)
  61 Li    12.338975    5.235040   14.935677    ( 0.0000,  0.0000,  0.0000)
  62 Li    12.340697    3.488730   17.403742    ( 0.0000,  0.0000,  0.0000)
  63 Li     9.871149    5.234967   17.402103    ( 0.0000,  0.0000,  0.0000)
  64 Li     9.871211    6.980000   10.000000    ( 0.0000,  0.0000,  0.0000)
  65 Li    12.339013    8.725000   10.000000    ( 0.0000,  0.0000,  0.0000)
  66 Li    12.339013    6.980000   12.467803    ( 0.0000,  0.0000,  0.0000)
  67 Li     9.871211    8.725000   12.467803    ( 0.0000,  0.0000,  0.0000)
  68 Li     9.871218    6.980013   14.935669    ( 0.0000,  0.0000,  0.0000)
  69 Li    12.338974    8.724951   14.935675    ( 0.0000,  0.0000,  0.0000)
  70 Li    12.339003    6.980026   17.402306    ( 0.0000,  0.0000,  0.0000)
  71 Li     9.871163    8.725006   17.402108    ( 0.0000,  0.0000,  0.0000)
  72 Li     0.000000    1.745001   19.425980    ( 0.0000,  0.0000,  0.0000)

Unit cell:
           periodic     x           y           z      points  spacing
  1. axis:    yes   14.806816    0.000000    0.000000    76     0.1948
  2. axis:    yes    0.000000   10.470000    0.000000    52     0.2013
  3. axis:    no     0.000000    0.000000   27.403408   136     0.2015

  Lengths:  14.806816  10.470000  27.403408
  Angles:   90.000000  90.000000  90.000000

Effective grid spacing dv^(1/3) = 0.1992

     iter     time        total  log10-change:
                         energy   eigst   dens
iter:   1 04:04:00  -126.401101        c
iter:   2 04:04:09  -126.401644        c -2.88
iter:   3 04:04:19  -126.402001c       c -3.03
iter:   4 04:04:29  -126.402673c       c -3.21
iter:   5 04:04:38  -126.402157c       c -3.29
iter:   6 04:04:48  -126.401932c       c -3.41
iter:   7 04:04:58  -126.401990c       c -3.65
iter:   8 04:05:07  -126.402103c       c -3.81
iter:   9 04:05:17  -126.402078c       c -4.02c

Converged after 9 iterations.

Dipole moment: (-13.405236, -8.514207, 0.234278) |e|*Ang

Energy contributions relative to reference atoms: (reference = -14803.510878)

Kinetic:       +131.109899
Potential:     -113.428296
External:        +0.000000
XC:            -142.120631
Entropy (-ST):   -2.156122
Local:           -0.884988
SIC:             +0.000000
--------------------------
Free energy:   -127.480139
Extrapolated:  -126.402078

 Band  Eigenvalues  Occupancy
    0     -6.37119    2.00000
    1     -5.84959    2.00000
    2     -5.84772    2.00000
    3     -5.81045    2.00000
    4     -5.32436    2.00000
    5     -5.32067    2.00000
    6     -5.28417    2.00000
    7     -5.27039    2.00000
    8     -4.81178    1.99999
    9     -4.80632    1.99999
   10     -4.80567    1.99999
   11     -4.80404    1.99999
   12     -4.78007    1.99999
   13     -4.75726    1.99999
   14     -4.71848    1.99999
   15     -4.29706    1.99979
   16     -4.28560    1.99978
   17     -4.27009    1.99975
   18     -4.25630    1.99973
   19     -4.24904    1.99972
   20     -4.24215    1.99970
   21     -4.18837    1.99958
   22     -4.15382    1.99947
   23     -3.73887    1.99155
   24     -3.68574    1.98798
   25     -3.67015    1.98668
   26     -3.66289    1.98602
   27     -3.45043    1.94360
   28     -3.23666    1.78466
   29     -3.23495    1.78246
   30     -3.22729    1.77235
   31     -3.22508    1.76937
   32     -3.19785    1.72966
   33     -3.19461    1.72457
   34     -3.18116    1.70258
   35     -3.16048    1.66596
   36     -2.89440    0.91670
   37     -2.79482    0.60692
   38     -2.68050    0.33793
   39     -2.67913    0.33537
   40     -2.66142    0.30370
   41     -2.65744    0.29693
   42     -2.52259    0.13251
   43     -2.51911    0.12967
   44     -2.36971    0.04993
   45     -2.28134    0.02802
   46     -2.27253    0.02644
   47     -2.13933    0.01096

Fermi level: -2.91945

Gap: 0.266 eV
Transition (v -> c):
  (s=0, k=0, n=35, [0.00, 0.00, 0.00]) -> (s=0, k=0, n=36, [0.00, 0.00, 0.00])
No difference between direct/indirect transitions

Forces in eV/Ang:
  0 Li    0.00000    0.01126    0.09984
  1 Li   -0.00116    0.00190    0.09411
  2 Li    0.00455   -0.00190   -0.01475
  3 Li    0.00000    0.00083    0.00703
  4 Li    0.00000   -0.00973   -0.05023
  5 Li    0.00471    0.00077   -0.02239
  6 Li   -0.11502    0.08466    0.02138
  7 Li    0.00000    0.00034   -1.95497
  8 Li    0.00000   -0.01120    0.09971
  9 Li    0.01394   -0.00436    0.09715
 10 Li    0.00440    0.00099   -0.01486
 11 Li    0.00000    0.00120   -0.01606
 12 Li    0.00000    0.00942   -0.05138
 13 Li    0.00170    0.00107    0.00563
 14 Li   -0.11369   -0.08637    0.02159
 15 Li    0.00000   -0.10627    0.01550
 16 Li    0.00000   -0.00012    0.11021
 17 Li    0.01501    0.00252    0.09686
 18 Li    0.00082    0.00075   -0.00894
 19 Li    0.00000   -0.00214   -0.01533
 20 Li    0.00000    0.00090    0.01046
 21 Li    0.00177   -0.00174    0.00551
 22 Li   -0.00013    0.00178   -0.07633
 23 Li    0.00000    0.10647    0.01548
 24 Li    0.00777   -0.00779    0.08710
 25 Li    0.00000   -0.00008    0.09260
 26 Li    0.00000   -0.00376   -0.01157
 27 Li    0.00336    0.00081   -0.01127
 28 Li   -0.00092   -0.00466    0.01437
 29 Li    0.00000    0.00086    0.01584
 30 Li    0.00000    0.00188   -0.09247
 31 Li   -0.00878    0.00188   -0.08013
 32 Li    0.00672    0.00592    0.08679
 33 Li    0.00000    0.01121    0.07285
 34 Li    0.00000    0.00290   -0.01063
 35 Li    0.00749    0.00080   -0.00851
 36 Li   -0.00078    0.00393    0.01438
 37 Li    0.00000    0.00429   -0.00197
 38 Li    0.00000   -0.00181   -0.09239
 39 Li    0.00317   -0.00287   -0.08990
 40 Li    0.01752    0.00189    0.07859
 41 Li    0.00000   -0.01114    0.07265
 42 Li    0.00000    0.00079   -0.00618
 43 Li    0.00758   -0.00165   -0.00858
 44 Li   -0.00004    0.00086    0.00318
 45 Li    0.00000   -0.00503   -0.00288
 46 Li    0.00000   -0.00004   -0.08515
 47 Li    0.00219    0.00102   -0.08959
 48 Li   -0.00777   -0.00779    0.08710
 49 Li    0.00116    0.00190    0.09411
 50 Li   -0.00455   -0.00190   -0.01475
 51 Li   -0.00336    0.00081   -0.01127
 52 Li    0.00092   -0.00466    0.01437
 53 Li   -0.00471    0.00077   -0.02239
 54 Li    0.11502    0.08466    0.02138
 55 Li    0.00878    0.00188   -0.08013
 56 Li   -0.00672    0.00592    0.08679
 57 Li   -0.01394   -0.00436    0.09715
 58 Li   -0.00440    0.00099   -0.01486
 59 Li   -0.00749    0.00080   -0.00851
 60 Li    0.00078    0.00393    0.01438
 61 Li   -0.00170    0.00107    0.00563
 62 Li    0.11369   -0.08637    0.02159
 63 Li   -0.00317   -0.00287   -0.08990
 64 Li   -0.01752    0.00189    0.07859
 65 Li   -0.01501    0.00252    0.09686
 66 Li   -0.00082    0.00075   -0.00894
 67 Li   -0.00758   -0.00165   -0.00858
 68 Li    0.00004    0.00086    0.00318
 69 Li   -0.00177   -0.00174    0.00551
 70 Li    0.00013    0.00178   -0.07633
 71 Li   -0.00219    0.00102   -0.08959
 72 Li    0.00000   -0.00031    1.37308

System changes: positions 

Initializing position-dependent things.

Density initialized from wave functions
       .-----------------------------------.  
      /|                                   |  
     / |                                   |  
    /  |                                   |  
   /   |                                   |  
  /    |                                   |  
 *     |                                   |  
 |     |                                   |  
 |     |                                   |  
 |     |                                   |  
 |     |                                   |  
 |     |                                   |  
 |     |                                   |  
 |    Li          Li          Li           |  
 |     |   Li          Li          Li      |  
 |LiLi Li       Li Li       Li Li          |  
 |     | Li Li       Li Li       Li Li     |  
 |   Li|      Li Li       Li Li            |  
 |Li   Li Li       Li Li       Li Li       |  
 | Li  |       Li          Li              |  
 |    LiLi        LiLi        LiLi         |  
 |     |   Li          Li          Li      |  
 |  Li |        Li          Li             |  
 |     | Li Li       Li Li       Li Li     |  
 |Li Li|      Li Li       Li Li            |  
 |     Li Li       Li Li       Li Li       |  
 | Li  |       Li          Li              |  
 |     |Li          Li          Li         |  
 Li    |     Li          Li                |  
 |     |                                   |  
 |     |                                   |  
 |     |                                   |  
 |     |                                   |  
 |     |                                   |  
 |     .-----------------------------------.  
 |    /                                   /   
 |   /                                   /    
 |  /                                   /     
 | /                                   /      
 |/                                   /       
 *-----------------------------------*        

Atomic positions and initial magnetic moments

Positions:
   0 Li     0.000000    0.000000   10.000000    ( 0.0000,  0.0000,  0.0000)
   1 Li     2.467803    1.745000   10.000000    ( 0.0000,  0.0000,  0.0000)
   2 Li     2.467803    0.000000   12.467803    ( 0.0000,  0.0000,  0.0000)
   3 Li     0.000000    1.745000   12.467803    ( 0.0000,  0.0000,  0.0000)
   4 Li     0.000000   -0.001033   14.929930    ( 0.0000,  0.0000,  0.0000)
   5 Li     2.468338    1.745090   14.933037    ( 0.0000,  0.0000,  0.0000)
   6 Li     2.454334    0.009906   17.405927    ( 0.0000,  0.0000,  0.0000)
   7 Li     0.000000    1.745033   17.172004    ( 0.0000,  0.0000,  0.0000)
   8 Li     0.000000    3.490000   10.000000    ( 0.0000,  0.0000,  0.0000)
   9 Li     2.467803    5.235000   10.000000    ( 0.0000,  0.0000,  0.0000)
  10 Li     2.467803    3.490000   12.467803    ( 0.0000,  0.0000,  0.0000)
  11 Li     0.000000    5.235000   12.467803    ( 0.0000,  0.0000,  0.0000)
  12 Li     0.000000    3.490996   14.929796    ( 0.0000,  0.0000,  0.0000)
  13 Li     2.468015    5.235149   14.936252    ( 0.0000,  0.0000,  0.0000)
  14 Li     2.454491    3.479897   17.405951    ( 0.0000,  0.0000,  0.0000)
  15 Li     0.000000    5.222529   17.405257    ( 0.0000,  0.0000,  0.0000)
  16 Li     0.000000    6.980000   10.000000    ( 0.0000,  0.0000,  0.0000)
  17 Li     2.467803    8.725000   10.000000    ( 0.0000,  0.0000,  0.0000)
  18 Li     2.467803    6.980000   12.467803    ( 0.0000,  0.0000,  0.0000)
  19 Li     0.000000    8.725000   12.467803    ( 0.0000,  0.0000,  0.0000)
  20 Li     0.000000    6.980105   14.936800    ( 0.0000,  0.0000,  0.0000)
  21 Li     2.468023    8.724772   14.936239    ( 0.0000,  0.0000,  0.0000)
  22 Li     2.467801    6.980208   17.394501    ( 0.0000,  0.0000,  0.0000)
  23 Li     0.000000    8.737492   17.405254    ( 0.0000,  0.0000,  0.0000)
  24 Li     4.935605    0.000000   10.000000    ( 0.0000,  0.0000,  0.0000)
  25 Li     7.403408    1.745000   10.000000    ( 0.0000,  0.0000,  0.0000)
  26 Li     7.403408    0.000000   12.467803    ( 0.0000,  0.0000,  0.0000)
  27 Li     4.935605    1.745000   12.467803    ( 0.0000,  0.0000,  0.0000)
  28 Li     4.935503   -0.000555   14.937298    ( 0.0000,  0.0000,  0.0000)
  29 Li     7.403408    1.745100   14.937477    ( 0.0000,  0.0000,  0.0000)
  30 Li     7.403408    0.000222   17.392609    ( 0.0000,  0.0000,  0.0000)
  31 Li     4.934567    1.745220   17.394066    ( 0.0000,  0.0000,  0.0000)
  32 Li     4.935605    3.490000   10.000000    ( 0.0000,  0.0000,  0.0000)
  33 Li     7.403408    5.235000   10.000000    ( 0.0000,  0.0000,  0.0000)
  34 Li     7.403408    3.490000   12.467803    ( 0.0000,  0.0000,  0.0000)
  35 Li     4.935605    5.235000   12.467803    ( 0.0000,  0.0000,  0.0000)
  36 Li     4.935519    3.490469   14.937300    ( 0.0000,  0.0000,  0.0000)
  37 Li     7.403408    5.235498   14.935383    ( 0.0000,  0.0000,  0.0000)
  38 Li     7.403408    3.489786   17.392619    ( 0.0000,  0.0000,  0.0000)
  39 Li     4.935992    5.234673   17.392909    ( 0.0000,  0.0000,  0.0000)
  40 Li     4.935605    6.980000   10.000000    ( 0.0000,  0.0000,  0.0000)
  41 Li     7.403408    8.725000   10.000000    ( 0.0000,  0.0000,  0.0000)
  42 Li     7.403408    6.980000   12.467803    ( 0.0000,  0.0000,  0.0000)
  43 Li     4.935605    8.725000   12.467803    ( 0.0000,  0.0000,  0.0000)
  44 Li     4.935594    6.980100   14.935995    ( 0.0000,  0.0000,  0.0000)
  45 Li     7.403408    8.724415   14.935278    ( 0.0000,  0.0000,  0.0000)
  46 Li     7.403408    6.979995   17.393478    ( 0.0000,  0.0000,  0.0000)
  47 Li     4.935877    8.725111   17.392946    ( 0.0000,  0.0000,  0.0000)
  48 Li     9.871211    0.000000   10.000000    ( 0.0000,  0.0000,  0.0000)
  49 Li    12.339013    1.745000   10.000000    ( 0.0000,  0.0000,  0.0000)
  50 Li    12.339013    0.000000   12.467803    ( 0.0000,  0.0000,  0.0000)
  51 Li     9.871211    1.745000   12.467803    ( 0.0000,  0.0000,  0.0000)
  52 Li     9.871313   -0.000555   14.937298    ( 0.0000,  0.0000,  0.0000)
  53 Li    12.338478    1.745090   14.933037    ( 0.0000,  0.0000,  0.0000)
  54 Li    12.352482    0.009906   17.405927    ( 0.0000,  0.0000,  0.0000)
  55 Li     9.872249    1.745220   17.394066    ( 0.0000,  0.0000,  0.0000)
  56 Li     9.871211    3.490000   10.000000    ( 0.0000,  0.0000,  0.0000)
  57 Li    12.339013    5.235000   10.000000    ( 0.0000,  0.0000,  0.0000)
  58 Li    12.339013    3.490000   12.467803    ( 0.0000,  0.0000,  0.0000)
  59 Li     9.871211    5.235000   12.467803    ( 0.0000,  0.0000,  0.0000)
  60 Li     9.871297    3.490469   14.937300    ( 0.0000,  0.0000,  0.0000)
  61 Li    12.338801    5.235149   14.936252    ( 0.0000,  0.0000,  0.0000)
  62 Li    12.352325    3.479897   17.405951    ( 0.0000,  0.0000,  0.0000)
  63 Li     9.870824    5.234673   17.392909    ( 0.0000,  0.0000,  0.0000)
  64 Li     9.871211    6.980000   10.000000    ( 0.0000,  0.0000,  0.0000)
  65 Li    12.339013    8.725000   10.000000    ( 0.0000,  0.0000,  0.0000)
  66 Li    12.339013    6.980000   12.467803    ( 0.0000,  0.0000,  0.0000)
  67 Li     9.871211    8.725000   12.467803    ( 0.0000,  0.0000,  0.0000)
  68 Li     9.871222    6.980100   14.935995    ( 0.0000,  0.0000,  0.0000)
  69 Li    12.338793    8.724772   14.936239    ( 0.0000,  0.0000,  0.0000)
  70 Li    12.339015    6.980208   17.394501    ( 0.0000,  0.0000,  0.0000)
  71 Li     9.870939    8.725111   17.392946    ( 0.0000,  0.0000,  0.0000)
  72 Li     0.000000    1.744970   19.566464    ( 0.0000,  0.0000,  0.0000)

Unit cell:
           periodic     x           y           z      points  spacing
  1. axis:    yes   14.806816    0.000000    0.000000    76     0.1948
  2. axis:    yes    0.000000   10.470000    0.000000    52     0.2013
  3. axis:    no     0.000000    0.000000   27.403408   136     0.2015

  Lengths:  14.806816  10.470000  27.403408
  Angles:   90.000000  90.000000  90.000000

Effective grid spacing dv^(1/3) = 0.1992

     iter     time        total  log10-change:
                         energy   eigst   dens
iter:   1 04:05:51  -126.802648        c
iter:   2 04:06:00  -126.797499        c -1.99
iter:   3 04:06:10  -126.797228c       c -2.19
iter:   4 04:06:19  -126.799959c       c -2.46
iter:   5 04:06:29  -126.796842c       c -2.59
iter:   6 04:06:39  -126.794529c       c -2.74
iter:   7 04:06:48  -126.795232c       c -2.85
iter:   8 04:06:57  -126.795473c       c -3.10
iter:   9 04:07:07  -126.795580c       c -3.29
iter:  10 04:07:16  -126.795448c       c -3.36
iter:  11 04:07:26  -126.795559c       c -3.54
iter:  12 04:07:35  -126.795622c       c -3.75
iter:  13 04:07:45  -126.795629c       c -3.86
iter:  14 04:07:54  -126.795604c       c -4.02c

Converged after 14 iterations.

Dipole moment: (-13.396759, -8.774081, 0.306451) |e|*Ang

Energy contributions relative to reference atoms: (reference = -14803.510878)

Kinetic:       +129.860092
Potential:     -112.753748
External:        +0.000000
XC:            -141.939204
Entropy (-ST):   -2.155354
Local:           -0.885067
SIC:             +0.000000
--------------------------
Free energy:   -127.873281
Extrapolated:  -126.795604

 Band  Eigenvalues  Occupancy
    0     -6.34738    2.00000
    1     -5.82750    2.00000
    2     -5.82244    2.00000
    3     -5.78683    2.00000
    4     -5.30287    2.00000
    5     -5.29626    2.00000
    6     -5.26040    2.00000
    7     -5.24535    2.00000
    8     -4.79109    1.99999
    9     -4.78283    1.99999
   10     -4.78076    1.99999
   11     -4.77807    1.99999
   12     -4.75620    1.99999
   13     -4.73292    1.99999
   14     -4.69397    1.99999
   15     -4.27433    1.99980
   16     -4.26334    1.99978
   17     -4.24566    1.99976
   18     -4.23158    1.99973
   19     -4.22320    1.99972
   20     -4.21670    1.99971
   21     -4.16682    1.99959
   22     -4.12453    1.99946
   23     -3.71992    1.99194
   24     -3.65938    1.98796
   25     -3.64097    1.98640
   26     -3.63765    1.98610
   27     -3.43663    1.94792
   28     -3.21242    1.78701
   29     -3.20595    1.77866
   30     -3.20583    1.77850
   31     -3.20108    1.77219
   32     -3.17203    1.73008
   33     -3.16271    1.71523
   34     -3.14848    1.69126
   35     -3.13413    1.66547
   36     -2.87849    0.95046
   37     -2.75788    0.57678
   38     -2.65648    0.34181
   39     -2.64804    0.32615
   40     -2.64006    0.31189
   41     -2.63388    0.30121
   42     -2.49391    0.13038
   43     -2.48677    0.12470
   44     -2.35888    0.05513
   45     -2.26064    0.02902
   46     -2.23638    0.02474
   47     -2.12088    0.01153

Fermi level: -2.89337

Gap: 0.256 eV
Transition (v -> c):
  (s=0, k=0, n=35, [0.00, 0.00, 0.00]) -> (s=0, k=0, n=36, [0.00, 0.00, 0.00])
No difference between direct/indirect transitions

Forces in eV/Ang:
  0 Li    0.00000    0.01049    0.10053
  1 Li   -0.00060    0.00190    0.09337
  2 Li    0.00717   -0.00410   -0.01942
  3 Li    0.00000    0.00079    0.00788
  4 Li    0.00000   -0.06039   -0.12700
  5 Li    0.00927    0.00064   -0.03430
  6 Li   -0.09117    0.07071    0.01020
  7 Li    0.00000    0.00046   -0.70547
  8 Li    0.00000   -0.01042    0.10040
  9 Li    0.01304   -0.00553    0.09754
 10 Li    0.00704    0.00321   -0.01958
 11 Li    0.00000    0.00068   -0.02132
 12 Li    0.00000    0.06039   -0.12799
 13 Li   -0.00209   -0.00724    0.00858
 14 Li   -0.09070   -0.07332    0.01044
 15 Li    0.00000   -0.07381   -0.00164
 16 Li    0.00000   -0.00012    0.10691
 17 Li    0.01410    0.00370    0.09725
 18 Li    0.00368    0.00076   -0.00663
 19 Li    0.00000   -0.00163   -0.02065
 20 Li    0.00000    0.00077    0.01739
 21 Li   -0.00209    0.00671    0.00841
 22 Li   -0.00560    0.00162   -0.06903
 23 Li    0.00000    0.07481   -0.00165
 24 Li    0.00753   -0.00628    0.08536
 25 Li    0.00000   -0.00008    0.09181
 26 Li    0.00000   -0.00349   -0.01092
 27 Li    0.00269    0.00079   -0.00904
 28 Li   -0.00009   -0.00085    0.00506
 29 Li    0.00000    0.00077    0.00524
 30 Li    0.00000    0.00158   -0.08382
 31 Li   -0.00521    0.00160   -0.07599
 32 Li    0.00648    0.00441    0.08503
 33 Li    0.00000    0.01035    0.07395
 34 Li    0.00000    0.00265   -0.01000
 35 Li    0.00637    0.00073   -0.00588
 36 Li    0.00002    0.00024    0.00496
 37 Li    0.00000    0.00396   -0.00586
 38 Li    0.00000   -0.00180   -0.08416
 39 Li   -0.00426   -0.00576   -0.08087
 40 Li    0.01788    0.00190    0.08020
 41 Li    0.00000   -0.01027    0.07376
 42 Li    0.00000    0.00075   -0.00736
 43 Li    0.00647   -0.00156   -0.00602
 44 Li    0.00154    0.00072   -0.00420
 45 Li    0.00000   -0.00461   -0.00661
 46 Li    0.00000    0.00021   -0.08148
 47 Li   -0.00508    0.00415   -0.08073
 48 Li   -0.00753   -0.00628    0.08536
 49 Li    0.00060    0.00190    0.09337
 50 Li   -0.00717   -0.00410   -0.01942
 51 Li   -0.00269    0.00079   -0.00904
 52 Li    0.00009   -0.00085    0.00506
 53 Li   -0.00927    0.00064   -0.03430
 54 Li    0.09117    0.07071    0.01020
 55 Li    0.00521    0.00160   -0.07599
 56 Li   -0.00648    0.00441    0.08503
 57 Li   -0.01304   -0.00553    0.09754
 58 Li   -0.00704    0.00321   -0.01958
 59 Li   -0.00637    0.00073   -0.00588
 60 Li   -0.00002    0.00024    0.00496
 61 Li    0.00209   -0.00724    0.00858
 62 Li    0.09070   -0.07332    0.01044
 63 Li    0.00426   -0.00576   -0.08087
 64 Li   -0.01788    0.00190    0.08020
 65 Li   -0.01410    0.00370    0.09725
 66 Li   -0.00368    0.00076   -0.00663
 67 Li   -0.00647   -0.00156   -0.00602
 68 Li   -0.00154    0.00072   -0.00420
 69 Li    0.00209    0.00671    0.00841
 70 Li    0.00560    0.00162   -0.06903
 71 Li    0.00508    0.00415   -0.08073
 72 Li    0.00000    0.00009    0.36396

System changes: positions 

Initializing position-dependent things.

Density initialized from wave functions
       .-----------------------------------.  
      /|                                   |  
     / |                                   |  
    /  |                                   |  
   /   |                                   |  
  /    |                                   |  
 *     |                                   |  
 |     |                                   |  
 |     |                                   |  
 |     |                                   |  
 |     |                                   |  
 |     |                                   |  
 |     |                                   |  
 |    Li          Li          Li           |  
 |     |   Li          Li          Li      |  
 |LiLi Li       Li Li       Li Li          |  
 |     | Li Li       Li Li       Li Li     |  
 |   Li|      Li Li       Li Li            |  
 |Li   Li Li       Li Li       Li Li       |  
 | Li  |       Li          Li              |  
 |    LiLi        LiLi        LiLi         |  
 |     |   Li          Li          Li      |  
 |  Li |        Li          Li             |  
 |     | Li Li       Li Li       Li Li     |  
 |Li Li|      Li Li       Li Li            |  
 |     Li Li       Li Li       Li Li       |  
 | Li  |       Li          Li              |  
 |     |Li          Li          Li         |  
 Li    |     Li          Li                |  
 |     |                                   |  
 |     |                                   |  
 |     |                                   |  
 |     |                                   |  
 |     |                                   |  
 |     .-----------------------------------.  
 |    /                                   /   
 |   /                                   /    
 |  /                                   /     
 | /                                   /      
 |/                                   /       
 *-----------------------------------*        

Atomic positions and initial magnetic moments

Positions:
   0 Li     0.000000    0.000000   10.000000    ( 0.0000,  0.0000,  0.0000)
   1 Li     2.467803    1.745000   10.000000    ( 0.0000,  0.0000,  0.0000)
   2 Li     2.467803    0.000000   12.467803    ( 0.0000,  0.0000,  0.0000)
   3 Li     0.000000    1.745000   12.467803    ( 0.0000,  0.0000,  0.0000)
   4 Li     0.000000   -0.002812   14.924777    ( 0.0000,  0.0000,  0.0000)
   5 Li     2.468764    1.745140   14.931226    ( 0.0000,  0.0000,  0.0000)
   6 Li     2.446886    0.015466   17.407164    ( 0.0000,  0.0000,  0.0000)
   7 Li     0.000000    1.745059   17.063798    ( 0.0000,  0.0000,  0.0000)
   8 Li     0.000000    3.490000   10.000000    ( 0.0000,  0.0000,  0.0000)
   9 Li     2.467803    5.235000   10.000000    ( 0.0000,  0.0000,  0.0000)
  10 Li     2.467803    3.490000   12.467803    ( 0.0000,  0.0000,  0.0000)
  11 Li     0.000000    5.235000   12.467803    ( 0.0000,  0.0000,  0.0000)
  12 Li     0.000000    3.492761   14.924567    ( 0.0000,  0.0000,  0.0000)
  13 Li     2.468051    5.235042   14.936707    ( 0.0000,  0.0000,  0.0000)
  14 Li     2.447117    3.474199   17.407204    ( 0.0000,  0.0000,  0.0000)
  15 Li     0.000000    5.215875   17.405957    ( 0.0000,  0.0000,  0.0000)
  16 Li     0.000000    6.980000   10.000000    ( 0.0000,  0.0000,  0.0000)
  17 Li     2.467803    8.725000   10.000000    ( 0.0000,  0.0000,  0.0000)
  18 Li     2.467803    6.980000   12.467803    ( 0.0000,  0.0000,  0.0000)
  19 Li     0.000000    8.725000   12.467803    ( 0.0000,  0.0000,  0.0000)
  20 Li     0.000000    6.980164   14.937676    ( 0.0000,  0.0000,  0.0000)
  21 Li     2.468061    8.724836   14.936684    ( 0.0000,  0.0000,  0.0000)
  22 Li     2.467672    6.980328   17.389373    ( 0.0000,  0.0000,  0.0000)
  23 Li     0.000000    8.744177   17.405953    ( 0.0000,  0.0000,  0.0000)
  24 Li     4.935605    0.000000   10.000000    ( 0.0000,  0.0000,  0.0000)
  25 Li     7.403408    1.745000   10.000000    ( 0.0000,  0.0000,  0.0000)
  26 Li     7.403408    0.000000   12.467803    ( 0.0000,  0.0000,  0.0000)
  27 Li     4.935605    1.745000   12.467803    ( 0.0000,  0.0000,  0.0000)
  28 Li     4.935458   -0.000795   14.938090    ( 0.0000,  0.0000,  0.0000)
  29 Li     7.403408    1.745158   14.938343    ( 0.0000,  0.0000,  0.0000)
  30 Li     7.403408    0.000345   17.386392    ( 0.0000,  0.0000,  0.0000)
  31 Li     4.934036    1.745344   17.388606    ( 0.0000,  0.0000,  0.0000)
  32 Li     4.935605    3.490000   10.000000    ( 0.0000,  0.0000,  0.0000)
  33 Li     7.403408    5.235000   10.000000    ( 0.0000,  0.0000,  0.0000)
  34 Li     7.403408    3.490000   12.467803    ( 0.0000,  0.0000,  0.0000)
  35 Li     4.935605    5.235000   12.467803    ( 0.0000,  0.0000,  0.0000)
  36 Li     4.935483    3.490661   14.938091    ( 0.0000,  0.0000,  0.0000)
  37 Li     7.403408    5.235788   14.935162    ( 0.0000,  0.0000,  0.0000)
  38 Li     7.403408    3.489661   17.386399    ( 0.0000,  0.0000,  0.0000)
  39 Li     4.936049    5.234411   17.386879    ( 0.0000,  0.0000,  0.0000)
  40 Li     4.935605    6.980000   10.000000    ( 0.0000,  0.0000,  0.0000)
  41 Li     7.403408    8.725000   10.000000    ( 0.0000,  0.0000,  0.0000)
  42 Li     7.403408    6.980000   12.467803    ( 0.0000,  0.0000,  0.0000)
  43 Li     4.935605    8.725000   12.467803    ( 0.0000,  0.0000,  0.0000)
  44 Li     4.935625    6.980157   14.936055    ( 0.0000,  0.0000,  0.0000)
  45 Li     7.403408    8.724076   14.934997    ( 0.0000,  0.0000,  0.0000)
  46 Li     7.403408    6.979997   17.387659    ( 0.0000,  0.0000,  0.0000)
  47 Li     4.935870    8.725250   17.386933    ( 0.0000,  0.0000,  0.0000)
  48 Li     9.871211    0.000000   10.000000    ( 0.0000,  0.0000,  0.0000)
  49 Li    12.339013    1.745000   10.000000    ( 0.0000,  0.0000,  0.0000)
  50 Li    12.339013    0.000000   12.467803    ( 0.0000,  0.0000,  0.0000)
  51 Li     9.871211    1.745000   12.467803    ( 0.0000,  0.0000,  0.0000)
  52 Li     9.871358   -0.000795   14.938090    ( 0.0000,  0.0000,  0.0000)
  53 Li    12.338052    1.745140   14.931226    ( 0.0000,  0.0000,  0.0000)
  54 Li    12.359930    0.015466   17.407164    ( 0.0000,  0.0000,  0.0000)
  55 Li     9.872780    1.745344   17.388606    ( 0.0000,  0.0000,  0.0000)
  56 Li     9.871211    3.490000   10.000000    ( 0.0000,  0.0000,  0.0000)
  57 Li    12.339013    5.235000   10.000000    ( 0.0000,  0.0000,  0.0000)
  58 Li    12.339013    3.490000   12.467803    ( 0.0000,  0.0000,  0.0000)
  59 Li     9.871211    5.235000   12.467803    ( 0.0000,  0.0000,  0.0000)
  60 Li     9.871333    3.490661   14.938091    ( 0.0000,  0.0000,  0.0000)
  61 Li    12.338765    5.235042   14.936707    ( 0.0000,  0.0000,  0.0000)
  62 Li    12.359699    3.474199   17.407204    ( 0.0000,  0.0000,  0.0000)
  63 Li     9.870767    5.234411   17.386879    ( 0.0000,  0.0000,  0.0000)
  64 Li     9.871211    6.980000   10.000000    ( 0.0000,  0.0000,  0.0000)
  65 Li    12.339013    8.725000   10.000000    ( 0.0000,  0.0000,  0.0000)
  66 Li    12.339013    6.980000   12.467803    ( 0.0000,  0.0000,  0.0000)
  67 Li     9.871211    8.725000   12.467803    ( 0.0000,  0.0000,  0.0000)
  68 Li     9.871191    6.980157   14.936055    ( 0.0000,  0.0000,  0.0000)
  69 Li    12.338755    8.724836   14.936684    ( 0.0000,  0.0000,  0.0000)
  70 Li    12.339144    6.980328   17.389373    ( 0.0000,  0.0000,  0.0000)
  71 Li     9.870946    8.725250   17.386933    ( 0.0000,  0.0000,  0.0000)
  72 Li     0.000000    1.744958   19.639603    ( 0.0000,  0.0000,  0.0000)

Unit cell:
           periodic     x           y           z      points  spacing
  1. axis:    yes   14.806816    0.000000    0.000000    76     0.1948
  2. axis:    yes    0.000000   10.470000    0.000000    52     0.2013
  3. axis:    no     0.000000    0.000000   27.403408   136     0.2015

  Lengths:  14.806816  10.470000  27.403408
  Angles:   90.000000  90.000000  90.000000

Effective grid spacing dv^(1/3) = 0.1992

     iter     time        total  log10-change:
                         energy   eigst   dens
iter:   1 04:08:29  -126.870580        c
iter:   2 04:08:39  -126.869308        c -2.17
iter:   3 04:08:48  -126.869806c       c -2.39
iter:   4 04:08:58  -126.872031c       c -2.72
iter:   5 04:09:07  -126.870880c       c -2.90
iter:   6 04:09:17  -126.870157c       c -3.14
iter:   7 04:09:26  -126.870495c       c -3.27
iter:   8 04:09:36  -126.870508c       c -3.49
iter:   9 04:09:45  -126.870537c       c -3.63
iter:  10 04:09:55  -126.870489c       c -3.71
iter:  11 04:10:04  -126.870545c       c -3.88
iter:  12 04:10:13  -126.870586c       c -4.08c

Converged after 12 iterations.

Dipole moment: (-13.395443, -8.917680, 0.336456) |e|*Ang

Energy contributions relative to reference atoms: (reference = -14803.510878)

Kinetic:       +129.431528
Potential:     -112.465983
External:        +0.000000
XC:            -141.873457
Entropy (-ST):   -2.155441
Local:           -0.884953
SIC:             +0.000000
--------------------------
Free energy:   -127.948306
Extrapolated:  -126.870586

 Band  Eigenvalues  Occupancy
    0     -6.33823    2.00000
    1     -5.81933    2.00000
    2     -5.81255    2.00000
    3     -5.77706    2.00000
    4     -5.29469    2.00000
    5     -5.28696    2.00000
    6     -5.25051    2.00000
    7     -5.23535    2.00000
    8     -4.78296    1.99999
    9     -4.77429    1.99999
   10     -4.77118    1.99999
   11     -4.76772    1.99999
   12     -4.74550    1.99999
   13     -4.72354    1.99999
   14     -4.68396    1.99999
   15     -4.26378    1.99980
   16     -4.25573    1.99979
   17     -4.23563    1.99976
   18     -4.22242    1.99974
   19     -4.21294    1.99972
   20     -4.20635    1.99971
   21     -4.15807    1.99959
   22     -4.11223    1.99945
   23     -3.71006    1.99198
   24     -3.64949    1.98801
   25     -3.63257    1.98659
   26     -3.62424    1.98583
   27     -3.42937    1.94901
   28     -3.20440    1.79016
   29     -3.19821    1.78228
   30     -3.19490    1.77797
   31     -3.19211    1.77427
   32     -3.16236    1.73139
   33     -3.14782    1.70804
   34     -3.13460    1.68538
   35     -3.12314    1.66459
   36     -2.87056    0.95907
   37     -2.74349    0.56624
   38     -2.64779    0.34527
   39     -2.63594    0.32330
   40     -2.63184    0.31594
   41     -2.62461    0.30333
   42     -2.48259    0.12973
   43     -2.47148    0.12103
   44     -2.35450    0.05737
   45     -2.25412    0.02980
   46     -2.22221    0.02416
   47     -2.11345    0.01177

Fermi level: -2.88284

Gap: 0.253 eV
Transition (v -> c):
  (s=0, k=0, n=35, [0.00, 0.00, 0.00]) -> (s=0, k=0, n=36, [0.00, 0.00, 0.00])
No difference between direct/indirect transitions

Forces in eV/Ang:
  0 Li    0.00000    0.00986    0.10077
  1 Li   -0.00027    0.00189    0.09305
  2 Li    0.00844   -0.00539   -0.02148
  3 Li    0.00000    0.00078    0.01013
  4 Li    0.00000   -0.09610   -0.17308
  5 Li    0.01434    0.00055   -0.04213
  6 Li   -0.08012    0.06516    0.00505
  7 Li    0.00000   -0.00049   -0.22397
  8 Li    0.00000   -0.00978    0.10064
  9 Li    0.01251   -0.00582    0.09734
 10 Li    0.00833    0.00451   -0.02167
 11 Li    0.00000    0.00148   -0.02478
 12 Li    0.00000    0.09624   -0.17387
 13 Li   -0.00331   -0.01119    0.00957
 14 Li   -0.08013   -0.06810    0.00526
 15 Li    0.00000   -0.05775   -0.01010
 16 Li    0.00000   -0.00012    0.10492
 17 Li    0.01358    0.00399    0.09704
 18 Li    0.00464    0.00076   -0.00522
 19 Li    0.00000   -0.00242   -0.02412
 20 Li    0.00000    0.00070    0.02043
 21 Li   -0.00333    0.01074    0.00933
 22 Li   -0.00839    0.00150   -0.06473
 23 Li    0.00000    0.05888   -0.01027
 24 Li    0.00754   -0.00576    0.08446
 25 Li    0.00000   -0.00009    0.09091
 26 Li    0.00000   -0.00350   -0.01067
 27 Li    0.00241    0.00077   -0.00784
 28 Li    0.00044    0.00072   -0.00047
 29 Li    0.00000    0.00071   -0.00053
 30 Li    0.00000    0.00140   -0.07886
 31 Li   -0.00379    0.00138   -0.07273
 32 Li    0.00649    0.00389    0.08413
 33 Li    0.00000    0.00995    0.07421
 34 Li    0.00000    0.00269   -0.00975
 35 Li    0.00599    0.00060   -0.00478
 36 Li    0.00055   -0.00124   -0.00064
 37 Li    0.00000    0.00401   -0.00838
 38 Li    0.00000   -0.00181   -0.07907
 39 Li   -0.00819   -0.00701   -0.07573
 40 Li    0.01799    0.00190    0.08047
 41 Li    0.00000   -0.00987    0.07402
 42 Li    0.00000    0.00072   -0.00811
 43 Li    0.00608   -0.00142   -0.00496
 44 Li    0.00188    0.00063   -0.00794
 45 Li    0.00000   -0.00460   -0.00903
 46 Li    0.00000    0.00038   -0.07875
 47 Li   -0.00886    0.00562   -0.07571
 48 Li   -0.00754   -0.00576    0.08446
 49 Li    0.00027    0.00189    0.09305
 50 Li   -0.00844   -0.00539   -0.02148
 51 Li   -0.00241    0.00077   -0.00784
 52 Li   -0.00044    0.00072   -0.00047
 53 Li   -0.01434    0.00055   -0.04213
 54 Li    0.08012    0.06516    0.00505
 55 Li    0.00379    0.00138   -0.07273
 56 Li   -0.00649    0.00389    0.08413
 57 Li   -0.01251   -0.00582    0.09734
 58 Li   -0.00833    0.00451   -0.02167
 59 Li   -0.00599    0.00060   -0.00478
 60 Li   -0.00055   -0.00124   -0.00064
 61 Li    0.00331   -0.01119    0.00957
 62 Li    0.08013   -0.06810    0.00526
 63 Li    0.00819   -0.00701   -0.07573
 64 Li   -0.01799    0.00190    0.08047
 65 Li   -0.01358    0.00399    0.09704
 66 Li   -0.00464    0.00076   -0.00522
 67 Li   -0.00608   -0.00142   -0.00496
 68 Li   -0.00188    0.00063   -0.00794
 69 Li    0.00333    0.01074    0.00933
 70 Li    0.00839    0.00150   -0.06473
 71 Li    0.00886    0.00562   -0.07571
 72 Li    0.00000   -0.00026    0.02295

System changes: positions 

Initializing position-dependent things.

Density initialized from wave functions
       .-----------------------------------.  
      /|                                   |  
     / |                                   |  
    /  |                                   |  
   /   |                                   |  
  /    |                                   |  
 *     |                                   |  
 |     |                                   |  
 |     |                                   |  
 |     |                                   |  
 |     |                                   |  
 |     |                                   |  
 |     |                                   |  
 |    Li          Li          Li           |  
 |     |   Li          Li          Li      |  
 |LiLi Li       Li Li       Li Li          |  
 |     | Li Li       Li Li       Li Li     |  
 |   Li|      Li Li       Li Li            |  
 |Li   Li Li       Li Li       Li Li       |  
 | Li  |       Li          Li              |  
 |    LiLi        LiLi        LiLi         |  
 |     |   Li          Li          Li      |  
 |  Li |        Li          Li             |  
 |     | Li Li       Li Li       Li Li     |  
 |Li Li|      Li Li       Li Li            |  
 |     Li Li       Li Li       Li Li       |  
 | Li  |       Li          Li              |  
 |     |Li          Li          Li         |  
 Li    |     Li          Li                |  
 |     |                                   |  
 |     |                                   |  
 |     |                                   |  
 |     |                                   |  
 |     |                                   |  
 |     .-----------------------------------.  
 |    /                                   /   
 |   /                                   /    
 |  /                                   /     
 | /                                   /      
 |/                                   /       
 *-----------------------------------*        

Atomic positions and initial magnetic moments

Positions:
   0 Li     0.000000    0.000000   10.000000    ( 0.0000,  0.0000,  0.0000)
   1 Li     2.467803    1.745000   10.000000    ( 0.0000,  0.0000,  0.0000)
   2 Li     2.467803    0.000000   12.467803    ( 0.0000,  0.0000,  0.0000)
   3 Li     0.000000    1.745000   12.467803    ( 0.0000,  0.0000,  0.0000)
   4 Li     0.000000   -0.005327   14.919402    ( 0.0000,  0.0000,  0.0000)
   5 Li     2.469217    1.745173   14.929664    ( 0.0000,  0.0000,  0.0000)
   6 Li     2.442093    0.019140   17.407819    ( 0.0000,  0.0000,  0.0000)
   7 Li     0.000000    1.745058   17.009852    ( 0.0000,  0.0000,  0.0000)
   8 Li     0.000000    3.490000   10.000000    ( 0.0000,  0.0000,  0.0000)
   9 Li     2.467803    5.235000   10.000000    ( 0.0000,  0.0000,  0.0000)
  10 Li     2.467803    3.490000   12.467803    ( 0.0000,  0.0000,  0.0000)
  11 Li     0.000000    5.235000   12.467803    ( 0.0000,  0.0000,  0.0000)
  12 Li     0.000000    3.495271   14.919144    ( 0.0000,  0.0000,  0.0000)
  13 Li     2.468013    5.234801   14.937077    ( 0.0000,  0.0000,  0.0000)
  14 Li     2.442357    3.470411   17.407869    ( 0.0000,  0.0000,  0.0000)
  15 Li     0.000000    5.211834   17.406104    ( 0.0000,  0.0000,  0.0000)
  16 Li     0.000000    6.980000   10.000000    ( 0.0000,  0.0000,  0.0000)
  17 Li     2.467803    8.725000   10.000000    ( 0.0000,  0.0000,  0.0000)
  18 Li     2.467803    6.980000   12.467803    ( 0.0000,  0.0000,  0.0000)
  19 Li     0.000000    8.725000   12.467803    ( 0.0000,  0.0000,  0.0000)
  20 Li     0.000000    6.980203   14.938427    ( 0.0000,  0.0000,  0.0000)
  21 Li     2.468024    8.725050   14.937046    ( 0.0000,  0.0000,  0.0000)
  22 Li     2.467469    6.980408   17.385913    ( 0.0000,  0.0000,  0.0000)
  23 Li     0.000000    8.748251   17.406095    ( 0.0000,  0.0000,  0.0000)
  24 Li     4.935605    0.000000   10.000000    ( 0.0000,  0.0000,  0.0000)
  25 Li     7.403408    1.745000   10.000000    ( 0.0000,  0.0000,  0.0000)
  26 Li     7.403408    0.000000   12.467803    ( 0.0000,  0.0000,  0.0000)
  27 Li     4.935605    1.745000   12.467803    ( 0.0000,  0.0000,  0.0000)
  28 Li     4.935446   -0.000893   14.938440    ( 0.0000,  0.0000,  0.0000)
  29 Li     7.403408    1.745196   14.938728    ( 0.0000,  0.0000,  0.0000)
  30 Li     7.403408    0.000426   17.382190    ( 0.0000,  0.0000,  0.0000)
  31 Li     4.933727    1.745424   17.384858    ( 0.0000,  0.0000,  0.0000)
  32 Li     4.935605    3.490000   10.000000    ( 0.0000,  0.0000,  0.0000)
  33 Li     7.403408    5.235000   10.000000    ( 0.0000,  0.0000,  0.0000)
  34 Li     7.403408    3.490000   12.467803    ( 0.0000,  0.0000,  0.0000)
  35 Li     4.935605    5.235000   12.467803    ( 0.0000,  0.0000,  0.0000)
  36 Li     4.935476    3.490729   14.938438    ( 0.0000,  0.0000,  0.0000)
  37 Li     7.403408    5.235991   14.934913    ( 0.0000,  0.0000,  0.0000)
  38 Li     7.403408    3.489572   17.382193    ( 0.0000,  0.0000,  0.0000)
  39 Li     4.935934    5.234171   17.382816    ( 0.0000,  0.0000,  0.0000)
  40 Li     4.935605    6.980000   10.000000    ( 0.0000,  0.0000,  0.0000)
  41 Li     7.403408    8.725000   10.000000    ( 0.0000,  0.0000,  0.0000)
  42 Li     7.403408    6.980000   12.467803    ( 0.0000,  0.0000,  0.0000)
  43 Li     4.935605    8.725000   12.467803    ( 0.0000,  0.0000,  0.0000)
  44 Li     4.935670    6.980193   14.935945    ( 0.0000,  0.0000,  0.0000)
  45 Li     7.403408    8.723840   14.934710    ( 0.0000,  0.0000,  0.0000)
  46 Li     7.403408    6.980005   17.383643    ( 0.0000,  0.0000,  0.0000)
  47 Li     4.935713    8.725410   17.382878    ( 0.0000,  0.0000,  0.0000)
  48 Li     9.871211    0.000000   10.000000    ( 0.0000,  0.0000,  0.0000)
  49 Li    12.339013    1.745000   10.000000    ( 0.0000,  0.0000,  0.0000)
  50 Li    12.339013    0.000000   12.467803    ( 0.0000,  0.0000,  0.0000)
  51 Li     9.871211    1.745000   12.467803    ( 0.0000,  0.0000,  0.0000)
  52 Li     9.871370   -0.000893   14.938440    ( 0.0000,  0.0000,  0.0000)
  53 Li    12.337599    1.745173   14.929664    ( 0.0000,  0.0000,  0.0000)
  54 Li    12.364723    0.019140   17.407819    ( 0.0000,  0.0000,  0.0000)
  55 Li     9.873089    1.745424   17.384858    ( 0.0000,  0.0000,  0.0000)
  56 Li     9.871211    3.490000   10.000000    ( 0.0000,  0.0000,  0.0000)
  57 Li    12.339013    5.235000   10.000000    ( 0.0000,  0.0000,  0.0000)
  58 Li    12.339013    3.490000   12.467803    ( 0.0000,  0.0000,  0.0000)
  59 Li     9.871211    5.235000   12.467803    ( 0.0000,  0.0000,  0.0000)
  60 Li     9.871340    3.490729   14.938438    ( 0.0000,  0.0000,  0.0000)
  61 Li    12.338803    5.234801   14.937077    ( 0.0000,  0.0000,  0.0000)
  62 Li    12.364459    3.470411   17.407869    ( 0.0000,  0.0000,  0.0000)
  63 Li     9.870882    5.234171   17.382816    ( 0.0000,  0.0000,  0.0000)
  64 Li     9.871211    6.980000   10.000000    ( 0.0000,  0.0000,  0.0000)
  65 Li    12.339013    8.725000   10.000000    ( 0.0000,  0.0000,  0.0000)
  66 Li    12.339013    6.980000   12.467803    ( 0.0000,  0.0000,  0.0000)
  67 Li     9.871211    8.725000   12.467803    ( 0.0000,  0.0000,  0.0000)
  68 Li     9.871146    6.980193   14.935945    ( 0.0000,  0.0000,  0.0000)
  69 Li    12.338792    8.725050   14.937046    ( 0.0000,  0.0000,  0.0000)
  70 Li    12.339347    6.980408   17.385913    ( 0.0000,  0.0000,  0.0000)
  71 Li     9.871103    8.725410   17.382878    ( 0.0000,  0.0000,  0.0000)
  72 Li     0.000000    1.744946   19.674122    ( 0.0000,  0.0000,  0.0000)

Unit cell:
           periodic     x           y           z      points  spacing
  1. axis:    yes   14.806816    0.000000    0.000000    76     0.1948
  2. axis:    yes    0.000000   10.470000    0.000000    52     0.2013
  3. axis:    no     0.000000    0.000000   27.403408   136     0.2015

  Lengths:  14.806816  10.470000  27.403408
  Angles:   90.000000  90.000000  90.000000

Effective grid spacing dv^(1/3) = 0.1992

     iter     time        total  log10-change:
                         energy   eigst   dens
iter:   1 04:10:47  -126.882838        c
iter:   2 04:10:56  -126.883184        c -2.44
iter:   3 04:11:05  -126.883769c       c -2.67
iter:   4 04:11:15  -126.885107c       c -3.02
iter:   5 04:11:26  -126.884714c       c -3.23
iter:   6 04:11:37  -126.884487c       c -3.48
iter:   7 04:11:48  -126.884557c       c -3.62
iter:   8 04:11:59  -126.884586c       c -3.78
iter:   9 04:12:09  -126.884581c       c -3.95
iter:  10 04:12:21  -126.884564c       c -4.02c

Converged after 10 iterations.

Dipole moment: (-13.395170, -8.989185, 0.349582) |e|*Ang

Energy contributions relative to reference atoms: (reference = -14803.510878)

Kinetic:       +129.315833
Potential:     -112.376595
External:        +0.000000
XC:            -141.861117
Entropy (-ST):   -2.155409
Local:           -0.884980
SIC:             +0.000000
--------------------------
Free energy:   -127.962268
Extrapolated:  -126.884564

 Band  Eigenvalues  Occupancy
    0     -6.33439    2.00000
    1     -5.81606    2.00000
    2     -5.80832    2.00000
    3     -5.77275    2.00000
    4     -5.29126    2.00000
    5     -5.28314    2.00000
    6     -5.24623    2.00000
    7     -5.23099    2.00000
    8     -4.77963    1.99999
    9     -4.77101    1.99999
   10     -4.76714    1.99999
   11     -4.76325    1.99999
   12     -4.74065    1.99999
   13     -4.71959    1.99999
   14     -4.67944    1.99999
   15     -4.25898    1.99980
   16     -4.25289    1.99979
   17     -4.23132    1.99976
   18     -4.21876    1.99974
   19     -4.20854    1.99972
   20     -4.20176    1.99971
   21     -4.15413    1.99960
   22     -4.10664    1.99944
   23     -3.70530    1.99197
   24     -3.64534    1.98805
   25     -3.62903    1.98668
   26     -3.61830    1.98570
   27     -3.42575    1.94933
   28     -3.20139    1.79212
   29     -3.19516    1.78426
   30     -3.19036    1.77803
   31     -3.18861    1.77571
   32     -3.15795    1.73167
   33     -3.14129    1.70480
   34     -3.12828    1.68231
   35     -3.11817    1.66387
   36     -2.86673    0.96161
   37     -2.73721    0.56167
   38     -2.64429    0.34737
   39     -2.63083    0.32235
   40     -2.62833    0.31787
   41     -2.62061    0.30435
   42     -2.47722    0.12910
   43     -2.46464    0.11934
   44     -2.35240    0.05830
   45     -2.25201    0.03029
   46     -2.21610    0.02392
   47     -2.10989    0.01185

Fermi level: -2.87826

Gap: 0.251 eV
Transition (v -> c):
  (s=0, k=0, n=35, [0.00, 0.00, 0.00]) -> (s=0, k=0, n=36, [0.00, 0.00, 0.00])
No difference between direct/indirect transitions

Forces in eV/Ang:
  0 Li    0.00000    0.00968    0.10112
  1 Li   -0.00022    0.00189    0.09312
  2 Li    0.00892   -0.00610   -0.02264
  3 Li    0.00000    0.00077    0.01081
  4 Li    0.00000   -0.11362   -0.19369
  5 Li    0.01702    0.00050   -0.04630
  6 Li   -0.07379    0.06223    0.00272
  7 Li    0.00000   -0.00030   -0.02814
  8 Li    0.00000   -0.00961    0.10098
  9 Li    0.01229   -0.00599    0.09733
 10 Li    0.00882    0.00523   -0.02286
 11 Li    0.00000    0.00283   -0.02761
 12 Li    0.00000    0.11370   -0.19418
 13 Li   -0.00341   -0.01295    0.00937
 14 Li   -0.07410   -0.06531    0.00288
 15 Li    0.00000   -0.04960   -0.01413
 16 Li    0.00000   -0.00013    0.10418
 17 Li    0.01336    0.00416    0.09702
 18 Li    0.00484    0.00075   -0.00411
 19 Li    0.00000   -0.00376   -0.02696
 20 Li    0.00000    0.00066    0.02092
 21 Li   -0.00345    0.01256    0.00910
 22 Li   -0.01006    0.00142   -0.06178
 23 Li    0.00000    0.05066   -0.01441
 24 Li    0.00748   -0.00563    0.08411
 25 Li    0.00000   -0.00008    0.09042
 26 Li    0.00000   -0.00362   -0.01066
 27 Li    0.00206    0.00077   -0.00737
 28 Li    0.00063    0.00130   -0.00402
 29 Li    0.00000    0.00067   -0.00392
 30 Li    0.00000    0.00114   -0.07593
 31 Li   -0.00377    0.00123   -0.07044
 32 Li    0.00643    0.00376    0.08377
 33 Li    0.00000    0.00989    0.07415
 34 Li    0.00000    0.00281   -0.00976
 35 Li    0.00571    0.00050   -0.00424
 36 Li    0.00074   -0.00175   -0.00424
 37 Li    0.00000    0.00403   -0.01022
 38 Li    0.00000   -0.00164   -0.07596
 39 Li   -0.01057   -0.00772   -0.07248
 40 Li    0.01808    0.00190    0.08044
 41 Li    0.00000   -0.00982    0.07395
 42 Li    0.00000    0.00070   -0.00853
 43 Li    0.00581   -0.00131   -0.00444
 44 Li    0.00172    0.00056   -0.01035
 45 Li    0.00000   -0.00457   -0.01081
 46 Li    0.00000    0.00047   -0.07666
 47 Li   -0.01113    0.00649   -0.07263
 48 Li   -0.00748   -0.00563    0.08411
 49 Li    0.00022    0.00189    0.09312
 50 Li   -0.00892   -0.00610   -0.02264
 51 Li   -0.00206    0.00077   -0.00737
 52 Li   -0.00063    0.00130   -0.00402
 53 Li   -0.01702    0.00050   -0.04630
 54 Li    0.07379    0.06223    0.00272
 55 Li    0.00377    0.00123   -0.07044
 56 Li   -0.00643    0.00376    0.08377
 57 Li   -0.01229   -0.00599    0.09733
 58 Li   -0.00882    0.00523   -0.02286
 59 Li   -0.00571    0.00050   -0.00424
 60 Li   -0.00074   -0.00175   -0.00424
 61 Li    0.00341   -0.01295    0.00937
 62 Li    0.07410   -0.06531    0.00288
 63 Li    0.01057   -0.00772   -0.07248
 64 Li   -0.01808    0.00190    0.08044
 65 Li   -0.01336    0.00416    0.09702
 66 Li   -0.00484    0.00075   -0.00411
 67 Li   -0.00581   -0.00131   -0.00444
 68 Li   -0.00172    0.00056   -0.01035
 69 Li    0.00345    0.01256    0.00910
 70 Li    0.01006    0.00142   -0.06178
 71 Li    0.01113    0.00649   -0.07263
 72 Li    0.00000    0.00050   -0.10554

System changes: positions 

Initializing position-dependent things.

Density initialized from wave functions
       .-----------------------------------.  
      /|                                   |  
     / |                                   |  
    /  |                                   |  
   /   |                                   |  
  /    |                                   |  
 *     |                                   |  
 |     |                                   |  
 |     |                                   |  
 |     |                                   |  
 |     |                                   |  
 |     |                                   |  
 |     |                                   |  
 |    Li          Li          Li           |  
 |     |   Li          Li          Li      |  
 |LiLi |        Li Li       Li Li          |  
 |     LiLi Li       Li Li       Li Li     |  
 |   Li|      Li Li       Li Li            |  
 |Li   Li Li       Li Li       Li Li       |  
 | Li  |       Li          Li              |  
 |    LiLi        LiLi        LiLi         |  
 |     |   Li          Li          Li      |  
 |  Li |        Li          Li             |  
 |     | Li Li       Li Li       Li Li     |  
 |Li Li|      Li Li       Li Li            |  
 |     Li Li       Li Li       Li Li       |  
 | Li  |       Li          Li              |  
 |     |Li          Li          Li         |  
 Li    |     Li          Li                |  
 |     |                                   |  
 |     |                                   |  
 |     |                                   |  
 |     |                                   |  
 |     |                                   |  
 |     .-----------------------------------.  
 |    /                                   /   
 |   /                                   /    
 |  /                                   /     
 | /                                   /      
 |/                                   /       
 *-----------------------------------*        

Atomic positions and initial magnetic moments

Positions:
   0 Li     0.000000    0.000000   10.000000    ( 0.0000,  0.0000,  0.0000)
   1 Li     2.467803    1.745000   10.000000    ( 0.0000,  0.0000,  0.0000)
   2 Li     2.467803    0.000000   12.467803    ( 0.0000,  0.0000,  0.0000)
   3 Li     0.000000    1.745000   12.467803    ( 0.0000,  0.0000,  0.0000)
   4 Li     0.000000   -0.008445   14.913610    ( 0.0000,  0.0000,  0.0000)
   5 Li     2.469720    1.745196   14.928152    ( 0.0000,  0.0000,  0.0000)
   6 Li     2.438647    0.021882   17.408163    ( 0.0000,  0.0000,  0.0000)
   7 Li     0.000000    1.745054   16.984710    ( 0.0000,  0.0000,  0.0000)
   8 Li     0.000000    3.490000   10.000000    ( 0.0000,  0.0000,  0.0000)
   9 Li     2.467803    5.235000   10.000000    ( 0.0000,  0.0000,  0.0000)
  10 Li     2.467803    3.490000   12.467803    ( 0.0000,  0.0000,  0.0000)
  11 Li     0.000000    5.235000   12.467803    ( 0.0000,  0.0000,  0.0000)
  12 Li     0.000000    3.498388   14.913323    ( 0.0000,  0.0000,  0.0000)
  13 Li     2.467939    5.234468   14.937405    ( 0.0000,  0.0000,  0.0000)
  14 Li     2.438921    3.467565   17.408221    ( 0.0000,  0.0000,  0.0000)
  15 Li     0.000000    5.209147   17.405925    ( 0.0000,  0.0000,  0.0000)
  16 Li     0.000000    6.980000   10.000000    ( 0.0000,  0.0000,  0.0000)
  17 Li     2.467803    8.725000   10.000000    ( 0.0000,  0.0000,  0.0000)
  18 Li     2.467803    6.980000   12.467803    ( 0.0000,  0.0000,  0.0000)
  19 Li     0.000000    8.725000   12.467803    ( 0.0000,  0.0000,  0.0000)
  20 Li     0.000000    6.980233   14.939126    ( 0.0000,  0.0000,  0.0000)
  21 Li     2.467950    8.725364   14.937365    ( 0.0000,  0.0000,  0.0000)
  22 Li     2.467201    6.980469   17.383280    ( 0.0000,  0.0000,  0.0000)
  23 Li     0.000000    8.750971   17.405910    ( 0.0000,  0.0000,  0.0000)
  24 Li     4.935605    0.000000   10.000000    ( 0.0000,  0.0000,  0.0000)
  25 Li     7.403408    1.745000   10.000000    ( 0.0000,  0.0000,  0.0000)
  26 Li     7.403408    0.000000   12.467803    ( 0.0000,  0.0000,  0.0000)
  27 Li     4.935605    1.745000   12.467803    ( 0.0000,  0.0000,  0.0000)
  28 Li     4.935451   -0.000916   14.938525    ( 0.0000,  0.0000,  0.0000)
  29 Li     7.403408    1.745225   14.938832    ( 0.0000,  0.0000,  0.0000)
  30 Li     7.403408    0.000482   17.378974    ( 0.0000,  0.0000,  0.0000)
  31 Li     4.933518    1.745482   17.381944    ( 0.0000,  0.0000,  0.0000)
  32 Li     4.935605    3.490000   10.000000    ( 0.0000,  0.0000,  0.0000)
  33 Li     7.403408    5.235000   10.000000    ( 0.0000,  0.0000,  0.0000)
  34 Li     7.403408    3.490000   12.467803    ( 0.0000,  0.0000,  0.0000)
  35 Li     4.935605    5.235000   12.467803    ( 0.0000,  0.0000,  0.0000)
  36 Li     4.935486    3.490730   14.938518    ( 0.0000,  0.0000,  0.0000)
  37 Li     7.403408    5.236152   14.934621    ( 0.0000,  0.0000,  0.0000)
  38 Li     7.403408    3.489504   17.378976    ( 0.0000,  0.0000,  0.0000)
  39 Li     4.935696    5.233928   17.379724    ( 0.0000,  0.0000,  0.0000)
  40 Li     4.935605    6.980000   10.000000    ( 0.0000,  0.0000,  0.0000)
  41 Li     7.403408    8.725000   10.000000    ( 0.0000,  0.0000,  0.0000)
  42 Li     7.403408    6.980000   12.467803    ( 0.0000,  0.0000,  0.0000)
  43 Li     4.935605    8.725000   12.467803    ( 0.0000,  0.0000,  0.0000)
  44 Li     4.935719    6.980220   14.935714    ( 0.0000,  0.0000,  0.0000)
  45 Li     7.403408    8.723655   14.934391    ( 0.0000,  0.0000,  0.0000)
  46 Li     7.403408    6.980017   17.380499    ( 0.0000,  0.0000,  0.0000)
  47 Li     4.935448    8.725595   17.379787    ( 0.0000,  0.0000,  0.0000)
  48 Li     9.871211    0.000000   10.000000    ( 0.0000,  0.0000,  0.0000)
  49 Li    12.339013    1.745000   10.000000    ( 0.0000,  0.0000,  0.0000)
  50 Li    12.339013    0.000000   12.467803    ( 0.0000,  0.0000,  0.0000)
  51 Li     9.871211    1.745000   12.467803    ( 0.0000,  0.0000,  0.0000)
  52 Li     9.871365   -0.000916   14.938525    ( 0.0000,  0.0000,  0.0000)
[...]
 49 Li   -0.00074    0.00191    0.09298
 50 Li   -0.01248   -0.02448   -0.07437
 51 Li    0.00259    0.00057   -0.06993
 52 Li    0.00038    0.01135   -0.00138
 53 Li   -0.04922    0.00097    0.00675
 54 Li    0.00268   -0.02897   -0.02846
 55 Li   -0.03227    0.00034   -0.02229
 56 Li   -0.00728    0.00701    0.08250
 57 Li   -0.01461   -0.00546    0.09421
 58 Li   -0.01228    0.02406   -0.07412
 59 Li   -0.00381    0.00133   -0.05984
 60 Li    0.00087   -0.01196    0.00046
 61 Li    0.02232   -0.00180   -0.01345
 62 Li    0.00405    0.02829   -0.02892
 63 Li   -0.00960    0.01020   -0.01033
 64 Li   -0.02103    0.00189    0.07466
 65 Li   -0.01570    0.00364    0.09390
 66 Li    0.00099    0.00066    0.01061
 67 Li   -0.00384   -0.00187   -0.06019
 68 Li   -0.00899    0.00051    0.01197
 69 Li    0.02218    0.00342   -0.01235
 70 Li    0.00460   -0.00029    0.01499
 71 Li   -0.00945   -0.00906   -0.00952
 72 Li    0.00000    0.00130    0.05537

System changes: positions 

Initializing position-dependent things.

Density initialized from wave functions
       .-----------------------------------.  
      /|                                   |  
     / |                                   |  
    /  |                                   |  
   /   |                                   |  
  /    |                                   |  
 *     |                                   |  
 |     |                                   |  
 |     |                                   |  
 |     |                                   |  
 |     |                                   |  
 |     |                                   |  
 |     |                                   |  
 |    Li                                   |  
 |     |          Li          Li           |  
 |Li   |   Li          Li          Li      |  
 |  Li LiLi Li  Li          Li   Li Li     |  
 |   Li|             Li Li                 |  
 |Li   Li Li  Li Li       Li LiLi Li       |  
 |     |           Li Li                   |  
 | Li Li       Li Li       Li Li           |  
 |     |Li Li       Li Li       Li Li      |  
 |  Li |     Li Li       Li Li             |  
 |     | Li Li       Li Li       Li Li     |  
 |Li Li|      Li Li       Li Li            |  
 |     Li Li       Li Li       Li Li       |  
 | Li  |       Li          Li              |  
 |     |Li          Li          Li         |  
 Li    |     Li          Li                |  
 |     |                                   |  
 |     |                                   |  
 |     |                                   |  
 |     |                                   |  
 |     |                                   |  
 |     .-----------------------------------.  
 |    /                                   /   
 |   /                                   /    
 |  /                                   /     
 | /                                   /      
 |/                                   /       
 *-----------------------------------*        

Atomic positions and initial magnetic moments

Positions:
   0 Li     0.000000    0.000000   10.000000    ( 0.0000,  0.0000,  0.0000)
   1 Li     2.467803    1.745000   10.000000    ( 0.0000,  0.0000,  0.0000)
   2 Li     2.467803    0.000000   12.467803    ( 0.0000,  0.0000,  0.0000)
   3 Li     0.000000    1.745000   12.467803    ( 0.0000,  0.0000,  0.0000)
   4 Li     0.000000   -0.085387   14.717416    ( 0.0000,  0.0000,  0.0000)
   5 Li     2.451440    1.745775   14.842431    ( 0.0000,  0.0000,  0.0000)
   6 Li     2.354015    0.136784   17.398724    ( 0.0000,  0.0000,  0.0000)
   7 Li     0.000000    1.743067   16.708165    ( 0.0000,  0.0000,  0.0000)
   8 Li     0.000000    3.490000   10.000000    ( 0.0000,  0.0000,  0.0000)
   9 Li     2.467803    5.235000   10.000000    ( 0.0000,  0.0000,  0.0000)
  10 Li     2.467803    3.490000   12.467803    ( 0.0000,  0.0000,  0.0000)
  11 Li     0.000000    5.235000   12.467803    ( 0.0000,  0.0000,  0.0000)
  12 Li     0.000000    3.575740   14.719056    ( 0.0000,  0.0000,  0.0000)
  13 Li     2.489199    5.200629   14.935126    ( 0.0000,  0.0000,  0.0000)
  14 Li     2.354386    3.353938   17.399242    ( 0.0000,  0.0000,  0.0000)
  15 Li     0.000000    5.123847   17.327669    ( 0.0000,  0.0000,  0.0000)
  16 Li     0.000000    6.980000   10.000000    ( 0.0000,  0.0000,  0.0000)
  17 Li     2.467803    8.725000   10.000000    ( 0.0000,  0.0000,  0.0000)
  18 Li     2.467803    6.980000   12.467803    ( 0.0000,  0.0000,  0.0000)
  19 Li     0.000000    8.725000   12.467803    ( 0.0000,  0.0000,  0.0000)
  20 Li     0.000000    6.981564   14.953274    ( 0.0000,  0.0000,  0.0000)
  21 Li     2.488882    8.759608   14.933655    ( 0.0000,  0.0000,  0.0000)
  22 Li     2.412124    6.982053   17.278822    ( 0.0000,  0.0000,  0.0000)
  23 Li     0.000000    8.836243   17.326960    ( 0.0000,  0.0000,  0.0000)
  24 Li     4.935605    0.000000   10.000000    ( 0.0000,  0.0000,  0.0000)
  25 Li     7.403408    1.745000   10.000000    ( 0.0000,  0.0000,  0.0000)
  26 Li     7.403408    0.000000   12.467803    ( 0.0000,  0.0000,  0.0000)
  27 Li     4.935605    1.745000   12.467803    ( 0.0000,  0.0000,  0.0000)
  28 Li     4.945552    0.002306   14.861495    ( 0.0000,  0.0000,  0.0000)
  29 Li     7.403408    1.745703   14.870203    ( 0.0000,  0.0000,  0.0000)
  30 Li     7.403408    0.000680   17.211980    ( 0.0000,  0.0000,  0.0000)
  31 Li     4.897937    1.745379   17.229115    ( 0.0000,  0.0000,  0.0000)
  32 Li     4.935605    3.490000   10.000000    ( 0.0000,  0.0000,  0.0000)
  33 Li     7.403408    5.235000   10.000000    ( 0.0000,  0.0000,  0.0000)
  34 Li     7.403408    3.490000   12.467803    ( 0.0000,  0.0000,  0.0000)
  35 Li     4.935605    5.235000   12.467803    ( 0.0000,  0.0000,  0.0000)
  36 Li     4.945700    3.487370   14.860897    ( 0.0000,  0.0000,  0.0000)
  37 Li     7.403408    5.237771   14.853948    ( 0.0000,  0.0000,  0.0000)
  38 Li     7.403408    3.489475   17.213033    ( 0.0000,  0.0000,  0.0000)
  39 Li     4.872158    5.202218   17.232401    ( 0.0000,  0.0000,  0.0000)
  40 Li     4.935605    6.980000   10.000000    ( 0.0000,  0.0000,  0.0000)
  41 Li     7.403408    8.725000   10.000000    ( 0.0000,  0.0000,  0.0000)
  42 Li     7.403408    6.980000   12.467803    ( 0.0000,  0.0000,  0.0000)
  43 Li     4.935605    8.725000   12.467803    ( 0.0000,  0.0000,  0.0000)
  44 Li     4.930047    6.980698   14.866298    ( 0.0000,  0.0000,  0.0000)
  45 Li     7.403408    8.721947   14.853298    ( 0.0000,  0.0000,  0.0000)
  46 Li     7.403408    6.980047   17.221789    ( 0.0000,  0.0000,  0.0000)
  47 Li     4.872552    8.758229   17.232371    ( 0.0000,  0.0000,  0.0000)
  48 Li     9.871211    0.000000   10.000000    ( 0.0000,  0.0000,  0.0000)
  49 Li    12.339013    1.745000   10.000000    ( 0.0000,  0.0000,  0.0000)
  50 Li    12.339013    0.000000   12.467803    ( 0.0000,  0.0000,  0.0000)
  51 Li     9.871211    1.745000   12.467803    ( 0.0000,  0.0000,  0.0000)
  52 Li     9.861264    0.002306   14.861495    ( 0.0000,  0.0000,  0.0000)
  53 Li    12.355376    1.745775   14.842431    ( 0.0000,  0.0000,  0.0000)
  54 Li    12.452801    0.136784   17.398724    ( 0.0000,  0.0000,  0.0000)
  55 Li     9.908879    1.745379   17.229115    ( 0.0000,  0.0000,  0.0000)
  56 Li     9.871211    3.490000   10.000000    ( 0.0000,  0.0000,  0.0000)
  57 Li    12.339013    5.235000   10.000000    ( 0.0000,  0.0000,  0.0000)
  58 Li    12.339013    3.490000   12.467803    ( 0.0000,  0.0000,  0.0000)
  59 Li     9.871211    5.235000   12.467803    ( 0.0000,  0.0000,  0.0000)
  60 Li     9.861116    3.487370   14.860897    ( 0.0000,  0.0000,  0.0000)
  61 Li    12.317617    5.200629   14.935126    ( 0.0000,  0.0000,  0.0000)
  62 Li    12.452430    3.353938   17.399242    ( 0.0000,  0.0000,  0.0000)
  63 Li     9.934658    5.202218   17.232401    ( 0.0000,  0.0000,  0.0000)
  64 Li     9.871211    6.980000   10.000000    ( 0.0000,  0.0000,  0.0000)
  65 Li    12.339013    8.725000   10.000000    ( 0.0000,  0.0000,  0.0000)
  66 Li    12.339013    6.980000   12.467803    ( 0.0000,  0.0000,  0.0000)
  67 Li     9.871211    8.725000   12.467803    ( 0.0000,  0.0000,  0.0000)
  68 Li     9.876769    6.980698   14.866298    ( 0.0000,  0.0000,  0.0000)
  69 Li    12.317934    8.759608   14.933655    ( 0.0000,  0.0000,  0.0000)
  70 Li    12.394692    6.982053   17.278822    ( 0.0000,  0.0000,  0.0000)
  71 Li     9.934264    8.758229   17.232371    ( 0.0000,  0.0000,  0.0000)
  72 Li     0.000000    1.745787   19.302549    ( 0.0000,  0.0000,  0.0000)

Unit cell:
           periodic     x           y           z      points  spacing
  1. axis:    yes   14.806816    0.000000    0.000000    76     0.1948
  2. axis:    yes    0.000000   10.470000    0.000000    52     0.2013
  3. axis:    no     0.000000    0.000000   27.403408   136     0.2015

  Lengths:  14.806816  10.470000  27.403408
  Angles:   90.000000  90.000000  90.000000

Effective grid spacing dv^(1/3) = 0.1992

     iter     time        total  log10-change:
                         energy   eigst   dens
iter:   1 04:41:53  -127.091211        c
iter:   2 04:42:04  -127.091759        c -2.72
iter:   3 04:42:14  -127.091988c       c -3.02
iter:   4 04:42:25  -127.092470c       c -3.13
iter:   5 04:42:35  -127.092493c       c -3.36
iter:   6 04:42:47  -127.092396c       c -3.57
iter:   7 04:42:59  -127.092424c       c -3.76
iter:   8 04:43:11  -127.092509c       c -3.83
iter:   9 04:43:22  -127.092448c       c -4.07c

Converged after 9 iterations.

Dipole moment: (-13.376327, -10.399008, 0.282815) |e|*Ang

Energy contributions relative to reference atoms: (reference = -14803.510878)

Kinetic:       +134.609972
Potential:     -115.742592
External:        +0.000000
XC:            -144.004122
Entropy (-ST):   -2.103698
Local:           -0.903857
SIC:             +0.000000
--------------------------
Free energy:   -128.144297
Extrapolated:  -127.092448

 Band  Eigenvalues  Occupancy
    0     -6.38335    2.00000
    1     -5.87391    2.00000
    2     -5.85469    2.00000
    3     -5.79858    2.00000
    4     -5.34444    2.00000
    5     -5.33744    2.00000
    6     -5.27804    2.00000
    7     -5.25376    2.00000
    8     -4.83976    2.00000
    9     -4.83553    1.99999
   10     -4.81717    1.99999
   11     -4.81125    1.99999
   12     -4.78035    1.99999
   13     -4.74868    1.99999
   14     -4.69026    1.99999
   15     -4.32021    1.99984
   16     -4.31323    1.99983
   17     -4.27301    1.99978
   18     -4.25527    1.99975
   19     -4.23940    1.99973
   20     -4.22178    1.99969
   21     -4.16673    1.99956
   22     -4.11952    1.99939
   23     -3.73361    1.99207
   24     -3.67480    1.98829
   25     -3.65510    1.98666
   26     -3.64048    1.98530
   27     -3.42873    1.94104
   28     -3.26585    1.83491
   29     -3.26049    1.82942
   30     -3.25949    1.82837
   31     -3.24909    1.81718
   32     -3.17772    1.72132
   33     -3.16526    1.70078
   34     -3.14098    1.65722
   35     -3.13972    1.65483
   36     -2.86033    0.85346
   37     -2.74980    0.52537
   38     -2.68119    0.36801
   39     -2.66444    0.33564
   40     -2.66052    0.32841
   41     -2.64801    0.30615
   42     -2.48194    0.11274
   43     -2.48124    0.11224
   44     -2.35266    0.04922
   45     -2.33551    0.04402
   46     -2.22804    0.02175
   47     -2.07844    0.00808

Fermi level: -2.90461

Gap: 0.279 eV
Transition (v -> c):
  (s=0, k=0, n=35, [0.00, 0.00, 0.00]) -> (s=0, k=0, n=36, [0.00, 0.00, 0.00])
No difference between direct/indirect transitions

Forces in eV/Ang:
  0 Li    0.00000    0.00930    0.10583
  1 Li    0.00079    0.00191    0.09275
  2 Li    0.01340   -0.02618   -0.07829
  3 Li    0.00000    0.00141   -0.06353
  4 Li    0.00000   -0.03661   -0.00958
  5 Li    0.04782    0.00071    0.00719
  6 Li    0.00797   -0.03527   -0.03098
  7 Li    0.00000    0.00232   -0.02565
  8 Li    0.00000   -0.00924    0.10562
  9 Li    0.01460   -0.00537    0.09403
 10 Li    0.01319    0.02579   -0.07807
 11 Li    0.00000    0.07647   -0.13952
 12 Li    0.00000    0.03696   -0.01042
 13 Li   -0.02113   -0.00224   -0.01553
 14 Li    0.00601    0.03432   -0.03122
 15 Li    0.00000   -0.01519   -0.01178
 16 Li    0.00000   -0.00015    0.10092
 17 Li    0.01570    0.00356    0.09371
 18 Li   -0.00154    0.00066    0.01227
 19 Li    0.00000   -0.07771   -0.14036
 20 Li    0.00000   -0.00085   -0.04043
 21 Li   -0.02099    0.00399   -0.01443
 22 Li   -0.00601   -0.00052    0.02157
 23 Li    0.00000    0.01614   -0.01055
 24 Li    0.00820   -0.00907    0.08248
 25 Li    0.00000   -0.00006    0.08875
 26 Li    0.00000   -0.00092   -0.07633
 27 Li   -0.00255    0.00056   -0.07189
 28 Li    0.00023    0.01105   -0.00649
 29 Li    0.00000    0.00013   -0.01496
 30 Li    0.00000   -0.00181   -0.00165
 31 Li    0.02961    0.00022   -0.01578
 32 Li    0.00713    0.00721    0.08215
 33 Li    0.00000    0.01536    0.06537
 34 Li    0.00000    0.00048   -0.07568
 35 Li    0.00371    0.00136   -0.06121
 36 Li   -0.00022   -0.01153   -0.00478
 37 Li    0.00000    0.00794   -0.00437
 38 Li    0.00000    0.00242   -0.00136
 39 Li    0.00800    0.00970   -0.00279
 40 Li    0.02122    0.00188    0.07454
 41 Li    0.00000   -0.01532    0.06520
 42 Li    0.00000    0.00049   -0.07585
 43 Li    0.00374   -0.00188   -0.06162
 44 Li    0.00770    0.00039    0.00904
 45 Li    0.00000   -0.00844   -0.00305
 46 Li    0.00000    0.00000   -0.00522
 47 Li    0.00811   -0.00847   -0.00198
 48 Li   -0.00820   -0.00907    0.08248
 49 Li   -0.00079    0.00191    0.09275
 50 Li   -0.01340   -0.02618   -0.07829
 51 Li    0.00255    0.00056   -0.07189
 52 Li   -0.00023    0.01105   -0.00649
 53 Li   -0.04782    0.00071    0.00719
 54 Li   -0.00797   -0.03527   -0.03098
 55 Li   -0.02961    0.00022   -0.01578
 56 Li   -0.00713    0.00721    0.08215
 57 Li   -0.01460   -0.00537    0.09403
 58 Li   -0.01319    0.02579   -0.07807
 59 Li   -0.00371    0.00136   -0.06121
 60 Li    0.00022   -0.01153   -0.00478
 61 Li    0.02113   -0.00224   -0.01553
 62 Li   -0.00601    0.03432   -0.03122
 63 Li   -0.00800    0.00970   -0.00279
 64 Li   -0.02122    0.00188    0.07454
 65 Li   -0.01570    0.00356    0.09371
 66 Li    0.00154    0.00066    0.01227
 67 Li   -0.00374   -0.00188   -0.06162
 68 Li   -0.00770    0.00039    0.00904
 69 Li    0.02099    0.00399   -0.01443
 70 Li    0.00601   -0.00052    0.02157
 71 Li   -0.00811   -0.00847   -0.00198
 72 Li    0.00000    0.00117    0.00400

Timing:                                       incl.     excl.
--------------------------------------------------------------------
Basic WFS set positions:                      0.103     0.044   0.0% |
 Redistribute:                                0.059     0.059   0.0% |
Basis functions set positions:               14.110    14.110   0.5% |
Forces:                                     468.132    11.305   0.4% |
 LCAO forces:                               456.826     0.183   0.0% |
  Atomic Hamiltonian force:                   1.865     1.865   0.1% |
  Initial:                                    0.057     0.000   0.0% |
   Get density matrix:                        0.057     0.057   0.0% |
  Paw correction:                             1.965     1.965   0.1% |
  Potential:                                429.178   429.178  16.2% |-----|
  TCI derivative:                            23.574    23.574   0.9% |
  Wait for sum:                               0.003     0.003   0.0% |
LCAO WFS Initialize:                        114.875     0.181   0.0% |
 Density initialized from wave functions:    78.539     6.636   0.3% |
  Calculate density matrix:                   0.049     0.049   0.0% |
  Construct density:                         71.640    71.640   2.7% ||
  Symmetrize density:                         0.214     0.214   0.0% |
 Hamiltonian:                                36.156     0.004   0.0% |
  Atomic:                                    11.621     0.047   0.0% |
   XC Correction:                            11.573    11.573   0.4% |
  Calculate atomic Hamiltonians:              0.874     0.874   0.0% |
  Communicate:                                0.000     0.000   0.0% |
  Hartree integrate/restrict:                 0.453     0.453   0.0% |
  Initialize Hamiltonian:                     0.000     0.000   0.0% |
  Poisson:                                   10.290     1.031   0.0% |
   Communicate from 1D:                       0.647     0.647   0.0% |
   Communicate from 2D:                       0.652     0.652   0.0% |
   Communicate to 1D:                         0.487     0.487   0.0% |
   Communicate to 2D:                         1.631     1.631   0.1% |
   FFT 1D:                                    2.277     2.277   0.1% |
   FFT 2D:                                    3.566     3.566   0.1% |
  XC 3D grid:                                12.607    12.607   0.5% |
  vbar:                                       0.306     0.306   0.0% |
P tci:                                        6.871     6.871   0.3% |
Redistribute:                                 0.003     0.003   0.0% |
SCF-cycle:                                 2018.262     0.242   0.0% |
 Density:                                   744.666     0.006   0.0% |
  Atomic density matrices:                    0.488     0.488   0.0% |
  Mix:                                       22.767    22.767   0.9% |
  Multipole moments:                          0.125     0.125   0.0% |
  Normalize:                                  0.064     0.064   0.0% |
  Pseudo density:                           721.216     0.302   0.0% |
   Calculate density matrix:                  0.075     0.075   0.0% |
   Construct density:                       719.169   719.169  27.2% |----------|
   Symmetrize density:                        1.671     1.671   0.1% |
 Hamiltonian:                               320.191     0.026   0.0% |
  Atomic:                                   118.421     0.486   0.0% |
   XC Correction:                           117.935   117.935   4.5% |-|
  Calculate atomic Hamiltonians:              6.834     6.834   0.3% |
  Communicate:                                0.002     0.002   0.0% |
  Hartree integrate/restrict:                 2.709     2.709   0.1% |
  Poisson:                                   81.110     3.894   0.1% |
   Communicate from 1D:                       6.578     6.578   0.2% |
   Communicate from 2D:                       6.579     6.579   0.2% |
   Communicate to 1D:                         4.994     4.994   0.2% |
   Communicate to 2D:                         9.488     9.488   0.4% |
   FFT 1D:                                   23.246    23.246   0.9% |
   FFT 2D:                                   26.332    26.332   1.0% |
  XC 3D grid:                               107.917   107.917   4.1% |-|
  vbar:                                       3.172     3.172   0.1% |
 LCAO eigensolver:                          953.162     0.095   0.0% |
  Calculate projections:                      0.260     0.260   0.0% |
  DenseAtomicCorrection:                      3.373     3.373   0.1% |
  Distribute overlap matrix:                  0.009     0.009   0.0% |
  Orbital Layouts:                            3.820     3.820   0.1% |
  Potential matrix:                         945.605   945.605  35.8% |-------------|
ST tci:                                       5.287     5.287   0.2% |
Set symmetry:                                 0.001     0.001   0.0% |
TCI: Evaluate splines:                        0.009     0.009   0.0% |
mktci:                                        2.192     2.192   0.1% |
Other:                                       14.229    14.229   0.5% |
--------------------------------------------------------------------
Total:                                               2644.073 100.0%

Memory usage: 3.67 GiB
Date: Wed Nov 26 04:43:48 2025
