73
Lattice="14.806815998046307 0.0 0.0 0.0 10.47 0.0 0.0 0.0 27.403407999023152" Properties=species:S:1:pos:R:3:move_mask:L:1:tags:I:1:magmoms:R:1:forces:R:3 energy=-127.09244796058277 free_energy=-128.1442969168919 dipole="-13.3763274634356 -10.39900758618616 0.2828149187283851" magmom=0.0 pbc="T T F"
Li       0.00000000       0.00000000      10.00000000  F        4       0.00000000       0.00000000       0.00929891       0.10583328
Li       2.46780267       1.74500000      10.00000000  F        4       0.00000000       0.00079151       0.00191034       0.09274959
Li       2.46780267       0.00000000      12.46780267  F        3       0.00000000       0.01339615      -0.02618424      -0.07829332
Li       0.00000000       1.74500000      12.46780267  F        3       0.00000000       0.00000000       0.00141270      -0.06353254
Li       0.00000000      -0.08538746      14.71741579  T        2       0.00000000       0.00000000      -0.03660972      -0.00957559
Li       2.45144014       1.74577542      14.84243083  T        2       0.00000000       0.04782150       0.00070860       0.00718732
Li       2.35401450       0.13678358      17.39872399  T        1       0.00000000       0.00796649      -0.03526623      -0.03098408
Li       0.00000000       1.74306703      16.70816485  T        1       0.00000000       0.00000000       0.00232034      -0.02565261
Li       0.00000000       3.49000000      10.00000000  F        4       0.00000000       0.00000000      -0.00923888       0.10561501
Li       2.46780267       5.23500000      10.00000000  F        4       0.00000000       0.01460256      -0.00537121       0.09403150
Li       2.46780267       3.49000000      12.46780267  F        3       0.00000000       0.01318747       0.02579248      -0.07806892
Li       0.00000000       5.23500000      12.46780267  F        3       0.00000000       0.00000000       0.07646629      -0.13952004
Li       0.00000000       3.57573959      14.71905574  T        2       0.00000000       0.00000000       0.03696442      -0.01041567
Li       2.48919868       5.20062851      14.93512590  T        2       0.00000000      -0.02112884      -0.00224170      -0.01552662
Li       2.35438602       3.35393788      17.39924185  T        1       0.00000000       0.00600533       0.03432490      -0.03121542
Li       0.00000000       5.12384683      17.32766873  T        1       0.00000000       0.00000000      -0.01519244      -0.01177856
Li       0.00000000       6.98000000      10.00000000  F        4       0.00000000       0.00000000      -0.00014814       0.10092267
Li       2.46780267       8.72500000      10.00000000  F        4       0.00000000       0.01569546       0.00355897       0.09371299
Li       2.46780267       6.98000000      12.46780267  F        3       0.00000000      -0.00153919       0.00065884       0.01226528
Li       0.00000000       8.72500000      12.46780267  F        3       0.00000000       0.00000000      -0.07770851      -0.14035648
Li       0.00000000       6.98156439      14.95327386  T        2       0.00000000       0.00000000      -0.00084966      -0.04042925
Li       2.48888175       8.75960824      14.93365457  T        2       0.00000000      -0.02099162       0.00398747      -0.01442937
Li       2.41212435       6.98205289      17.27882241  T        1       0.00000000      -0.00600891      -0.00052163       0.02157079
Li       0.00000000       8.83624254      17.32696002  T        1       0.00000000       0.00000000       0.01614054      -0.01054864
Li       4.93560533       0.00000000      10.00000000  F        4       0.00000000       0.00820003      -0.00906749       0.08247539
Li       7.40340800       1.74500000      10.00000000  F        4       0.00000000       0.00000000      -0.00005921       0.08874503
Li       7.40340800       0.00000000      12.46780267  F        3       0.00000000       0.00000000      -0.00092220      -0.07633239
Li       4.93560533       1.74500000      12.46780267  F        3       0.00000000      -0.00255003       0.00056261      -0.07188793
Li       4.94555195       0.00230589      14.86149526  T        2       0.00000000       0.00023375       0.01104529      -0.00649390
Li       7.40340800       1.74570326      14.87020290  T        2       0.00000000       0.00000000       0.00012678      -0.01496066
Li       7.40340800       0.00068031      17.21198020  T        1       0.00000000       0.00000000      -0.00181232      -0.00165141
Li       4.89793663       1.74537900      17.22911530  T        1       0.00000000       0.02960619       0.00021560      -0.01577626
Li       4.93560533       3.49000000      10.00000000  F        4       0.00000000       0.00713435       0.00720533       0.08214956
Li       7.40340800       5.23500000      10.00000000  F        4       0.00000000       0.00000000       0.01535795       0.06537051
Li       7.40340800       3.49000000      12.46780267  F        3       0.00000000       0.00000000       0.00047846      -0.07568267
Li       4.93560533       5.23500000      12.46780267  F        3       0.00000000       0.00371193       0.00135697      -0.06121123
Li       4.94569987       3.48737048      14.86089656  T        2       0.00000000      -0.00021735      -0.01153482      -0.00477602
Li       7.40340800       5.23777074      14.85394785  T        2       0.00000000       0.00000000       0.00793598      -0.00436748
Li       7.40340800       3.48947512      17.21303335  T        1       0.00000000       0.00000000       0.00242109      -0.00136314
Li       4.87215827       5.20221772      17.23240056  T        1       0.00000000       0.00800113       0.00969518      -0.00279247
Li       4.93560533       6.98000000      10.00000000  F        4       0.00000000       0.02122431       0.00188427       0.07453716
Li       7.40340800       8.72500000      10.00000000  F        4       0.00000000       0.00000000      -0.01531652       0.06519745
Li       7.40340800       6.98000000      12.46780267  F        3       0.00000000       0.00000000       0.00048889      -0.07584779
Li       4.93560533       8.72500000      12.46780267  F        3       0.00000000       0.00373570      -0.00188240      -0.06162344
Li       4.93004717       6.98069800      14.86629810  T        2       0.00000000       0.00769592       0.00039263       0.00904357
Li       7.40340800       8.72194668      14.85329839  T        2       0.00000000       0.00000000      -0.00843506      -0.00304506
Li       7.40340800       6.98004685      17.22178923  T        1       0.00000000       0.00000000       0.00000118      -0.00521927
Li       4.87255202       8.75822941      17.23237119  T        1       0.00000000       0.00810522      -0.00847403      -0.00197852
Li       9.87121067       0.00000000      10.00000000  F        4       0.00000000      -0.00820003      -0.00906749       0.08247539
Li      12.33901333       1.74500000      10.00000000  F        4       0.00000000      -0.00079151       0.00191034       0.09274959
Li      12.33901333       0.00000000      12.46780267  F        3       0.00000000      -0.01339615      -0.02618424      -0.07829332
Li       9.87121067       1.74500000      12.46780267  F        3       0.00000000       0.00255003       0.00056261      -0.07188793
Li       9.86126405       0.00230589      14.86149526  T        2       0.00000000      -0.00023375       0.01104529      -0.00649390
Li      12.35537586       1.74577542      14.84243083  T        2       0.00000000      -0.04782150       0.00070860       0.00718732
Li      12.45280150       0.13678358      17.39872399  T        1       0.00000000      -0.00796649      -0.03526623      -0.03098408
Li       9.90887937       1.74537900      17.22911530  T        1       0.00000000      -0.02960619       0.00021560      -0.01577626
Li       9.87121067       3.49000000      10.00000000  F        4       0.00000000      -0.00713435       0.00720533       0.08214956
Li      12.33901333       5.23500000      10.00000000  F        4       0.00000000      -0.01460256      -0.00537121       0.09403150
Li      12.33901333       3.49000000      12.46780267  F        3       0.00000000      -0.01318747       0.02579248      -0.07806892
Li       9.87121067       5.23500000      12.46780267  F        3       0.00000000      -0.00371193       0.00135697      -0.06121123
Li       9.86111613       3.48737048      14.86089656  T        2       0.00000000       0.00021735      -0.01153482      -0.00477602
Li      12.31761732       5.20062851      14.93512590  T        2       0.00000000       0.02112884      -0.00224170      -0.01552662
Li      12.45242997       3.35393788      17.39924185  T        1       0.00000000      -0.00600533       0.03432490      -0.03121542
Li       9.93465772       5.20221772      17.23240056  T        1       0.00000000      -0.00800113       0.00969518      -0.00279247
Li       9.87121067       6.98000000      10.00000000  F        4       0.00000000      -0.02122431       0.00188427       0.07453716
Li      12.33901333       8.72500000      10.00000000  F        4       0.00000000      -0.01569546       0.00355897       0.09371299
Li      12.33901333       6.98000000      12.46780267  F        3       0.00000000       0.00153919       0.00065884       0.01226528
Li       9.87121067       8.72500000      12.46780267  F        3       0.00000000      -0.00373570      -0.00188240      -0.06162344
Li       9.87676883       6.98069800      14.86629810  T        2       0.00000000      -0.00769592       0.00039263       0.00904357
Li      12.31793425       8.75960824      14.93365457  T        2       0.00000000       0.02099162       0.00398747      -0.01442937
Li      12.39469165       6.98205289      17.27882241  T        1       0.00000000       0.00600891      -0.00052163       0.02157079
Li       9.93426398       8.75822941      17.23237119  T        1       0.00000000      -0.00810522      -0.00847403      -0.00197852
Li       0.00000000       1.74578712      19.30254898  T        0       0.00000000       0.00000000       0.00116933       0.00399545
