
  ___ ___ ___ _ _ _  
 |   |   |_  | | | | 
 | | | | | . | | | | 
 |__ |  _|___|_____|  25.7.0
 |___|_|             

User:   tew@Mathuss-MacBook-Air-357.local
Date:   Wed Nov 26 03:06:57 2025
Arch:   arm64
Pid:    88448
CWD:    /Users/tew/Documents/Project/GitHub/chem-com
Python: 3.13.5
gpaw:   /Users/tew/Documents/Project/GitHub/chem-com/.venv/lib/python3.13/site-packages/gpaw
_gpaw:  /Users/tew/Documents/Project/GitHub/chem-com/.venv/lib/python3.13/site-packages/
        _gpaw.cpython-313-darwin.so
ase:    /Users/tew/Documents/Project/GitHub/chem-com/.venv/lib/python3.13/site-packages/ase (version 3.26.0)
numpy:  /Users/tew/Documents/Project/GitHub/chem-com/.venv/lib/python3.13/site-packages/numpy (version 2.3.5)
scipy:  /Users/tew/Documents/Project/GitHub/chem-com/.venv/lib/python3.13/site-packages/scipy (version 1.16.3)
libxc:  2.x.y
units:  Angstrom and eV
cores: 1
OpenMP: False
OMP_NUM_THREADS: 1

Input parameters:
  basis: dzp
  convergence: {density: 0.0001,
                eigenstates: 5e-06}
  kpts: [1 1 1]
  mode: {interpolation: 3,
         name: lcao}
  occupations: {fixmagmom: False,
                name: fermi-dirac,
                width: 0.15}
  xc: PBE

System changes: positions, numbers, cell, pbc, initial_charges, initial_magmoms 

Initialize ...

species:
  Li:
    name: Lithium
    id: 830b4218f175192f93f959cfc0aad614
    Z: 3.0
    valence: 1
    core: 2
    charge: 0.0
    file: /Users/tew/Documents/Project/GitHub/chem-com/.venv/lib/python3.13/site-packages/gpaw_data/setups/Li.PBE.gz
    compensation charges: {type: gauss,
                           rc: 0.33,
                           lmax: 2}
    cutoffs: {filter: 1.91,
              core: 2.55}
    projectors:
      #              energy  rcut
      - 2s(1.00)    -2.874   1.058
      - 2p(0.00)    -1.090   1.058
      -  s          24.337   1.058
  
    # LCAO basis set for Li:
    #   Name: dzp
    #   File: /Users/tew/Documents/Project/GitHub/chem-com/.venv/lib/python3.13/site-packages/gpaw_data/setups/Li.dzp.basis.gz
    #   Number of radial functions: 3
    #   Number of spherical harmonics: 5
    #     l=0, rc=10.8906 Bohr: 2s-sz confined orbital
    #     l=0, rc=6.6719 Bohr: 2s-dz split-valence wave
    #     l=1, rc=10.8906 Bohr: p-type Gaussian polarization
    #   Number of RI-basis functions 0

Reference energy: -14803.510878  # eV

Spin-paired calculation

Convergence criteria:
 Maximum [total energy] change in last 3 cyles: 0.0005 eV / valence electron
 Maximum integral of absolute [dens]ity change: 0.0001 electrons / valence electron
 Maximum integral of absolute [eigenst]ate change: 5e-06 eV^2 / valence electron
 Maximum number of scf [iter]ations: 333
 (Square brackets indicate name in SCF output, whereas a 'c' in
 the SCF output indicates the quantity has converged.)

Symmetries present (total): 2

  ( 1  0  0)  ( 1  0  0)
  ( 0  1  0)  ( 0 -1  0)
  ( 0  0  1)  ( 0  0  1)

1 k-point (Gamma)
1 k-point in the irreducible part of the Brillouin zone
       k-points in crystal coordinates                weights
   0:     0.00000000    0.00000000    0.00000000          1/1

Wave functions: LCAO
  Diagonalizer: Serial LAPACK
  Atomic Correction: dense with blas
  Data-type: float
 

Occupation numbers: Fermi-Dirac:
  width: 0.1500  # eV
 

Eigensolver
   LCAO using direct dense diagonalizer 

Densities:
  Coarse grid: 76*52*136 grid
  Fine grid: 152*104*272 grid
  Total Charge: 0.000000 

Density mixing:
  Method: separate
  Backend: pulay
  Linear mixing parameter: 0.05
  old densities: 5
  Damping of long wavelength oscillations: 50 

Hamiltonian:
  XC and Coulomb potentials evaluated on a 152*104*272 grid
  Using the PBE Exchange-Correlation functional
  Interpolation: tri-quintic (5. degree polynomial)
  Poisson solver: FastPoissonSolver using
    Stencil: 6*3+1=19 point O(h^6) finite-difference Laplacian
    FFT axes: [np.int64(0), np.int64(1)]
    FST axes: [np.int64(2)]
 

XC parameters: PBE with 2 nearest neighbor stencil

Memory estimate:
  Process memory now: 3762.67 MiB
  Calculator: 680.35 MiB
    Density: 353.33 MiB
      Arrays: 106.19 MiB
      Localized functions: 206.43 MiB
      Mixer: 40.70 MiB
    Hamiltonian: 85.76 MiB
      Arrays: 69.44 MiB
      XC: 0.00 MiB
      Poisson: 0.00 MiB
      vbar: 16.32 MiB
    Wavefunctions: 241.26 MiB
      C [qnM]: 0.13 MiB
      S, T [2 x qmm]: 2.03 MiB
      P [aqMi]: 0.13 MiB
      BasisFunctions: 238.97 MiB
      Eigensolver: 0.00 MiB

Total number of cores used: 1

Number of atoms: 73
Number of atomic orbitals: 365
Number of bands in calculation: 48
Number of valence electrons: 73
Bands to converge: occupied

... initialized

Initializing position-dependent things.

Density initialized from atomic densities
       .-----------------------------------.  
      /|                                   |  
     / |                                   |  
    /  |                                   |  
   /   |                                   |  
  /    |                                   |  
 *     |                                   |  
 |     |                                   |  
 |     |                                   |  
 |     |                                   |  
 |     |                                   |  
 |     |                                   |  
 |     |                                   |  
 |    Li          Li          Li           |  
 |     |   Li          Li          Li      |  
 |  Li |        Li          Li             |  
 |     LiLi Li       Li Li       Li Li     |  
 |Li Li|      Li Li       Li Li            |  
 |     Li Li       Li Li       Li Li       |  
 | Li  |       Li          Li              |  
 |    LiLi        LiLi        LiLi         |  
 Li    |   LiLi        LiLi        Li      |  
 |  Li |        Li          Li             |  
 |     | Li Li       Li Li       Li Li     |  
 |Li Li|      Li Li       Li Li            |  
 |     Li Li       Li Li       Li Li       |  
 | Li  |       Li          Li              |  
 |     |Li          Li          Li         |  
 Li    |     Li          Li                |  
 |     |                                   |  
 |     |                                   |  
 |     |                                   |  
 |     |                                   |  
 |     |                                   |  
 |     .-----------------------------------.  
 |    /                                   /   
 |   /                                   /    
 |  /                                   /     
 | /                                   /      
 |/                                   /       
 *-----------------------------------*        

Atomic positions and initial magnetic moments

Positions:
   0 Li     0.000000    0.000000   10.000000    ( 0.0000,  0.0000,  0.0000)
   1 Li     2.467803    1.745000   10.000000    ( 0.0000,  0.0000,  0.0000)
   2 Li     2.467803    0.000000   12.467803    ( 0.0000,  0.0000,  0.0000)
   3 Li     0.000000    1.745000   12.467803    ( 0.0000,  0.0000,  0.0000)
   4 Li     0.000000    0.000000   14.935605    ( 0.0000,  0.0000,  0.0000)
   5 Li     2.467803    1.745000   14.935605    ( 0.0000,  0.0000,  0.0000)
   6 Li     2.467803    0.000000   17.403408    ( 0.0000,  0.0000,  0.0000)
   7 Li     0.000000    1.745000   17.403408    ( 0.0000,  0.0000,  0.0000)
   8 Li     0.000000    3.490000   10.000000    ( 0.0000,  0.0000,  0.0000)
   9 Li     2.467803    5.235000   10.000000    ( 0.0000,  0.0000,  0.0000)
  10 Li     2.467803    3.490000   12.467803    ( 0.0000,  0.0000,  0.0000)
  11 Li     0.000000    5.235000   12.467803    ( 0.0000,  0.0000,  0.0000)
  12 Li     0.000000    3.490000   14.935605    ( 0.0000,  0.0000,  0.0000)
  13 Li     2.467803    5.235000   14.935605    ( 0.0000,  0.0000,  0.0000)
  14 Li     2.467803    3.490000   17.403408    ( 0.0000,  0.0000,  0.0000)
  15 Li     0.000000    5.235000   17.403408    ( 0.0000,  0.0000,  0.0000)
  16 Li     0.000000    6.980000   10.000000    ( 0.0000,  0.0000,  0.0000)
  17 Li     2.467803    8.725000   10.000000    ( 0.0000,  0.0000,  0.0000)
  18 Li     2.467803    6.980000   12.467803    ( 0.0000,  0.0000,  0.0000)
  19 Li     0.000000    8.725000   12.467803    ( 0.0000,  0.0000,  0.0000)
  20 Li     0.000000    6.980000   14.935605    ( 0.0000,  0.0000,  0.0000)
  21 Li     2.467803    8.725000   14.935605    ( 0.0000,  0.0000,  0.0000)
  22 Li     2.467803    6.980000   17.403408    ( 0.0000,  0.0000,  0.0000)
  23 Li     0.000000    8.725000   17.403408    ( 0.0000,  0.0000,  0.0000)
  24 Li     4.935605    0.000000   10.000000    ( 0.0000,  0.0000,  0.0000)
  25 Li     7.403408    1.745000   10.000000    ( 0.0000,  0.0000,  0.0000)
  26 Li     7.403408    0.000000   12.467803    ( 0.0000,  0.0000,  0.0000)
  27 Li     4.935605    1.745000   12.467803    ( 0.0000,  0.0000,  0.0000)
  28 Li     4.935605    0.000000   14.935605    ( 0.0000,  0.0000,  0.0000)
  29 Li     7.403408    1.745000   14.935605    ( 0.0000,  0.0000,  0.0000)
  30 Li     7.403408    0.000000   17.403408    ( 0.0000,  0.0000,  0.0000)
  31 Li     4.935605    1.745000   17.403408    ( 0.0000,  0.0000,  0.0000)
  32 Li     4.935605    3.490000   10.000000    ( 0.0000,  0.0000,  0.0000)
  33 Li     7.403408    5.235000   10.000000    ( 0.0000,  0.0000,  0.0000)
  34 Li     7.403408    3.490000   12.467803    ( 0.0000,  0.0000,  0.0000)
  35 Li     4.935605    5.235000   12.467803    ( 0.0000,  0.0000,  0.0000)
  36 Li     4.935605    3.490000   14.935605    ( 0.0000,  0.0000,  0.0000)
  37 Li     7.403408    5.235000   14.935605    ( 0.0000,  0.0000,  0.0000)
  38 Li     7.403408    3.490000   17.403408    ( 0.0000,  0.0000,  0.0000)
  39 Li     4.935605    5.235000   17.403408    ( 0.0000,  0.0000,  0.0000)
  40 Li     4.935605    6.980000   10.000000    ( 0.0000,  0.0000,  0.0000)
  41 Li     7.403408    8.725000   10.000000    ( 0.0000,  0.0000,  0.0000)
  42 Li     7.403408    6.980000   12.467803    ( 0.0000,  0.0000,  0.0000)
  43 Li     4.935605    8.725000   12.467803    ( 0.0000,  0.0000,  0.0000)
  44 Li     4.935605    6.980000   14.935605    ( 0.0000,  0.0000,  0.0000)
  45 Li     7.403408    8.725000   14.935605    ( 0.0000,  0.0000,  0.0000)
  46 Li     7.403408    6.980000   17.403408    ( 0.0000,  0.0000,  0.0000)
  47 Li     4.935605    8.725000   17.403408    ( 0.0000,  0.0000,  0.0000)
  48 Li     9.871211    0.000000   10.000000    ( 0.0000,  0.0000,  0.0000)
  49 Li    12.339013    1.745000   10.000000    ( 0.0000,  0.0000,  0.0000)
  50 Li    12.339013    0.000000   12.467803    ( 0.0000,  0.0000,  0.0000)
  51 Li     9.871211    1.745000   12.467803    ( 0.0000,  0.0000,  0.0000)
  52 Li     9.871211    0.000000   14.935605    ( 0.0000,  0.0000,  0.0000)
  53 Li    12.339013    1.745000   14.935605    ( 0.0000,  0.0000,  0.0000)
  54 Li    12.339013    0.000000   17.403408    ( 0.0000,  0.0000,  0.0000)
  55 Li     9.871211    1.745000   17.403408    ( 0.0000,  0.0000,  0.0000)
  56 Li     9.871211    3.490000   10.000000    ( 0.0000,  0.0000,  0.0000)
  57 Li    12.339013    5.235000   10.000000    ( 0.0000,  0.0000,  0.0000)
  58 Li    12.339013    3.490000   12.467803    ( 0.0000,  0.0000,  0.0000)
  59 Li     9.871211    5.235000   12.467803    ( 0.0000,  0.0000,  0.0000)
  60 Li     9.871211    3.490000   14.935605    ( 0.0000,  0.0000,  0.0000)
  61 Li    12.339013    5.235000   14.935605    ( 0.0000,  0.0000,  0.0000)
  62 Li    12.339013    3.490000   17.403408    ( 0.0000,  0.0000,  0.0000)
  63 Li     9.871211    5.235000   17.403408    ( 0.0000,  0.0000,  0.0000)
  64 Li     9.871211    6.980000   10.000000    ( 0.0000,  0.0000,  0.0000)
  65 Li    12.339013    8.725000   10.000000    ( 0.0000,  0.0000,  0.0000)
  66 Li    12.339013    6.980000   12.467803    ( 0.0000,  0.0000,  0.0000)
  67 Li     9.871211    8.725000   12.467803    ( 0.0000,  0.0000,  0.0000)
  68 Li     9.871211    6.980000   14.935605    ( 0.0000,  0.0000,  0.0000)
  69 Li    12.339013    8.725000   14.935605    ( 0.0000,  0.0000,  0.0000)
  70 Li    12.339013    6.980000   17.403408    ( 0.0000,  0.0000,  0.0000)
  71 Li     9.871211    8.725000   17.403408    ( 0.0000,  0.0000,  0.0000)
  72 Li     2.467803    0.000000   19.403408    ( 0.0000,  0.0000,  0.0000)

Unit cell:
           periodic     x           y           z      points  spacing
  1. axis:    yes   14.806816    0.000000    0.000000    76     0.1948
  2. axis:    yes    0.000000   10.470000    0.000000    52     0.2013
  3. axis:    no     0.000000    0.000000   27.403408   136     0.2015

  Lengths:  14.806816  10.470000  27.403408
  Angles:   90.000000  90.000000  90.000000

Effective grid spacing dv^(1/3) = 0.1992

     iter     time        total  log10-change:
                         energy   eigst   dens
iter:   1 03:07:26  -133.302059        c
iter:   2 03:07:42  -129.990751        c -0.65
iter:   3 03:07:55  -127.546154        c -0.79
iter:   4 03:08:09  -127.330146        c -0.99
iter:   5 03:08:23  -126.628440        c -1.06
iter:   6 03:08:35  -126.491203        c -1.31
iter:   7 03:08:45  -126.366785        c -1.42
iter:   8 03:08:54  -126.342721        c -1.66
iter:   9 03:09:04  -126.312059        c -1.78
iter:  10 03:09:15  -126.308321c       c -2.10
iter:  11 03:09:26  -126.301931c       c -2.20
iter:  12 03:09:35  -126.300828c       c -2.49
iter:  13 03:09:48  -126.300082c       c -2.58
iter:  14 03:09:59  -126.300075c       c -2.70
iter:  15 03:10:11  -126.300200c       c -2.81
iter:  16 03:10:22  -126.300090c       c -2.90
iter:  17 03:10:32  -126.300085c       c -3.04
iter:  18 03:10:43  -126.300320c       c -3.20
iter:  19 03:10:54  -126.300507c       c -3.44
iter:  20 03:11:04  -126.300688c       c -3.61
iter:  21 03:11:13  -126.300717c       c -3.82
iter:  22 03:11:27  -126.300688c       c -3.93
iter:  23 03:11:38  -126.300676c       c -4.03c

Converged after 23 iterations.

Dipole moment: (-12.574502, -8.679954, 0.219650) |e|*Ang

Energy contributions relative to reference atoms: (reference = -14803.510878)

Kinetic:       +131.353870
Potential:     -113.520497
External:        +0.000000
XC:            -142.156400
Entropy (-ST):   -2.156299
Local:           -0.899499
SIC:             +0.000000
--------------------------
Free energy:   -127.378825
Extrapolated:  -126.300676

 Band  Eigenvalues  Occupancy
    0     -6.37568    2.00000
    1     -5.85385    2.00000
    2     -5.85242    2.00000
    3     -5.81468    2.00000
    4     -5.32843    2.00000
    5     -5.32528    2.00000
    6     -5.28845    2.00000
    7     -5.27495    2.00000
    8     -4.81560    1.99999
    9     -4.81087    1.99999
   10     -4.81036    1.99999
   11     -4.80883    1.99999
   12     -4.78414    1.99999
   13     -4.76182    1.99999
   14     -4.72299    1.99999
   15     -4.30085    1.99979
   16     -4.29000    1.99978
   17     -4.27455    1.99975
   18     -4.26108    1.99973
   19     -4.25379    1.99972
   20     -4.24674    1.99970
   21     -4.19238    1.99957
   22     -4.15915    1.99947
   23     -3.74173    1.99144
   24     -3.69068    1.98799
   25     -3.67623    1.98679
   26     -3.66706    1.98596
   27     -3.45234    1.94253
   28     -3.24144    1.78459
   29     -3.24084    1.78382
   30     -3.23146    1.77146
   31     -3.22956    1.76888
   32     -3.20431    1.73219
   33     -3.19865    1.72331
   34     -3.18709    1.70442
   35     -3.16530    1.66593
   36     -2.89683    0.90876
   37     -2.80191    0.61331
   38     -2.68523    0.33773
   39     -2.68500    0.33731
   40     -2.66571    0.30276
   41     -2.66149    0.29560
   42     -2.52889    0.13372
   43     -2.52367    0.12944
   44     -2.37165    0.04901
   45     -2.28555    0.02790
   46     -2.27939    0.02679
   47     -2.14299    0.01088

Fermi level: -2.92428

Gap: 0.268 eV
Transition (v -> c):
  (s=0, k=0, n=35, [0.00, 0.00, 0.00]) -> (s=0, k=0, n=36, [0.00, 0.00, 0.00])
No difference between direct/indirect transitions

Forces in eV/Ang:
  0 Li    0.00169    0.00000    0.09384
  1 Li    0.00044   -0.00966    0.10068
  2 Li   -0.00167    0.00000    0.00762
  3 Li   -0.00606    0.00233   -0.01554
  4 Li   -0.00566    0.00000   -0.01778
  5 Li   -0.00166    0.00393   -0.04021
  6 Li   -0.00139    0.00000   -2.19967
  7 Li    0.11860   -0.08745    0.02440
  8 Li   -0.01476   -0.00414    0.09599
  9 Li   -0.00069    0.00000    0.11209
 10 Li   -0.00190    0.00096   -0.01371
 11 Li   -0.00188    0.00000   -0.01107
 12 Li   -0.00445    0.00212    0.00594
 13 Li   -0.00174    0.00000    0.00800
 14 Li    0.00048   -0.11386    0.01756
 15 Li   -0.00034    0.00000   -0.07647
 16 Li   -0.01476    0.00414    0.09599
 17 Li    0.00044    0.00966    0.10068
 18 Li   -0.00190   -0.00096   -0.01371
 19 Li   -0.00606   -0.00233   -0.01554
 20 Li   -0.00445   -0.00212    0.00594
 21 Li   -0.00166   -0.00393   -0.04021
 22 Li    0.00048    0.11386    0.01756
 23 Li    0.11860    0.08745    0.02440
 24 Li   -0.00104    0.00000    0.09487
 25 Li    0.00704    0.00794    0.08658
 26 Li    0.00165    0.00000   -0.01362
 27 Li    0.00761    0.00222   -0.01447
 28 Li    0.00738    0.00000   -0.01965
 29 Li   -0.00232    0.00630    0.01661
 30 Li   -0.00922    0.00000   -0.07964
 31 Li   -0.11853   -0.08505    0.02358
 32 Li    0.01433   -0.00613    0.09687
 33 Li    0.01772    0.00000    0.07773
 34 Li    0.00584   -0.00012   -0.01015
 35 Li    0.00366    0.00000   -0.00926
 36 Li    0.00648    0.00197    0.00497
 37 Li   -0.00227    0.00000    0.00638
 38 Li    0.00365   -0.00231   -0.09020
 39 Li    0.00087    0.00000   -0.07752
 40 Li    0.01433    0.00613    0.09687
 41 Li    0.00704   -0.00794    0.08658
 42 Li    0.00584    0.00012   -0.01015
 43 Li    0.00761   -0.00222   -0.01447
 44 Li    0.00648   -0.00197    0.00497
 45 Li   -0.00232   -0.00630    0.01661
 46 Li    0.00365    0.00231   -0.09020
 47 Li   -0.11853    0.08505    0.02358
 48 Li   -0.00059    0.00000    0.09415
 49 Li   -0.00748    0.00992    0.08744
 50 Li    0.00014    0.00000   -0.01175
 51 Li   -0.00184    0.00448   -0.00984
 52 Li   -0.00167    0.00000    0.01653
 53 Li    0.00416    0.00623    0.01567
 54 Li    0.00966    0.00000   -0.08071
 55 Li    0.00052   -0.00022   -0.09472
 56 Li    0.00041    0.00935    0.07355
 57 Li   -0.01700    0.00000    0.07874
 58 Li   -0.00411   -0.00009   -0.00913
 59 Li   -0.00174    0.00000   -0.00503
 60 Li   -0.00179    0.00341   -0.00334
 61 Li    0.00417    0.00000    0.00451
 62 Li   -0.00400   -0.00421   -0.09108
 63 Li   -0.00058    0.00000   -0.08680
 64 Li    0.00041   -0.00935    0.07355
 65 Li   -0.00748   -0.00992    0.08744
 66 Li   -0.00411    0.00009   -0.00913
 67 Li   -0.00184   -0.00448   -0.00984
 68 Li   -0.00179   -0.00341   -0.00334
 69 Li    0.00416   -0.00623    0.01567
 70 Li   -0.00400    0.00421   -0.09108
 71 Li    0.00052    0.00022   -0.09472
 72 Li   -0.00027    0.00000    1.57940

System changes: positions 

Initializing position-dependent things.

Density initialized from wave functions
       .-----------------------------------.  
      /|                                   |  
     / |                                   |  
    /  |                                   |  
   /   |                                   |  
  /    |                                   |  
 *     |                                   |  
 |     |                                   |  
 |     |                                   |  
 |     |                                   |  
 |     |                                   |  
 |     |                                   |  
 |     |                                   |  
 |    Li          Li          Li           |  
 |     |   Li          Li          Li      |  
 |     |        Li          Li          Li |  
 |     LiLi Li       Li Li       Li Li     |  
 |Li   |      Li Li       Li Li          Li|  
 |     Li Li       Li Li       Li Li       |  
 |     |       Li          Li          Li  |  
 |    LiLi        LiLi        LiLi         |  
 |     |   LiLi        LiLi        LiLi    |  
 |  Li |        Li          Li             |  
 |     | Li Li       Li Li       Li Li     |  
 |Li Li|      Li Li       Li Li            |  
 |     Li Li       Li Li       Li Li       |  
 | Li  |       Li          Li              |  
 |     |Li          Li          Li         |  
 Li    |     Li          Li                |  
 |     |                                   |  
 |     |                                   |  
 |     |                                   |  
 |     |                                   |  
 |     |                                   |  
 |     .-----------------------------------.  
 |    /                                   /   
 |   /                                   /    
 |  /                                   /     
 | /                                   /      
 |/                                   /       
 *-----------------------------------*        

Atomic positions and initial magnetic moments

Positions:
   0 Li     0.000000    0.000000   10.000000    ( 0.0000,  0.0000,  0.0000)
   1 Li     2.467803    1.745000   10.000000    ( 0.0000,  0.0000,  0.0000)
   2 Li     2.467803    0.000000   12.467803    ( 0.0000,  0.0000,  0.0000)
   3 Li     0.000000    1.745000   12.467803    ( 0.0000,  0.0000,  0.0000)
   4 Li    -0.000081    0.000000   14.935351    ( 0.0000,  0.0000,  0.0000)
   5 Li     2.467779    1.745056   14.935031    ( 0.0000,  0.0000,  0.0000)
   6 Li     2.467783    0.000000   17.371984    ( 0.0000,  0.0000,  0.0000)
   7 Li     0.001694    1.743751   17.403757    ( 0.0000,  0.0000,  0.0000)
   8 Li     0.000000    3.490000   10.000000    ( 0.0000,  0.0000,  0.0000)
   9 Li     2.467803    5.235000   10.000000    ( 0.0000,  0.0000,  0.0000)
  10 Li     2.467803    3.490000   12.467803    ( 0.0000,  0.0000,  0.0000)
  11 Li     0.000000    5.235000   12.467803    ( 0.0000,  0.0000,  0.0000)
  12 Li    -0.000064    3.490030   14.935690    ( 0.0000,  0.0000,  0.0000)
  13 Li     2.467778    5.235000   14.935720    ( 0.0000,  0.0000,  0.0000)
  14 Li     2.467809    3.488373   17.403659    ( 0.0000,  0.0000,  0.0000)
  15 Li    -0.000005    5.235000   17.402316    ( 0.0000,  0.0000,  0.0000)
  16 Li     0.000000    6.980000   10.000000    ( 0.0000,  0.0000,  0.0000)
  17 Li     2.467803    8.725000   10.000000    ( 0.0000,  0.0000,  0.0000)
  18 Li     2.467803    6.980000   12.467803    ( 0.0000,  0.0000,  0.0000)
  19 Li     0.000000    8.725000   12.467803    ( 0.0000,  0.0000,  0.0000)
  20 Li    -0.000064    6.979970   14.935690    ( 0.0000,  0.0000,  0.0000)
  21 Li     2.467779    8.724944   14.935031    ( 0.0000,  0.0000,  0.0000)
  22 Li     2.467809    6.981627   17.403659    ( 0.0000,  0.0000,  0.0000)
  23 Li     0.001694    8.726249   17.403757    ( 0.0000,  0.0000,  0.0000)
  24 Li     4.935605    0.000000   10.000000    ( 0.0000,  0.0000,  0.0000)
  25 Li     7.403408    1.745000   10.000000    ( 0.0000,  0.0000,  0.0000)
  26 Li     7.403408    0.000000   12.467803    ( 0.0000,  0.0000,  0.0000)
  27 Li     4.935605    1.745000   12.467803    ( 0.0000,  0.0000,  0.0000)
  28 Li     4.935711    0.000000   14.935325    ( 0.0000,  0.0000,  0.0000)
  29 Li     7.403375    1.745090   14.935843    ( 0.0000,  0.0000,  0.0000)
  30 Li     7.403276    0.000000   17.402270    ( 0.0000,  0.0000,  0.0000)
  31 Li     4.933912    1.743785   17.403745    ( 0.0000,  0.0000,  0.0000)
  32 Li     4.935605    3.490000   10.000000    ( 0.0000,  0.0000,  0.0000)
  33 Li     7.403408    5.235000   10.000000    ( 0.0000,  0.0000,  0.0000)
  34 Li     7.403408    3.490000   12.467803    ( 0.0000,  0.0000,  0.0000)
  35 Li     4.935605    5.235000   12.467803    ( 0.0000,  0.0000,  0.0000)
  36 Li     4.935698    3.490028   14.935676    ( 0.0000,  0.0000,  0.0000)
  37 Li     7.403376    5.235000   14.935696    ( 0.0000,  0.0000,  0.0000)
  38 Li     7.403460    3.489967   17.402119    ( 0.0000,  0.0000,  0.0000)
  39 Li     4.935618    5.235000   17.402301    ( 0.0000,  0.0000,  0.0000)
  40 Li     4.935605    6.980000   10.000000    ( 0.0000,  0.0000,  0.0000)
  41 Li     7.403408    8.725000   10.000000    ( 0.0000,  0.0000,  0.0000)
  42 Li     7.403408    6.980000   12.467803    ( 0.0000,  0.0000,  0.0000)
  43 Li     4.935605    8.725000   12.467803    ( 0.0000,  0.0000,  0.0000)
  44 Li     4.935698    6.979972   14.935676    ( 0.0000,  0.0000,  0.0000)
  45 Li     7.403375    8.724910   14.935843    ( 0.0000,  0.0000,  0.0000)
  46 Li     7.403460    6.980033   17.402119    ( 0.0000,  0.0000,  0.0000)
  47 Li     4.933912    8.726215   17.403745    ( 0.0000,  0.0000,  0.0000)
  48 Li     9.871211    0.000000   10.000000    ( 0.0000,  0.0000,  0.0000)
  49 Li    12.339013    1.745000   10.000000    ( 0.0000,  0.0000,  0.0000)
  50 Li    12.339013    0.000000   12.467803    ( 0.0000,  0.0000,  0.0000)
  51 Li     9.871211    1.745000   12.467803    ( 0.0000,  0.0000,  0.0000)
  52 Li     9.871187    0.000000   14.935841    ( 0.0000,  0.0000,  0.0000)
  53 Li    12.339073    1.745089   14.935829    ( 0.0000,  0.0000,  0.0000)
  54 Li    12.339151    0.000000   17.402255    ( 0.0000,  0.0000,  0.0000)
  55 Li     9.871218    1.744997   17.402055    ( 0.0000,  0.0000,  0.0000)
  56 Li     9.871211    3.490000   10.000000    ( 0.0000,  0.0000,  0.0000)
  57 Li    12.339013    5.235000   10.000000    ( 0.0000,  0.0000,  0.0000)
  58 Li    12.339013    3.490000   12.467803    ( 0.0000,  0.0000,  0.0000)
  59 Li     9.871211    5.235000   12.467803    ( 0.0000,  0.0000,  0.0000)
  60 Li     9.871185    3.490049   14.935558    ( 0.0000,  0.0000,  0.0000)
  61 Li    12.339073    5.235000   14.935670    ( 0.0000,  0.0000,  0.0000)
  62 Li    12.338956    3.489940   17.402107    ( 0.0000,  0.0000,  0.0000)
  63 Li     9.871202    5.235000   17.402168    ( 0.0000,  0.0000,  0.0000)
  64 Li     9.871211    6.980000   10.000000    ( 0.0000,  0.0000,  0.0000)
  65 Li    12.339013    8.725000   10.000000    ( 0.0000,  0.0000,  0.0000)
  66 Li    12.339013    6.980000   12.467803    ( 0.0000,  0.0000,  0.0000)
  67 Li     9.871211    8.725000   12.467803    ( 0.0000,  0.0000,  0.0000)
  68 Li     9.871185    6.979951   14.935558    ( 0.0000,  0.0000,  0.0000)
  69 Li    12.339073    8.724911   14.935829    ( 0.0000,  0.0000,  0.0000)
  70 Li    12.338956    6.980060   17.402107    ( 0.0000,  0.0000,  0.0000)
  71 Li     9.871218    8.725003   17.402055    ( 0.0000,  0.0000,  0.0000)
  72 Li     2.467799    0.000000   19.425971    ( 0.0000,  0.0000,  0.0000)

Unit cell:
           periodic     x           y           z      points  spacing
  1. axis:    yes   14.806816    0.000000    0.000000    76     0.1948
  2. axis:    yes    0.000000   10.470000    0.000000    52     0.2013
  3. axis:    no     0.000000    0.000000   27.403408   136     0.2015

  Lengths:  14.806816  10.470000  27.403408
  Angles:   90.000000  90.000000  90.000000

Effective grid spacing dv^(1/3) = 0.1992

     iter     time        total  log10-change:
                         energy   eigst   dens
iter:   1 03:12:16  -126.401177        c
iter:   2 03:12:28  -126.401721        c -2.88
iter:   3 03:12:38  -126.402079c       c -3.03
iter:   4 03:12:49  -126.402750c       c -3.21
iter:   5 03:12:59  -126.402236c       c -3.29
iter:   6 03:13:09  -126.402010c       c -3.41
iter:   7 03:13:19  -126.402068c       c -3.65
iter:   8 03:13:28  -126.402181c       c -3.81
iter:   9 03:13:38  -126.402156c       c -4.02c

Converged after 9 iterations.

Dipole moment: (-12.660863, -8.677749, 0.234322) |e|*Ang

Energy contributions relative to reference atoms: (reference = -14803.510878)

Kinetic:       +131.109719
Potential:     -113.428228
External:        +0.000000
XC:            -142.120618
Entropy (-ST):   -2.156077
Local:           -0.884991
SIC:             +0.000000
--------------------------
Free energy:   -127.480194
Extrapolated:  -126.402156

 Band  Eigenvalues  Occupancy
    0     -6.37118    2.00000
    1     -5.84960    2.00000
    2     -5.84769    2.00000
    3     -5.81045    2.00000
    4     -5.32435    2.00000
    5     -5.32065    2.00000
    6     -5.28419    2.00000
    7     -5.27035    2.00000
    8     -4.81178    1.99999
    9     -4.80633    1.99999
   10     -4.80564    1.99999
   11     -4.80402    1.99999
   12     -4.78006    1.99999
   13     -4.75726    1.99999
   14     -4.71847    1.99999
   15     -4.29705    1.99979
   16     -4.28560    1.99978
   17     -4.27008    1.99975
   18     -4.25633    1.99973
   19     -4.24900    1.99972
   20     -4.24212    1.99970
   21     -4.18839    1.99958
   22     -4.15379    1.99947
   23     -3.73888    1.99155
   24     -3.68560    1.98797
   25     -3.67017    1.98668
   26     -3.66296    1.98603
   27     -3.45042    1.94360
   28     -3.23644    1.78440
   29     -3.23514    1.78273
   30     -3.22734    1.77245
   31     -3.22500    1.76928
   32     -3.19789    1.72975
   33     -3.19456    1.72452
   34     -3.18110    1.70251
   35     -3.16051    1.66604
   36     -2.89445    0.91692
   37     -2.79470    0.60663
   38     -2.68031    0.33759
   39     -2.67930    0.33572
   40     -2.66169    0.30419
   41     -2.65714    0.29645
   42     -2.52236    0.13233
   43     -2.51931    0.12984
   44     -2.36977    0.04996
   45     -2.28133    0.02802
   46     -2.27240    0.02642
   47     -2.13937    0.01097

Fermi level: -2.91943

Gap: 0.266 eV
Transition (v -> c):
  (s=0, k=0, n=35, [0.00, 0.00, 0.00]) -> (s=0, k=0, n=36, [0.00, 0.00, 0.00])
No difference between direct/indirect transitions

Forces in eV/Ang:
  0 Li    0.00164    0.00000    0.09338
  1 Li    0.00044   -0.00944    0.10061
  2 Li   -0.00167    0.00000    0.00835
  3 Li   -0.00640    0.00267   -0.01584
  4 Li   -0.00650    0.00000   -0.02061
  5 Li   -0.00161    0.01086   -0.05238
  6 Li   -0.00217    0.00000   -1.95515
  7 Li    0.11433   -0.08490    0.02267
  8 Li   -0.01462   -0.00428    0.09594
  9 Li   -0.00069    0.00000    0.11134
 10 Li   -0.00189    0.00061   -0.01444
 11 Li   -0.00259    0.00000   -0.01075
 12 Li   -0.00343    0.00042    0.00654
 13 Li   -0.00168    0.00000    0.00967
 14 Li    0.00042   -0.10810    0.01462
 15 Li    0.00051    0.00000   -0.07557
 16 Li   -0.01462    0.00428    0.09594
 17 Li    0.00044    0.00944    0.10061
 18 Li   -0.00189   -0.00061   -0.01444
 19 Li   -0.00640   -0.00267   -0.01584
 20 Li   -0.00343   -0.00042    0.00654
 21 Li   -0.00161   -0.01086   -0.05238
 22 Li    0.00042    0.10810    0.01462
 23 Li    0.11433    0.08490    0.02267
 24 Li   -0.00099    0.00000    0.09442
 25 Li    0.00716    0.00773    0.08591
 26 Li    0.00157    0.00000   -0.01312
 27 Li    0.00795    0.00257   -0.01479
 28 Li    0.00818    0.00000   -0.02245
 29 Li   -0.00256    0.00548    0.01536
 30 Li   -0.00824    0.00000   -0.07938
 31 Li   -0.11434   -0.08262    0.02185
 32 Li    0.01419   -0.00627    0.09682
 33 Li    0.01796    0.00000    0.07792
 34 Li    0.00571    0.00005   -0.00953
 35 Li    0.00437    0.00000   -0.00894
 36 Li    0.00539    0.00028    0.00558
 37 Li   -0.00174    0.00000    0.00505
 38 Li    0.00250   -0.00287   -0.08879
 39 Li    0.00004    0.00000   -0.07667
 40 Li    0.01419    0.00627    0.09682
 41 Li    0.00716   -0.00773    0.08591
 42 Li    0.00571   -0.00005   -0.00953
 43 Li    0.00795   -0.00257   -0.01479
 44 Li    0.00539   -0.00028    0.00558
 45 Li   -0.00256   -0.00548    0.01536
 46 Li    0.00250    0.00287   -0.08879
 47 Li   -0.11434    0.08262    0.02185
 48 Li   -0.00060    0.00000    0.09377
 49 Li   -0.00760    0.00971    0.08677
 50 Li    0.00021    0.00000   -0.01125
 51 Li   -0.00184    0.00453   -0.00970
 52 Li   -0.00161    0.00000    0.01480
 53 Li    0.00434    0.00540    0.01440
 54 Li    0.00873    0.00000   -0.08050
 55 Li    0.00047   -0.00004   -0.09328
 56 Li    0.00041    0.00935    0.07353
 57 Li   -0.01725    0.00000    0.07893
 58 Li   -0.00398    0.00008   -0.00852
 59 Li   -0.00174    0.00000   -0.00509
 60 Li   -0.00174    0.00353   -0.00386
 61 Li    0.00359    0.00000    0.00322
 62 Li   -0.00281   -0.00473   -0.08966
 63 Li   -0.00060    0.00000   -0.08629
 64 Li    0.00041   -0.00935    0.07353
 65 Li   -0.00760   -0.00971    0.08677
 66 Li   -0.00398   -0.00008   -0.00852
 67 Li   -0.00184   -0.00453   -0.00970
 68 Li   -0.00174   -0.00353   -0.00386
 69 Li    0.00434   -0.00540    0.01440
 70 Li   -0.00281    0.00473   -0.08966
 71 Li    0.00047    0.00004   -0.09328
 72 Li    0.00034    0.00000    1.37245

System changes: positions 

Initializing position-dependent things.

Density initialized from wave functions
       .-----------------------------------.  
      /|                                   |  
     / |                                   |  
    /  |                                   |  
   /   |                                   |  
  /    |                                   |  
 *     |                                   |  
 |     |                                   |  
 |     |                                   |  
 |     |                                   |  
 |     |                                   |  
 |     |                                   |  
 |     |                                   |  
 |    Li          Li          Li           |  
 |     |   Li          Li          Li      |  
 |  Li |        Li          Li             |  
 |     LiLi Li       Li Li       Li Li     |  
 |Li   |      Li Li       Li Li          Li|  
 |     |  Li       Li Li       Li Li       |  
 |     Li      Li          Li          Li  |  
 |    LiLi        LiLi        LiLi         |  
 |     |   LiLi        LiLi        LiLi    |  
 |  Li |        Li          Li             |  
 |     | Li Li       Li Li       Li Li     |  
 |Li Li|      Li Li       Li Li            |  
 |     Li Li       Li Li       Li Li       |  
 | Li  |       Li          Li              |  
 |     |Li          Li          Li         |  
 Li    |     Li          Li                |  
 |     |                                   |  
 |     |                                   |  
 |     |                                   |  
 |     |                                   |  
 |     |                                   |  
 |     .-----------------------------------.  
 |    /                                   /   
 |   /                                   /    
 |  /                                   /     
 | /                                   /      
 |/                                   /       
 *-----------------------------------*        

Atomic positions and initial magnetic moments

Positions:
   0 Li     0.000000    0.000000   10.000000    ( 0.0000,  0.0000,  0.0000)
   1 Li     2.467803    1.745000   10.000000    ( 0.0000,  0.0000,  0.0000)
   2 Li     2.467803    0.000000   12.467803    ( 0.0000,  0.0000,  0.0000)
   3 Li     0.000000    1.745000   12.467803    ( 0.0000,  0.0000,  0.0000)
   4 Li    -0.000745    0.000000   14.933245    ( 0.0000,  0.0000,  0.0000)
   5 Li     2.467614    1.746164   14.929679    ( 0.0000,  0.0000,  0.0000)
   6 Li     2.467561   -0.000000   17.171984    ( 0.0000,  0.0000,  0.0000)
   7 Li     0.013386    1.735069   17.406076    ( 0.0000,  0.0000,  0.0000)
   8 Li     0.000000    3.490000   10.000000    ( 0.0000,  0.0000,  0.0000)
   9 Li     2.467803    5.235000   10.000000    ( 0.0000,  0.0000,  0.0000)
  10 Li     2.467803    3.490000   12.467803    ( 0.0000,  0.0000,  0.0000)
  11 Li     0.000000    5.235000   12.467803    ( 0.0000,  0.0000,  0.0000)
  12 Li    -0.000414    3.490073   14.936359    ( 0.0000,  0.0000,  0.0000)
  13 Li     2.467606    5.235000   14.936708    ( 0.0000,  0.0000,  0.0000)
  14 Li     2.467852    3.477318   17.405155    ( 0.0000,  0.0000,  0.0000)
  15 Li     0.000047    5.235000   17.394588    ( 0.0000,  0.0000,  0.0000)
  16 Li     0.000000    6.980000   10.000000    ( 0.0000,  0.0000,  0.0000)
  17 Li     2.467803    8.725000   10.000000    ( 0.0000,  0.0000,  0.0000)
  18 Li     2.467803    6.980000   12.467803    ( 0.0000,  0.0000,  0.0000)
  19 Li     0.000000    8.725000   12.467803    ( 0.0000,  0.0000,  0.0000)
  20 Li    -0.000414    6.979927   14.936359    ( 0.0000,  0.0000,  0.0000)
  21 Li     2.467614    8.723836   14.929679    ( 0.0000,  0.0000,  0.0000)
  22 Li     2.467852    6.992682   17.405155    ( 0.0000,  0.0000,  0.0000)
  23 Li     0.013386    8.734931   17.406076    ( 0.0000,  0.0000,  0.0000)
  24 Li     4.935605    0.000000   10.000000    ( 0.0000,  0.0000,  0.0000)
  25 Li     7.403408    1.745000   10.000000    ( 0.0000,  0.0000,  0.0000)
  26 Li     7.403408    0.000000   12.467803    ( 0.0000,  0.0000,  0.0000)
  27 Li     4.935605    1.745000   12.467803    ( 0.0000,  0.0000,  0.0000)
  28 Li     4.936546    0.000000   14.933030    ( 0.0000,  0.0000,  0.0000)
  29 Li     7.403113    1.745650   14.937414    ( 0.0000,  0.0000,  0.0000)
  30 Li     7.402433   -0.000000   17.394153    ( 0.0000,  0.0000,  0.0000)
  31 Li     4.922219    1.735336   17.405980    ( 0.0000,  0.0000,  0.0000)
  32 Li     4.935605    3.490000   10.000000    ( 0.0000,  0.0000,  0.0000)
  33 Li     7.403408    5.235000   10.000000    ( 0.0000,  0.0000,  0.0000)
  34 Li     7.403408    3.490000   12.467803    ( 0.0000,  0.0000,  0.0000)
  35 Li     4.935605    5.235000   12.467803    ( 0.0000,  0.0000,  0.0000)
  36 Li     4.936249    3.490058   14.936247    ( 0.0000,  0.0000,  0.0000)
  37 Li     7.403197    5.235000   14.936213    ( 0.0000,  0.0000,  0.0000)
  38 Li     7.403716    3.489673   17.393041    ( 0.0000,  0.0000,  0.0000)
  39 Li     4.935622    5.235000   17.394461    ( 0.0000,  0.0000,  0.0000)
  40 Li     4.935605    6.980000   10.000000    ( 0.0000,  0.0000,  0.0000)
  41 Li     7.403408    8.725000   10.000000    ( 0.0000,  0.0000,  0.0000)
  42 Li     7.403408    6.980000   12.467803    ( 0.0000,  0.0000,  0.0000)
  43 Li     4.935605    8.725000   12.467803    ( 0.0000,  0.0000,  0.0000)
  44 Li     4.936249    6.979942   14.936247    ( 0.0000,  0.0000,  0.0000)
  45 Li     7.403113    8.724350   14.937414    ( 0.0000,  0.0000,  0.0000)
  46 Li     7.403716    6.980327   17.393041    ( 0.0000,  0.0000,  0.0000)
  47 Li     4.922219    8.734664   17.405980    ( 0.0000,  0.0000,  0.0000)
  48 Li     9.871211    0.000000   10.000000    ( 0.0000,  0.0000,  0.0000)
  49 Li    12.339013    1.745000   10.000000    ( 0.0000,  0.0000,  0.0000)
  50 Li    12.339013    0.000000   12.467803    ( 0.0000,  0.0000,  0.0000)
  51 Li     9.871211    1.745000   12.467803    ( 0.0000,  0.0000,  0.0000)
  52 Li     9.871022   -0.000000   14.937355    ( 0.0000,  0.0000,  0.0000)
  53 Li    12.339517    1.745642   14.937302    ( 0.0000,  0.0000,  0.0000)
  54 Li    12.340044    0.000000   17.394024    ( 0.0000,  0.0000,  0.0000)
  55 Li     9.871267    1.744993   17.392516    ( 0.0000,  0.0000,  0.0000)
  56 Li     9.871211    3.490000   10.000000    ( 0.0000,  0.0000,  0.0000)
  57 Li    12.339013    5.235000   10.000000    ( 0.0000,  0.0000,  0.0000)
  58 Li    12.339013    3.490000   12.467803    ( 0.0000,  0.0000,  0.0000)
  59 Li     9.871211    5.235000   12.467803    ( 0.0000,  0.0000,  0.0000)
  60 Li     9.871007    3.490410   14.935163    ( 0.0000,  0.0000,  0.0000)
  61 Li    12.339440    5.235000   14.935999    ( 0.0000,  0.0000,  0.0000)
  62 Li    12.338669    3.489457   17.392938    ( 0.0000,  0.0000,  0.0000)
  63 Li     9.871141    5.235000   17.393345    ( 0.0000,  0.0000,  0.0000)
  64 Li     9.871211    6.980000   10.000000    ( 0.0000,  0.0000,  0.0000)
  65 Li    12.339013    8.725000   10.000000    ( 0.0000,  0.0000,  0.0000)
  66 Li    12.339013    6.980000   12.467803    ( 0.0000,  0.0000,  0.0000)
  67 Li     9.871211    8.725000   12.467803    ( 0.0000,  0.0000,  0.0000)
  68 Li     9.871007    6.979590   14.935163    ( 0.0000,  0.0000,  0.0000)
  69 Li    12.339517    8.724358   14.937302    ( 0.0000,  0.0000,  0.0000)
  70 Li    12.338669    6.980543   17.392938    ( 0.0000,  0.0000,  0.0000)
  71 Li     9.871267    8.725007   17.392516    ( 0.0000,  0.0000,  0.0000)
  72 Li     2.467833   -0.000000   19.566377    ( 0.0000,  0.0000,  0.0000)

Unit cell:
           periodic     x           y           z      points  spacing
  1. axis:    yes   14.806816    0.000000    0.000000    76     0.1948
  2. axis:    yes    0.000000   10.470000    0.000000    52     0.2013
  3. axis:    no     0.000000    0.000000   27.403408   136     0.2015

  Lengths:  14.806816  10.470000  27.403408
  Angles:   90.000000  90.000000  90.000000

Effective grid spacing dv^(1/3) = 0.1992

     iter     time        total  log10-change:
                         energy   eigst   dens
iter:   1 03:14:20  -126.802781        c
iter:   2 03:14:32  -126.797642        c -1.99
iter:   3 03:14:43  -126.797375c       c -2.19
iter:   4 03:14:55  -126.800106c       c -2.46
iter:   5 03:15:07  -126.796997c       c -2.59
iter:   6 03:15:20  -126.794684c       c -2.74
iter:   7 03:15:32  -126.795384c       c -2.85
iter:   8 03:15:43  -126.795627c       c -3.10
iter:   9 03:15:54  -126.795734c       c -3.29
iter:  10 03:16:05  -126.795602c       c -3.36
iter:  11 03:16:14  -126.795712c       c -3.54
iter:  12 03:16:24  -126.795776c       c -3.75
iter:  13 03:16:33  -126.795783c       c -3.86
iter:  14 03:16:42  -126.795758c       c -4.02c

Converged after 14 iterations.

Dipole moment: (-13.216592, -8.666876, 0.306489) |e|*Ang

Energy contributions relative to reference atoms: (reference = -14803.510878)

Kinetic:       +129.859462
Potential:     -112.753427
External:        +0.000000
XC:            -141.939105
Entropy (-ST):   -2.155286
Local:           -0.885045
SIC:             +0.000000
--------------------------
Free energy:   -127.873401
Extrapolated:  -126.795758

 Band  Eigenvalues  Occupancy
    0     -6.34738    2.00000
    1     -5.82746    2.00000
    2     -5.82246    2.00000
    3     -5.78682    2.00000
    4     -5.30284    2.00000
    5     -5.29627    2.00000
    6     -5.26038    2.00000
    7     -5.24535    2.00000
    8     -4.79100    1.99999
    9     -4.78281    1.99999
   10     -4.78075    1.99999
   11     -4.77815    1.99999
   12     -4.75616    1.99999
   13     -4.73296    1.99999
   14     -4.69395    1.99999
   15     -4.27431    1.99980
   16     -4.26334    1.99978
   17     -4.24560    1.99976
   18     -4.23161    1.99973
   19     -4.22315    1.99972
   20     -4.21677    1.99971
   21     -4.16677    1.99959
   22     -4.12456    1.99946
   23     -3.71993    1.99194
   24     -3.65921    1.98795
   25     -3.64105    1.98641
   26     -3.63772    1.98611
   27     -3.43659    1.94791
   28     -3.21212    1.78664
   29     -3.20616    1.77894
   30     -3.20593    1.77865
   31     -3.20105    1.77216
   32     -3.17192    1.72991
   33     -3.16275    1.71532
   34     -3.14843    1.69119
   35     -3.13427    1.66574
   36     -2.87852    0.95059
   37     -2.75778    0.57651
   38     -2.65617    0.34125
   39     -2.64835    0.32673
   40     -2.64028    0.31230
   41     -2.63363    0.30079
   42     -2.49415    0.13058
   43     -2.48649    0.12449
   44     -2.35885    0.05512
   45     -2.26063    0.02902
   46     -2.23633    0.02474
   47     -2.12090    0.01154

Fermi level: -2.89336

Gap: 0.256 eV
Transition (v -> c):
  (s=0, k=0, n=35, [0.00, 0.00, 0.00]) -> (s=0, k=0, n=36, [0.00, 0.00, 0.00])
No difference between direct/indirect transitions

Forces in eV/Ang:
  0 Li    0.00106    0.00000    0.09262
  1 Li    0.00045   -0.00866    0.10132
  2 Li   -0.00165    0.00000    0.00911
  3 Li   -0.00898    0.00482   -0.02043
  4 Li   -0.01084    0.00000   -0.03278
  5 Li   -0.00130    0.06145   -0.12862
  6 Li   -0.00157    0.00000   -0.70622
  7 Li    0.09041   -0.07144    0.01168
  8 Li   -0.01372   -0.00545    0.09631
  9 Li   -0.00069    0.00000    0.10807
 10 Li   -0.00186    0.00023   -0.01993
 11 Li   -0.00541    0.00000   -0.00831
 12 Li    0.00073   -0.00787    0.00940
 13 Li   -0.00128    0.00000    0.01662
 14 Li    0.00001   -0.07631   -0.00252
 15 Li    0.00574    0.00000   -0.06783
 16 Li   -0.01372    0.00545    0.09631
 17 Li    0.00045    0.00866    0.10132
 18 Li   -0.00186   -0.00023   -0.01993
 19 Li   -0.00898   -0.00482   -0.02043
 20 Li    0.00073    0.00787    0.00940
 21 Li   -0.00130   -0.06145   -0.12862
 22 Li    0.00001    0.07631   -0.00252
 23 Li    0.09041    0.07144    0.01168
 24 Li   -0.00041    0.00000    0.09368
 25 Li    0.00691    0.00621    0.08414
 26 Li    0.00096    0.00000   -0.01081
 27 Li    0.01055    0.00477   -0.01950
 28 Li    0.01207    0.00000   -0.03428
 29 Li   -0.00135    0.00157    0.00598
 30 Li   -0.00498    0.00000   -0.07487
 31 Li   -0.09156   -0.07053    0.01116
 32 Li    0.01330   -0.00743    0.09721
 33 Li    0.01832    0.00000    0.07951
 34 Li    0.00461   -0.00000   -0.00685
 35 Li    0.00720    0.00000   -0.00658
 36 Li    0.00073   -0.00787    0.00842
 37 Li    0.00022    0.00000   -0.00252
 38 Li   -0.00505   -0.00603   -0.07989
 39 Li   -0.00502    0.00000   -0.06920
 40 Li    0.01330    0.00743    0.09721
 41 Li    0.00691   -0.00621    0.08414
 42 Li    0.00461    0.00000   -0.00685
 43 Li    0.01055   -0.00477   -0.01950
 44 Li    0.00073    0.00787    0.00842
 45 Li   -0.00135   -0.00157    0.00598
 46 Li   -0.00505    0.00603   -0.07989
 47 Li   -0.09156    0.07053    0.01116
 48 Li   -0.00060    0.00000    0.09301
 49 Li   -0.00734    0.00819    0.08501
 50 Li    0.00085    0.00000   -0.00895
 51 Li   -0.00184    0.00425   -0.00920
 52 Li   -0.00122    0.00000    0.00430
 53 Li    0.00265    0.00145    0.00492
 54 Li    0.00570    0.00000   -0.07627
 55 Li    0.00012    0.00006   -0.08509
 56 Li    0.00040    0.00849    0.07465
 57 Li   -0.01762    0.00000    0.08056
 58 Li   -0.00289    0.00001   -0.00596
 59 Li   -0.00174    0.00000   -0.00634
 60 Li   -0.00136    0.00336   -0.00756
 61 Li    0.00125    0.00000   -0.00409
 62 Li    0.00507   -0.00743   -0.08077
 63 Li   -0.00073    0.00000   -0.08250
 64 Li    0.00040   -0.00849    0.07465
 65 Li   -0.00734   -0.00819    0.08501
 66 Li   -0.00289   -0.00001   -0.00596
 67 Li   -0.00184   -0.00425   -0.00920
 68 Li   -0.00136   -0.00336   -0.00756
 69 Li    0.00265   -0.00145    0.00492
 70 Li    0.00507    0.00743   -0.08077
 71 Li    0.00012   -0.00006   -0.08509
 72 Li   -0.00009    0.00000    0.36397

System changes: positions 

Initializing position-dependent things.

Density initialized from wave functions
       .-----------------------------------.  
      /|                                   |  
     / |                                   |  
    /  |                                   |  
   /   |                                   |  
  /    |                                   |  
 *     |                                   |  
 |     |                                   |  
 |     |                                   |  
 |     |                                   |  
 |     |                                   |  
 |     |                                   |  
 |     |                                   |  
 |    Li          Li          Li           |  
 |     |   Li          Li          Li      |  
 |  Li |        Li          Li             |  
 |     LiLi Li       Li Li       Li Li     |  
 |Li   |      Li Li       Li Li          Li|  
 |     |  Li       Li Li       Li Li       |  
 |     Li      Li          Li          Li  |  
 |    LiLi        LiLi        LiLi         |  
 |     |   LiLi        LiLi        LiLi    |  
 |  Li |        Li          Li             |  
 |     | Li Li       Li Li       Li Li     |  
 |Li Li|      Li Li       Li Li            |  
 |     Li Li       Li Li       Li Li       |  
 | Li  |       Li          Li              |  
 |     |Li          Li          Li         |  
 Li    |     Li          Li                |  
 |     |                                   |  
 |     |                                   |  
 |     |                                   |  
 |     |                                   |  
 |     |                                   |  
 |     .-----------------------------------.  
 |    /                                   /   
 |   /                                   /    
 |  /                                   /     
 | /                                   /      
 |/                                   /       
 *-----------------------------------*        

Atomic positions and initial magnetic moments

Positions:
   0 Li     0.000000    0.000000   10.000000    ( 0.0000,  0.0000,  0.0000)
   1 Li     2.467803    1.745000   10.000000    ( 0.0000,  0.0000,  0.0000)
   2 Li     2.467803    0.000000   12.467803    ( 0.0000,  0.0000,  0.0000)
   3 Li     0.000000    1.745000   12.467803    ( 0.0000,  0.0000,  0.0000)
   4 Li    -0.001291    0.000000   14.931551    ( 0.0000,  0.0000,  0.0000)
   5 Li     2.467510    1.748021   14.924382    ( 0.0000,  0.0000,  0.0000)
   6 Li     2.467424   -0.000000   17.063577    ( 0.0000,  0.0000,  0.0000)
   7 Li     0.020796    1.729473   17.407409    ( 0.0000,  0.0000,  0.0000)
   8 Li     0.000000    3.490000   10.000000    ( 0.0000,  0.0000,  0.0000)
   9 Li     2.467803    5.235000   10.000000    ( 0.0000,  0.0000,  0.0000)
  10 Li     2.467803    3.490000   12.467803    ( 0.0000,  0.0000,  0.0000)
  11 Li     0.000000    5.235000   12.467803    ( 0.0000,  0.0000,  0.0000)
  12 Li    -0.000562    3.489922   14.936875    ( 0.0000,  0.0000,  0.0000)
  13 Li     2.467498    5.235000   14.937530    ( 0.0000,  0.0000,  0.0000)
  14 Li     2.467873    3.470513   17.405795    ( 0.0000,  0.0000,  0.0000)
  15 Li     0.000197    5.235000   17.389514    ( 0.0000,  0.0000,  0.0000)
  16 Li     0.000000    6.980000   10.000000    ( 0.0000,  0.0000,  0.0000)
  17 Li     2.467803    8.725000   10.000000    ( 0.0000,  0.0000,  0.0000)
  18 Li     2.467803    6.980000   12.467803    ( 0.0000,  0.0000,  0.0000)
  19 Li     0.000000    8.725000   12.467803    ( 0.0000,  0.0000,  0.0000)
  20 Li    -0.000562    6.980078   14.936875    ( 0.0000,  0.0000,  0.0000)
  21 Li     2.467510    8.721979   14.924382    ( 0.0000,  0.0000,  0.0000)
  22 Li     2.467873    6.999487   17.405795    ( 0.0000,  0.0000,  0.0000)
  23 Li     0.020796    8.740527   17.407409    ( 0.0000,  0.0000,  0.0000)
  24 Li     4.935605    0.000000   10.000000    ( 0.0000,  0.0000,  0.0000)
  25 Li     7.403408    1.745000   10.000000    ( 0.0000,  0.0000,  0.0000)
  26 Li     7.403408    0.000000   12.467803    ( 0.0000,  0.0000,  0.0000)
  27 Li     4.935605    1.745000   12.467803    ( 0.0000,  0.0000,  0.0000)
  28 Li     4.937198    0.000000   14.931216    ( 0.0000,  0.0000,  0.0000)
  29 Li     7.402962    1.745945   14.938275    ( 0.0000,  0.0000,  0.0000)
  30 Li     7.401932   -0.000000   17.388745    ( 0.0000,  0.0000,  0.0000)
  31 Li     4.914784    1.729868   17.407262    ( 0.0000,  0.0000,  0.0000)
  32 Li     4.935605    3.490000   10.000000    ( 0.0000,  0.0000,  0.0000)
  33 Li     7.403408    5.235000   10.000000    ( 0.0000,  0.0000,  0.0000)
  34 Li     7.403408    3.490000   12.467803    ( 0.0000,  0.0000,  0.0000)
  35 Li     4.935605    5.235000   12.467803    ( 0.0000,  0.0000,  0.0000)
  36 Li     4.936521    3.489900   14.936696    ( 0.0000,  0.0000,  0.0000)
  37 Li     7.403119    5.235000   14.936399    ( 0.0000,  0.0000,  0.0000)
  38 Li     7.403724    3.489405   17.387075    ( 0.0000,  0.0000,  0.0000)
  39 Li     4.935515    5.235000   17.389306    ( 0.0000,  0.0000,  0.0000)
  40 Li     4.935605    6.980000   10.000000    ( 0.0000,  0.0000,  0.0000)
  41 Li     7.403408    8.725000   10.000000    ( 0.0000,  0.0000,  0.0000)
  42 Li     7.403408    6.980000   12.467803    ( 0.0000,  0.0000,  0.0000)
  43 Li     4.935605    8.725000   12.467803    ( 0.0000,  0.0000,  0.0000)
  44 Li     4.936521    6.980100   14.936696    ( 0.0000,  0.0000,  0.0000)
  45 Li     7.402962    8.724055   14.938275    ( 0.0000,  0.0000,  0.0000)
  46 Li     7.403724    6.980595   17.387075    ( 0.0000,  0.0000,  0.0000)
  47 Li     4.914784    8.740132   17.407262    ( 0.0000,  0.0000,  0.0000)
  48 Li     9.871211    0.000000   10.000000    ( 0.0000,  0.0000,  0.0000)
  49 Li    12.339013    1.745000   10.000000    ( 0.0000,  0.0000,  0.0000)
  50 Li    12.339013    0.000000   12.467803    ( 0.0000,  0.0000,  0.0000)
  51 Li     9.871211    1.745000   12.467803    ( 0.0000,  0.0000,  0.0000)
  52 Li     9.870919   -0.000000   14.938153    ( 0.0000,  0.0000,  0.0000)
  53 Li    12.339781    1.745930   14.938095    ( 0.0000,  0.0000,  0.0000)
  54 Li    12.340584    0.000000   17.388532    ( 0.0000,  0.0000,  0.0000)
  55 Li     9.871292    1.744993   17.386224    ( 0.0000,  0.0000,  0.0000)
  56 Li     9.871211    3.490000   10.000000    ( 0.0000,  0.0000,  0.0000)
  57 Li    12.339013    5.235000   10.000000    ( 0.0000,  0.0000,  0.0000)
  58 Li    12.339013    3.490000   12.467803    ( 0.0000,  0.0000,  0.0000)
  59 Li     9.871211    5.235000   12.467803    ( 0.0000,  0.0000,  0.0000)
  60 Li     9.870895    3.490651   14.934815    ( 0.0000,  0.0000,  0.0000)
  61 Li    12.339638    5.235000   14.936063    ( 0.0000,  0.0000,  0.0000)
  62 Li    12.338646    3.489070   17.386913    ( 0.0000,  0.0000,  0.0000)
  63 Li     9.871097    5.235000   17.387442    ( 0.0000,  0.0000,  0.0000)
  64 Li     9.871211    6.980000   10.000000    ( 0.0000,  0.0000,  0.0000)
  65 Li    12.339013    8.725000   10.000000    ( 0.0000,  0.0000,  0.0000)
  66 Li    12.339013    6.980000   12.467803    ( 0.0000,  0.0000,  0.0000)
  67 Li     9.871211    8.725000   12.467803    ( 0.0000,  0.0000,  0.0000)
  68 Li     9.870895    6.979349   14.934815    ( 0.0000,  0.0000,  0.0000)
  69 Li    12.339781    8.724070   14.938095    ( 0.0000,  0.0000,  0.0000)
  70 Li    12.338646    6.980930   17.386913    ( 0.0000,  0.0000,  0.0000)
  71 Li     9.871292    8.725007   17.386224    ( 0.0000,  0.0000,  0.0000)
  72 Li     2.467847    0.000000   19.639610    ( 0.0000,  0.0000,  0.0000)

Unit cell:
           periodic     x           y           z      points  spacing
  1. axis:    yes   14.806816    0.000000    0.000000    76     0.1948
  2. axis:    yes    0.000000   10.470000    0.000000    52     0.2013
  3. axis:    no     0.000000    0.000000   27.403408   136     0.2015

  Lengths:  14.806816  10.470000  27.403408
  Angles:   90.000000  90.000000  90.000000

Effective grid spacing dv^(1/3) = 0.1992

     iter     time        total  log10-change:
                         energy   eigst   dens
iter:   1 03:17:21  -126.870823        c
iter:   2 03:17:32  -126.869544        c -2.17
iter:   3 03:17:42  -126.870043c       c -2.39
iter:   4 03:17:53  -126.872270c       c -2.72
iter:   5 03:18:03  -126.871120c       c -2.90
iter:   6 03:18:14  -126.870396c       c -3.14
iter:   7 03:18:25  -126.870733c       c -3.27
iter:   8 03:18:36  -126.870748c       c -3.49
iter:   9 03:18:49  -126.870776c       c -3.63
iter:  10 03:19:02  -126.870728c       c -3.71
iter:  11 03:19:15  -126.870784c       c -3.88
iter:  12 03:19:27  -126.870825c       c -4.08c

Converged after 12 iterations.

Dipole moment: (-13.543100, -8.662841, 0.336570) |e|*Ang

Energy contributions relative to reference atoms: (reference = -14803.510878)

Kinetic:       +129.429954
Potential:     -112.464988
External:        +0.000000
XC:            -141.873131
Entropy (-ST):   -2.155373
Local:           -0.884974
SIC:             +0.000000
--------------------------
Free energy:   -127.948511
Extrapolated:  -126.870825

 Band  Eigenvalues  Occupancy
    0     -6.33820    2.00000
    1     -5.81923    2.00000
    2     -5.81258    2.00000
    3     -5.77703    2.00000
    4     -5.29462    2.00000
    5     -5.28696    2.00000
    6     -5.25044    2.00000
    7     -5.23536    2.00000
    8     -4.78279    1.99999
    9     -4.77422    1.99999
   10     -4.77116    1.99999
   11     -4.76783    1.99999
   12     -4.74542    1.99999
   13     -4.72358    1.99999
   14     -4.68390    1.99999
   15     -4.26371    1.99980
   16     -4.25571    1.99979
   17     -4.23552    1.99976
   18     -4.22243    1.99974
   19     -4.21286    1.99972
   20     -4.20646    1.99971
   21     -4.15795    1.99959
   22     -4.11227    1.99945
   23     -3.71004    1.99198
   24     -3.64928    1.98800
   25     -3.63263    1.98660
   26     -3.62431    1.98584
   27     -3.42929    1.94900
   28     -3.20401    1.78972
   29     -3.19818    1.78229
   30     -3.19523    1.77844
   31     -3.19208    1.77427
   32     -3.16215    1.73113
   33     -3.14783    1.70812
   34     -3.13452    1.68530
   35     -3.12331    1.66498
   36     -2.87055    0.95917
   37     -2.74336    0.56598
   38     -2.64737    0.34455
   39     -2.63630    0.32401
   40     -2.63201    0.31631
   41     -2.62436    0.30297
   42     -2.48283    0.12996
   43     -2.47114    0.12080
   44     -2.35442    0.05735
   45     -2.25408    0.02980
   46     -2.22218    0.02416
   47     -2.11344    0.01177

Fermi level: -2.88281

Gap: 0.253 eV
Transition (v -> c):
  (s=0, k=0, n=35, [0.00, 0.00, 0.00]) -> (s=0, k=0, n=36, [0.00, 0.00, 0.00])
No difference between direct/indirect transitions

Forces in eV/Ang:
  0 Li    0.00072    0.00000    0.09230
  1 Li    0.00045   -0.00803    0.10158
  2 Li   -0.00164    0.00000    0.01133
  3 Li   -0.01024    0.00609   -0.02245
  4 Li   -0.01583    0.00000   -0.04082
  5 Li   -0.00115    0.09713   -0.17417
  6 Li   -0.00065    0.00000   -0.22354
  7 Li    0.07921   -0.06609    0.00641
  8 Li   -0.01320   -0.00575    0.09608
  9 Li   -0.00070    0.00000    0.10609
 10 Li   -0.00184    0.00110   -0.02354
 11 Li   -0.00635    0.00000   -0.00681
 12 Li    0.00219   -0.01180    0.01033
 13 Li   -0.00102    0.00000    0.01968
 14 Li   -0.00024   -0.06023   -0.01105
 15 Li    0.00837    0.00000   -0.06348
 16 Li   -0.01320    0.00575    0.09608
 17 Li    0.00045    0.00803    0.10158
 18 Li   -0.00184   -0.00110   -0.02354
 19 Li   -0.01024   -0.00609   -0.02245
 20 Li    0.00219    0.01180    0.01033
 21 Li   -0.00115   -0.09713   -0.17417
 22 Li   -0.00024    0.06023   -0.01105
 23 Li    0.07921    0.06609    0.00641
 24 Li   -0.00006    0.00000    0.09336
 25 Li    0.00692    0.00569    0.08322
 26 Li    0.00072    0.00000   -0.00956
 27 Li    0.01182    0.00606   -0.02159
 28 Li    0.01669    0.00000   -0.04205
 29 Li   -0.00057   -0.00006    0.00040
 30 Li   -0.00380    0.00000   -0.07161
 31 Li   -0.08105   -0.06612    0.00619
 32 Li    0.01279   -0.00773    0.09700
 33 Li    0.01843    0.00000    0.07977
 34 Li    0.00424   -0.00012   -0.00571
 35 Li    0.00814    0.00000   -0.00512
 36 Li   -0.00102   -0.01173    0.00934
 37 Li    0.00079    0.00000   -0.00640
 38 Li   -0.00903   -0.00748   -0.07478
 39 Li   -0.00760    0.00000   -0.06481
 40 Li    0.01279    0.00773    0.09700
 41 Li    0.00692   -0.00569    0.08322
 42 Li    0.00424    0.00012   -0.00571
 43 Li    0.01182   -0.00606   -0.02159
 44 Li   -0.00102    0.01173    0.00934
 45 Li   -0.00057    0.00006    0.00040
 46 Li   -0.00903    0.00748   -0.07478
 47 Li   -0.08105    0.06612    0.00619
 48 Li   -0.00061    0.00000    0.09213
 49 Li   -0.00734    0.00767    0.08411
 50 Li    0.00112    0.00000   -0.00770
 51 Li   -0.00183    0.00426   -0.00903
 52 Li   -0.00099    0.00000   -0.00140
 53 Li    0.00158   -0.00021   -0.00072
 54 Li    0.00455    0.00000   -0.07295
 55 Li   -0.00009    0.00006   -0.08010
 56 Li    0.00040    0.00810    0.07492
 57 Li   -0.01774    0.00000    0.08083
 58 Li   -0.00251   -0.00012   -0.00489
 59 Li   -0.00174    0.00000   -0.00713
 60 Li   -0.00113    0.00351   -0.00995
 61 Li    0.00043    0.00000   -0.00779
 62 Li    0.00924   -0.00854   -0.07571
 63 Li   -0.00076    0.00000   -0.07973
 64 Li    0.00040   -0.00810    0.07492
 65 Li   -0.00734   -0.00767    0.08411
 66 Li   -0.00251    0.00012   -0.00489
 67 Li   -0.00183   -0.00426   -0.00903
 68 Li   -0.00113   -0.00351   -0.00995
 69 Li    0.00158    0.00021   -0.00072
 70 Li    0.00924    0.00854   -0.07571
 71 Li   -0.00009   -0.00006   -0.08010
 72 Li    0.00076    0.00000    0.02253

System changes: positions 

Initializing position-dependent things.

Density initialized from wave functions
       .-----------------------------------.  
      /|                                   |  
     / |                                   |  
    /  |                                   |  
   /   |                                   |  
  /    |                                   |  
 *     |                                   |  
 |     |                                   |  
 |     |                                   |  
 |     |                                   |  
 |     |                                   |  
 |     |                                   |  
 |     |                                   |  
 |    Li          Li          Li           |  
 |     |   Li          Li          Li      |  
 |  Li |        Li          Li             |  
 |     LiLi Li       Li Li       Li Li     |  
 |Li   |      Li Li       Li Li          Li|  
 |     |  Li       Li Li       Li Li       |  
 |     Li      Li          Li          Li  |  
 |    LiLi        LiLi        LiLi         |  
 |     |   LiLi        LiLi        LiLi    |  
 |  Li |        Li          Li             |  
 |     | Li Li       Li Li       Li Li     |  
 |Li Li|      Li Li       Li Li            |  
 |     Li Li       Li Li       Li Li       |  
 | Li  |       Li          Li              |  
 |     |Li          Li          Li         |  
 Li    |     Li          Li                |  
 |     |                                   |  
 |     |                                   |  
 |     |                                   |  
 |     |                                   |  
 |     |                                   |  
 |     .-----------------------------------.  
 |    /                                   /   
 |   /                                   /    
 |  /                                   /     
 | /                                   /      
 |/                                   /       
 *-----------------------------------*        

Atomic positions and initial magnetic moments

Positions:
   0 Li     0.000000    0.000000   10.000000    ( 0.0000,  0.0000,  0.0000)
   1 Li     2.467803    1.745000   10.000000    ( 0.0000,  0.0000,  0.0000)
   2 Li     2.467803    0.000000   12.467803    ( 0.0000,  0.0000,  0.0000)
   3 Li     0.000000    1.745000   12.467803    ( 0.0000,  0.0000,  0.0000)
   4 Li    -0.001824    0.000000   14.930065    ( 0.0000,  0.0000,  0.0000)
   5 Li     2.467442    1.750587   14.918928    ( 0.0000,  0.0000,  0.0000)
   6 Li     2.467353   -0.000000   17.009627    ( 0.0000,  0.0000,  0.0000)
   7 Li     0.025550    1.725771   17.408129    ( 0.0000,  0.0000,  0.0000)
   8 Li     0.000000    3.490000   10.000000    ( 0.0000,  0.0000,  0.0000)
   9 Li     2.467803    5.235000   10.000000    ( 0.0000,  0.0000,  0.0000)
  10 Li     2.467803    3.490000   12.467803    ( 0.0000,  0.0000,  0.0000)
  11 Li     0.000000    5.235000   12.467803    ( 0.0000,  0.0000,  0.0000)
  12 Li    -0.000594    3.489650   14.937287    ( 0.0000,  0.0000,  0.0000)
  13 Li     2.467432    5.235000   14.938244    ( 0.0000,  0.0000,  0.0000)
  14 Li     2.467878    3.466365   17.405897    ( 0.0000,  0.0000,  0.0000)
  15 Li     0.000410    5.235000   17.386104    ( 0.0000,  0.0000,  0.0000)
  16 Li     0.000000    6.980000   10.000000    ( 0.0000,  0.0000,  0.0000)
  17 Li     2.467803    8.725000   10.000000    ( 0.0000,  0.0000,  0.0000)
  18 Li     2.467803    6.980000   12.467803    ( 0.0000,  0.0000,  0.0000)
  19 Li     0.000000    8.725000   12.467803    ( 0.0000,  0.0000,  0.0000)
  20 Li    -0.000594    6.980350   14.937287    ( 0.0000,  0.0000,  0.0000)
  21 Li     2.467442    8.719413   14.918928    ( 0.0000,  0.0000,  0.0000)
  22 Li     2.467878    7.003635   17.405897    ( 0.0000,  0.0000,  0.0000)
  23 Li     0.025550    8.744229   17.408129    ( 0.0000,  0.0000,  0.0000)
  24 Li     4.935605    0.000000   10.000000    ( 0.0000,  0.0000,  0.0000)
  25 Li     7.403408    1.745000   10.000000    ( 0.0000,  0.0000,  0.0000)
  26 Li     7.403408    0.000000   12.467803    ( 0.0000,  0.0000,  0.0000)
  27 Li     4.935605    1.745000   12.467803    ( 0.0000,  0.0000,  0.0000)
  28 Li     4.937795    0.000000   14.929654    ( 0.0000,  0.0000,  0.0000)
  29 Li     7.402883    1.746080   14.938671    ( 0.0000,  0.0000,  0.0000)
  30 Li     7.401636   -0.000000   17.385044    ( 0.0000,  0.0000,  0.0000)
  31 Li     4.909986    1.726223   17.407956    ( 0.0000,  0.0000,  0.0000)
  32 Li     4.935605    3.490000   10.000000    ( 0.0000,  0.0000,  0.0000)
  33 Li     7.403408    5.235000   10.000000    ( 0.0000,  0.0000,  0.0000)
  34 Li     7.403408    3.490000   12.467803    ( 0.0000,  0.0000,  0.0000)
  35 Li     4.935605    5.235000   12.467803    ( 0.0000,  0.0000,  0.0000)
  36 Li     4.936631    3.489627   14.937060    ( 0.0000,  0.0000,  0.0000)
  37 Li     7.403096    5.235000   14.936372    ( 0.0000,  0.0000,  0.0000)
  38 Li     7.403571    3.489154   17.383063    ( 0.0000,  0.0000,  0.0000)
  39 Li     4.935334    5.235000   17.385836    ( 0.0000,  0.0000,  0.0000)
  40 Li     4.935605    6.980000   10.000000    ( 0.0000,  0.0000,  0.0000)
  41 Li     7.403408    8.725000   10.000000    ( 0.0000,  0.0000,  0.0000)
  42 Li     7.403408    6.980000   12.467803    ( 0.0000,  0.0000,  0.0000)
  43 Li     4.935605    8.725000   12.467803    ( 0.0000,  0.0000,  0.0000)
  44 Li     4.936631    6.980373   14.937060    ( 0.0000,  0.0000,  0.0000)
  45 Li     7.402883    8.723920   14.938671    ( 0.0000,  0.0000,  0.0000)
  46 Li     7.403571    6.980846   17.383063    ( 0.0000,  0.0000,  0.0000)
  47 Li     4.909986    8.743777   17.407956    ( 0.0000,  0.0000,  0.0000)
  48 Li     9.871211    0.000000   10.000000    ( 0.0000,  0.0000,  0.0000)
  49 Li    12.339013    1.745000   10.000000    ( 0.0000,  0.0000,  0.0000)
  50 Li    12.339013    0.000000   12.467803    ( 0.0000,  0.0000,  0.0000)
  51 Li     9.871211    1.745000   12.467803    ( 0.0000,  0.0000,  0.0000)
  52 Li     9.870855   -0.000000   14.938491    ( 0.0000,  0.0000,  0.0000)
  53 Li    12.339927    1.746060   14.938440    ( 0.0000,  0.0000,  0.0000)
  54 Li    12.340911    0.000000   17.384770    ( 0.0000,  0.0000,  0.0000)
  55 Li     9.871302    1.744993   17.381971    ( 0.0000,  0.0000,  0.0000)
  56 Li     9.871211    3.490000   10.000000    ( 0.0000,  0.0000,  0.0000)
  57 Li    12.339013    5.235000   10.000000    ( 0.0000,  0.0000,  0.0000)
  58 Li    12.339013    3.490000   12.467803    ( 0.0000,  0.0000,  0.0000)
  59 Li     9.871211    5.235000   12.467803    ( 0.0000,  0.0000,  0.0000)
  60 Li     9.870825    3.490822   14.934482    ( 0.0000,  0.0000,  0.0000)
  61 Li    12.339738    5.235000   14.935958    ( 0.0000,  0.0000,  0.0000)
  62 Li    12.338796    3.488747   17.382856    ( 0.0000,  0.0000,  0.0000)
  63 Li     9.871063    5.235000   17.383373    ( 0.0000,  0.0000,  0.0000)
  64 Li     9.871211    6.980000   10.000000    ( 0.0000,  0.0000,  0.0000)
  65 Li    12.339013    8.725000   10.000000    ( 0.0000,  0.0000,  0.0000)
  66 Li    12.339013    6.980000   12.467803    ( 0.0000,  0.0000,  0.0000)
  67 Li     9.871211    8.725000   12.467803    ( 0.0000,  0.0000,  0.0000)
  68 Li     9.870825    6.979178   14.934482    ( 0.0000,  0.0000,  0.0000)
  69 Li    12.339927    8.723940   14.938440    ( 0.0000,  0.0000,  0.0000)
  70 Li    12.338796    6.981253   17.382856    ( 0.0000,  0.0000,  0.0000)
  71 Li     9.871302    8.725007   17.381971    ( 0.0000,  0.0000,  0.0000)
  72 Li     2.467870   -0.000000   19.674110    ( 0.0000,  0.0000,  0.0000)

Unit cell:
           periodic     x           y           z      points  spacing
  1. axis:    yes   14.806816    0.000000    0.000000    76     0.1948
  2. axis:    yes    0.000000   10.470000    0.000000    52     0.2013
  3. axis:    no     0.000000    0.000000   27.403408   136     0.2015

  Lengths:  14.806816  10.470000  27.403408
  Angles:   90.000000  90.000000  90.000000

Effective grid spacing dv^(1/3) = 0.1992

     iter     time        total  log10-change:
                         energy   eigst   dens
iter:   1 03:20:32  -126.883172        c
iter:   2 03:21:06  -126.883517        c -2.44
iter:   3 03:21:29  -126.884102c       c -2.67
iter:   4 03:21:55  -126.885438c       c -3.02
iter:   5 03:22:14  -126.885048c       c -3.23
iter:   6 03:22:38  -126.884820c       c -3.48
iter:   7 03:22:56  -126.884890c       c -3.62
iter:   8 03:23:18  -126.884920c       c -3.78
iter:   9 03:23:40  -126.884914c       c -3.95
iter:  10 03:24:03  -126.884897c       c -4.02c

Converged after 10 iterations.

Dipole moment: (-13.742767, -8.661098, 0.349654) |e|*Ang

Energy contributions relative to reference atoms: (reference = -14803.510878)

Kinetic:       +129.313562
Potential:     -112.375229
External:        +0.000000
XC:            -141.860609
Entropy (-ST):   -2.155326
Local:           -0.884958
SIC:             +0.000000
--------------------------
Free energy:   -127.962561
Extrapolated:  -126.884897

 Band  Eigenvalues  Occupancy
    0     -6.33437    2.00000
    1     -5.81596    2.00000
    2     -5.80838    2.00000
    3     -5.77273    2.00000
    4     -5.29119    2.00000
    5     -5.28317    2.00000
    6     -5.24615    2.00000
    7     -5.23104    2.00000
    8     -4.77944    1.99999
    9     -4.77095    1.99999
   10     -4.76714    1.99999
   11     -4.76341    1.99999
   12     -4.74057    1.99999
   13     -4.71966    1.99999
   14     -4.67940    1.99999
   15     -4.25892    1.99980
   16     -4.25288    1.99979
   17     -4.23120    1.99976
   18     -4.21878    1.99974
   19     -4.20848    1.99972
   20     -4.20193    1.99971
   21     -4.15400    1.99960
   22     -4.10673    1.99945
   23     -3.70530    1.99197
   24     -3.64513    1.98803
   25     -3.62910    1.98669
   26     -3.61840    1.98571
   27     -3.42568    1.94932
   28     -3.20097    1.79163
   29     -3.19512    1.78424
   30     -3.19075    1.77857
   31     -3.18861    1.77573
   32     -3.15774    1.73137
   33     -3.14131    1.70487
   34     -3.12822    1.68223
   35     -3.11840    1.66434
   36     -2.86674    0.96169
   37     -2.73710    0.56143
   38     -2.64384    0.34654
   39     -2.63126    0.32316
   40     -2.62850    0.31820
   41     -2.62040    0.30403
   42     -2.47748    0.12933
   43     -2.46430    0.11910
   44     -2.35229    0.05827
   45     -2.25199    0.03029
   46     -2.21613    0.02392
   47     -2.10988    0.01185

Fermi level: -2.87824

Gap: 0.252 eV
Transition (v -> c):
  (s=0, k=0, n=35, [0.00, 0.00, 0.00]) -> (s=0, k=0, n=36, [0.00, 0.00, 0.00])
No difference between direct/indirect transitions

Forces in eV/Ang:
  0 Li    0.00067    0.00000    0.09235
  1 Li    0.00044   -0.00786    0.10193
  2 Li   -0.00164    0.00000    0.01199
  3 Li   -0.01071    0.00677   -0.02359
  4 Li   -0.01848    0.00000   -0.04516
  5 Li   -0.00110    0.11447   -0.19408
  6 Li    0.00011    0.00000   -0.02959
  7 Li    0.07296   -0.06336    0.00402
  8 Li   -0.01298   -0.00591    0.09606
  9 Li   -0.00070    0.00000    0.10536
 10 Li   -0.00184    0.00248   -0.02642
 11 Li   -0.00654    0.00000   -0.00566
 12 Li    0.00245   -0.01355    0.01010
 13 Li   -0.00085    0.00000    0.02018
 14 Li   -0.00035   -0.05192   -0.01514
 15 Li    0.00996    0.00000   -0.06053
 16 Li   -0.01298    0.00591    0.09606
 17 Li    0.00044    0.00786    0.10193
 18 Li   -0.00184   -0.00248   -0.02642
 19 Li   -0.01071   -0.00677   -0.02359
 20 Li    0.00245    0.01355    0.01010
 21 Li   -0.00110   -0.11447   -0.19408
 22 Li   -0.00035    0.05192   -0.01514
 23 Li    0.07296    0.06336    0.00402
 24 Li   -0.00001    0.00000    0.09343
 25 Li    0.00685    0.00556    0.08286
 26 Li    0.00039    0.00000   -0.00906
 27 Li    0.01229    0.00677   -0.02278
 28 Li    0.01906    0.00000   -0.04619
 29 Li   -0.00023   -0.00068   -0.00320
 30 Li   -0.00393    0.00000   -0.06937
 31 Li   -0.07503   -0.06384    0.00391
 32 Li    0.01257   -0.00789    0.09699
 33 Li    0.01853    0.00000    0.07974
 34 Li    0.00397   -0.00021   -0.00515
 35 Li    0.00834    0.00000   -0.00400
 36 Li   -0.00145   -0.01344    0.00911
 37 Li    0.00078    0.00000   -0.00889
 38 Li   -0.01143   -0.00830   -0.07156
 39 Li   -0.00918    0.00000   -0.06174
 40 Li    0.01257    0.00789    0.09699
 41 Li    0.00685   -0.00556    0.08286
 42 Li    0.00397    0.00021   -0.00515
 43 Li    0.01229   -0.00677   -0.02278
 44 Li   -0.00145    0.01344    0.00911
 45 Li   -0.00023    0.00068   -0.00320
 46 Li   -0.01143    0.00830   -0.07156
 47 Li   -0.07503    0.06384    0.00391
 48 Li   -0.00061    0.00000    0.09165
 49 Li   -0.00727    0.00753    0.08375
 50 Li    0.00146    0.00000   -0.00722
 51 Li   -0.00183    0.00437   -0.00909
 52 Li   -0.00084    0.00000   -0.00474
 53 Li    0.00106   -0.00085   -0.00433
 54 Li    0.00463    0.00000   -0.07056
 55 Li   -0.00021    0.00018   -0.07713
 56 Li    0.00040    0.00805    0.07486
 57 Li   -0.01783    0.00000    0.08081
 58 Li   -0.00224   -0.00022   -0.00438
 59 Li   -0.00173    0.00000   -0.00758
 60 Li   -0.00098    0.00359   -0.01171
 61 Li    0.00029    0.00000   -0.01017
 62 Li    0.01173   -0.00915   -0.07262
 63 Li   -0.00077    0.00000   -0.07761
 64 Li    0.00040   -0.00805    0.07486
 65 Li   -0.00727   -0.00753    0.08375
 66 Li   -0.00224    0.00022   -0.00438
 67 Li   -0.00183   -0.00437   -0.00909
 68 Li   -0.00098   -0.00359   -0.01171
 69 Li    0.00106    0.00085   -0.00433
 70 Li    0.01173    0.00915   -0.07262
 71 Li   -0.00021   -0.00018   -0.07713
 72 Li    0.00044    0.00000   -0.10508

System changes: positions 

Initializing position-dependent things.

Density initialized from wave functions
       .-----------------------------------.  
      /|                                   |  
     / |                                   |  
    /  |                                   |  
   /   |                                   |  
  /    |                                   |  
 *     |                                   |  
 |     |                                   |  
 |     |                                   |  
 |     |                                   |  
 |     |                                   |  
 |     |                                   |  
 |     |                                   |  
 |    Li          Li          Li           |  
 |     |   Li          Li          Li      |  
 |  Li |        Li          Li             |  
 |     LiLi          Li Li       Li Li     |  
 |Li   |    LiLi Li       Li Li          Li|  
 |     |  Li       Li Li       Li Li       |  
 |     Li      Li          Li          Li  |  
 |    LiLi        LiLi        LiLi         |  
 |     |   LiLi        LiLi        LiLi    |  
 |  Li |        Li          Li             |  
 |     | Li Li       Li Li       Li Li     |  
 |Li Li|      Li Li       Li Li            |  
 |     Li Li       Li Li       Li Li       |  
 | Li  |       Li          Li              |  
 |     |Li          Li          Li         |  
 Li    |     Li          Li                |  
 |     |                                   |  
 |     |                                   |  
 |     |                                   |  
 |     |                                   |  
 |     |                                   |  
 |     .-----------------------------------.  
 |    /                                   /   
 |   /                                   /    
 |  /                                   /     
 | /                                   /      
 |/                                   /       
 *-----------------------------------*        

Atomic positions and initial magnetic moments

Positions:
   0 Li     0.000000    0.000000   10.000000    ( 0.0000,  0.0000,  0.0000)
   1 Li     2.467803    1.745000   10.000000    ( 0.0000,  0.0000,  0.0000)
   2 Li     2.467803    0.000000   12.467803    ( 0.0000,  0.0000,  0.0000)
   3 Li     0.000000    1.745000   12.467803    ( 0.0000,  0.0000,  0.0000)
   4 Li    -0.002397    0.000000   14.928584    ( 0.0000,  0.0000,  0.0000)
   5 Li     2.467391    1.753785   14.913010    ( 0.0000,  0.0000,  0.0000)
   6 Li     2.467323   -0.000000   16.983705    ( 0.0000,  0.0000,  0.0000)
   7 Li     0.029033    1.722943   17.408535    ( 0.0000,  0.0000,  0.0000)
   8 Li     0.000000    3.490000   10.000000    ( 0.0000,  0.0000,  0.0000)
   9 Li     2.467803    5.235000   10.000000    ( 0.0000,  0.0000,  0.0000)
  10 Li     2.467803    3.490000   12.467803    ( 0.0000,  0.0000,  0.0000)
  11 Li     0.000000    5.235000   12.467803    ( 0.0000,  0.0000,  0.0000)
  12 Li    -0.000568    3.489288   14.937652    ( 0.0000,  0.0000,  0.0000)
  13 Li     2.467386    5.235000   14.938923    ( 0.0000,  0.0000,  0.0000)
  14 Li     2.467874    3.463531   17.405682    ( 0.0000,  0.0000,  0.0000)
  15 Li     0.000683    5.235000   17.383465    ( 0.0000,  0.0000,  0.0000)
  16 Li     0.000000    6.980000   10.000000    ( 0.0000,  0.0000,  0.0000)
  17 Li     2.467803    8.725000   10.000000    ( 0.0000,  0.0000,  0.0000)
  18 Li     2.467803    6.980000   12.467803    ( 0.0000,  0.0000,  0.0000)
  19 Li     0.000000    8.725000   12.467803    ( 0.0000,  0.0000,  0.0000)
  20 Li    -0.000568    6.980712   14.937652    ( 0.0000,  0.0000,  0.0000)
  21 Li     2.467391    8.716215   14.913010    ( 0.0000,  0.0000,  0.0000)
  22 Li     2.467874    7.006469   17.405682    ( 0.0000,  0.0000,  0.0000)
  23 Li     0.029033    8.747057   17.408535    ( 0.0000,  0.0000,  0.0000)
  24 Li     4.935605    0.000000   10.000000    ( 0.0000,  0.0000,  0.0000)
  25 Li     7.403408    1.745000   10.000000    ( 0.0000,  0.0000,  0.0000)
  26 Li     7.403408    0.000000   12.467803    ( 0.0000,  0.0000,  0.0000)
  27 Li     4.935605    1.745000   12.467803    ( 0.0000,  0.0000,  0.0000)
  28 Li     4.938407    0.000000   14.928121    ( 0.0000,  0.0000,  0.0000)
  29 Li     7.402843    1.746132   14.938796    ( 0.0000,  0.0000,  0.0000)
  30 Li     7.401427   -0.000000   17.382115    ( 0.0000,  0.0000,  0.0000)
  31 Li     4.906447    1.723413   17.408348    ( 0.0000,  0.0000,  0.0000)
  32 Li     4.935605    3.490000   10.000000    ( 0.0000,  0.0000,  0.0000)
  33 Li     7.403408    5.235000   10.000000    ( 0.0000,  0.0000,  0.0000)
  34 Li     7.403408    3.490000   12.467803    ( 0.0000,  0.0000,  0.0000)
  35 Li     4.935605    5.235000   12.467803    ( 0.0000,  0.0000,  0.0000)
  36 Li     4.936658    3.489266   14.937385    ( 0.0000,  0.0000,  0.0000)
  37 Li     7.403097    5.235000   14.936203    ( 0.0000,  0.0000,  0.0000)
  38 Li     7.403300    3.488893   17.379952    ( 0.0000,  0.0000,  0.0000)
  39 Li     4.935089    5.235000   17.383149    ( 0.0000,  0.0000,  0.0000)
  40 Li     4.935605    6.980000   10.000000    ( 0.0000,  0.0000,  0.0000)
  41 Li     7.403408    8.725000   10.000000    ( 0.0000,  0.0000,  0.0000)
  42 Li     7.403408    6.980000   12.467803    ( 0.0000,  0.0000,  0.0000)
  43 Li     4.935605    8.725000   12.467803    ( 0.0000,  0.0000,  0.0000)
  44 Li     4.936658    6.980734   14.937385    ( 0.0000,  0.0000,  0.0000)
  45 Li     7.402843    8.723868   14.938796    ( 0.0000,  0.0000,  0.0000)
  46 Li     7.403300    6.981107   17.379952    ( 0.0000,  0.0000,  0.0000)
  47 Li     4.906447    8.746587   17.408348    ( 0.0000,  0.0000,  0.0000)
  48 Li     9.871211    0.000000   10.000000    ( 0.0000,  0.0000,  0.0000)
  49 Li    12.339013    1.745000   10.000000    ( 0.0000,  0.0000,  0.0000)
  50 Li    12.339013    0.000000   12.467803    ( 0.0000,  0.0000,  0.0000)
  51 Li     9.871211    1.745000   12.467803    ( 0.0000,  0.0000,  0.0000)
  52 Li     9.870810   -0.000000   14.938564    ( 0.0000,  0.0000,  0.0000)
[...]
 46 Li    0.00742   -0.00686   -0.00168
 47 Li    0.00709   -0.03800   -0.03067
 48 Li   -0.00063    0.00000    0.09039
 49 Li   -0.00781    0.01094    0.08218
 50 Li    0.00547    0.00000   -0.07035
 51 Li   -0.00189    0.00186   -0.07402
 52 Li   -0.00005    0.00000   -0.01406
 53 Li   -0.00246   -0.01003   -0.00873
 54 Li   -0.02847    0.00000   -0.01583
 55 Li    0.00037    0.00319   -0.00189
 56 Li    0.00036    0.01348    0.06657
 57 Li   -0.02066    0.00000    0.07529
 58 Li   -0.00034    0.00062   -0.05972
 59 Li   -0.00169    0.00000   -0.07367
 60 Li    0.00130    0.00685   -0.00288
 61 Li   -0.00724    0.00000    0.00607
 62 Li   -0.00702    0.00765   -0.00156
 63 Li    0.00009    0.00000   -0.00516
 64 Li    0.00036   -0.01348    0.06657
 65 Li   -0.00781   -0.01094    0.08218
 66 Li   -0.00034   -0.00062   -0.05972
 67 Li   -0.00189   -0.00186   -0.07402
 68 Li    0.00130   -0.00685   -0.00288
 69 Li   -0.00246    0.01003   -0.00873
 70 Li   -0.00702   -0.00765   -0.00156
 71 Li    0.00037   -0.00319   -0.00189
 72 Li    0.00006    0.00000   -0.01913

System changes: positions 

Initializing position-dependent things.

Density initialized from wave functions
       .-----------------------------------.  
      /|                                   |  
     / |                                   |  
    /  |                                   |  
   /   |                                   |  
  /    |                                   |  
 *     |                                   |  
 |     |                                   |  
 |     |                                   |  
 |     |                                   |  
 |     |                                   |  
 |     |                                   |  
 |     |                                   |  
 |    Li          Li                       |  
 |     |   Li                 Li           |  
 |     |               Li          Li      |  
 |  Li Li       Li          Li             |  
 |Li   | Li LiLi Li  Li Li       Li Li   Li|  
 |     |  Li              Li Li            |  
 |     Li      Li  Li Li       Li Li   Li  |  
 |    Li          Li       Li Li           |  
 |     |Li Li       Li Li       Li Li      |  
 Li Li |     Li Li       Li Li             |  
 |     | Li Li       Li Li       Li Li     |  
 |Li Li|      Li Li       Li Li            |  
 |     Li Li       Li Li       Li Li       |  
 | Li  |       Li          Li              |  
 |     |Li          Li          Li         |  
 Li    |     Li          Li                |  
 |     |                                   |  
 |     |                                   |  
 |     |                                   |  
 |     |                                   |  
 |     |                                   |  
 |     .-----------------------------------.  
 |    /                                   /   
 |   /                                   /    
 |  /                                   /     
 | /                                   /      
 |/                                   /       
 *-----------------------------------*        

Atomic positions and initial magnetic moments

Positions:
   0 Li     0.000000    0.000000   10.000000    ( 0.0000,  0.0000,  0.0000)
   1 Li     2.467803    1.745000   10.000000    ( 0.0000,  0.0000,  0.0000)
   2 Li     2.467803    0.000000   12.467803    ( 0.0000,  0.0000,  0.0000)
   3 Li     0.000000    1.745000   12.467803    ( 0.0000,  0.0000,  0.0000)
   4 Li     0.008450    0.000000   14.840876    ( 0.0000,  0.0000,  0.0000)
   5 Li     2.466778    1.837346   14.708484    ( 0.0000,  0.0000,  0.0000)
   6 Li     2.465177    0.000000   16.700587    ( 0.0000,  0.0000,  0.0000)
   7 Li     0.116280    1.606238   17.398577    ( 0.0000,  0.0000,  0.0000)
   8 Li     0.000000    3.490000   10.000000    ( 0.0000,  0.0000,  0.0000)
   9 Li     2.467803    5.235000   10.000000    ( 0.0000,  0.0000,  0.0000)
  10 Li     2.467803    3.490000   12.467803    ( 0.0000,  0.0000,  0.0000)
  11 Li     0.000000    5.235000   12.467803    ( 0.0000,  0.0000,  0.0000)
  12 Li    -0.019251    3.454387   14.937389    ( 0.0000,  0.0000,  0.0000)
  13 Li     2.467802    5.235000   14.949490    ( 0.0000,  0.0000,  0.0000)
  14 Li     2.466092    3.377478   17.327412    ( 0.0000,  0.0000,  0.0000)
  15 Li     0.054698    5.235000   17.280704    ( 0.0000,  0.0000,  0.0000)
  16 Li     0.000000    6.980000   10.000000    ( 0.0000,  0.0000,  0.0000)
  17 Li     2.467803    8.725000   10.000000    ( 0.0000,  0.0000,  0.0000)
  18 Li     2.467803    6.980000   12.467803    ( 0.0000,  0.0000,  0.0000)
  19 Li     0.000000    8.725000   12.467803    ( 0.0000,  0.0000,  0.0000)
  20 Li    -0.019251    7.015613   14.937389    ( 0.0000,  0.0000,  0.0000)
  21 Li     2.466778    8.632654   14.708484    ( 0.0000,  0.0000,  0.0000)
  22 Li     2.466092    7.092522   17.327412    ( 0.0000,  0.0000,  0.0000)
  23 Li     0.116280    8.863762   17.398577    ( 0.0000,  0.0000,  0.0000)
  24 Li     4.935605    0.000000   10.000000    ( 0.0000,  0.0000,  0.0000)
  25 Li     7.403408    1.745000   10.000000    ( 0.0000,  0.0000,  0.0000)
  26 Li     7.403408    0.000000   12.467803    ( 0.0000,  0.0000,  0.0000)
  27 Li     4.935605    1.745000   12.467803    ( 0.0000,  0.0000,  0.0000)
  28 Li     4.925669    0.000000   14.842990    ( 0.0000,  0.0000,  0.0000)
  29 Li     7.412367    1.742652   14.865138    ( 0.0000,  0.0000,  0.0000)
  30 Li     7.368213    0.000000   17.229024    ( 0.0000,  0.0000,  0.0000)
  31 Li     4.818286    1.607298   17.398189    ( 0.0000,  0.0000,  0.0000)
  32 Li     4.935605    3.490000   10.000000    ( 0.0000,  0.0000,  0.0000)
  33 Li     7.403408    5.235000   10.000000    ( 0.0000,  0.0000,  0.0000)
  34 Li     7.403408    3.490000   12.467803    ( 0.0000,  0.0000,  0.0000)
  35 Li     4.935605    5.235000   12.467803    ( 0.0000,  0.0000,  0.0000)
  36 Li     4.955202    3.454589   14.934441    ( 0.0000,  0.0000,  0.0000)
  37 Li     7.397709    5.235000   14.871165    ( 0.0000,  0.0000,  0.0000)
  38 Li     7.340827    3.457051   17.233696    ( 0.0000,  0.0000,  0.0000)
  39 Li     4.881615    5.235000   17.279470    ( 0.0000,  0.0000,  0.0000)
  40 Li     4.935605    6.980000   10.000000    ( 0.0000,  0.0000,  0.0000)
  41 Li     7.403408    8.725000   10.000000    ( 0.0000,  0.0000,  0.0000)
  42 Li     7.403408    6.980000   12.467803    ( 0.0000,  0.0000,  0.0000)
  43 Li     4.935605    8.725000   12.467803    ( 0.0000,  0.0000,  0.0000)
  44 Li     4.955202    7.015411   14.934441    ( 0.0000,  0.0000,  0.0000)
  45 Li     7.412367    8.727348   14.865138    ( 0.0000,  0.0000,  0.0000)
  46 Li     7.340827    7.012949   17.233696    ( 0.0000,  0.0000,  0.0000)
  47 Li     4.818286    8.862702   17.398189    ( 0.0000,  0.0000,  0.0000)
  48 Li     9.871211    0.000000   10.000000    ( 0.0000,  0.0000,  0.0000)
  49 Li    12.339013    1.745000   10.000000    ( 0.0000,  0.0000,  0.0000)
  50 Li    12.339013    0.000000   12.467803    ( 0.0000,  0.0000,  0.0000)
  51 Li     9.871211    1.745000   12.467803    ( 0.0000,  0.0000,  0.0000)
  52 Li     9.870201   -0.000000   14.871405    ( 0.0000,  0.0000,  0.0000)
  53 Li    12.330456    1.742690   14.863682    ( 0.0000,  0.0000,  0.0000)
  54 Li    12.372818    0.000000   17.228229    ( 0.0000,  0.0000,  0.0000)
  55 Li     9.870901    1.745343   17.212149    ( 0.0000,  0.0000,  0.0000)
  56 Li     9.871211    3.490000   10.000000    ( 0.0000,  0.0000,  0.0000)
  57 Li    12.339013    5.235000   10.000000    ( 0.0000,  0.0000,  0.0000)
  58 Li    12.339013    3.490000   12.467803    ( 0.0000,  0.0000,  0.0000)
  59 Li     9.871211    5.235000   12.467803    ( 0.0000,  0.0000,  0.0000)
  60 Li     9.870305    3.493170   14.855139    ( 0.0000,  0.0000,  0.0000)
  61 Li    12.345608    5.235000   14.869841    ( 0.0000,  0.0000,  0.0000)
  62 Li    12.400946    3.456562   17.232807    ( 0.0000,  0.0000,  0.0000)
  63 Li     9.871107    5.235000   17.220450    ( 0.0000,  0.0000,  0.0000)
  64 Li     9.871211    6.980000   10.000000    ( 0.0000,  0.0000,  0.0000)
  65 Li    12.339013    8.725000   10.000000    ( 0.0000,  0.0000,  0.0000)
  66 Li    12.339013    6.980000   12.467803    ( 0.0000,  0.0000,  0.0000)
  67 Li     9.871211    8.725000   12.467803    ( 0.0000,  0.0000,  0.0000)
  68 Li     9.870305    6.976830   14.855139    ( 0.0000,  0.0000,  0.0000)
  69 Li    12.330456    8.727310   14.863682    ( 0.0000,  0.0000,  0.0000)
  70 Li    12.400946    7.013438   17.232807    ( 0.0000,  0.0000,  0.0000)
  71 Li     9.870901    8.724657   17.212149    ( 0.0000,  0.0000,  0.0000)
  72 Li     2.468885    0.000000   19.322189    ( 0.0000,  0.0000,  0.0000)

Unit cell:
           periodic     x           y           z      points  spacing
  1. axis:    yes   14.806816    0.000000    0.000000    76     0.1948
  2. axis:    yes    0.000000   10.470000    0.000000    52     0.2013
  3. axis:    no     0.000000    0.000000   27.403408   136     0.2015

  Lengths:  14.806816  10.470000  27.403408
  Angles:   90.000000  90.000000  90.000000

Effective grid spacing dv^(1/3) = 0.1992

     iter     time        total  log10-change:
                         energy   eigst   dens
iter:   1 03:58:34  -127.093830        c
iter:   2 03:58:43  -127.093902        c -3.14
iter:   3 03:58:52  -127.094044c       c -3.32
iter:   4 03:59:02  -127.094222c       c -3.52
iter:   5 03:59:12  -127.094179c       c -3.78
iter:   6 03:59:21  -127.094177c       c -4.03c

Converged after 6 iterations.

Dipole moment: (-17.400700, -8.613011, 0.289563) |e|*Ang

Energy contributions relative to reference atoms: (reference = -14803.510878)

Kinetic:       +134.529571
Potential:     -115.689561
External:        +0.000000
XC:            -143.977964
Entropy (-ST):   -2.104224
Local:           -0.904111
SIC:             +0.000000
--------------------------
Free energy:   -128.146289
Extrapolated:  -127.094177

 Band  Eigenvalues  Occupancy
    0     -6.38083    2.00000
    1     -5.87133    2.00000
    2     -5.85206    2.00000
    3     -5.79617    2.00000
    4     -5.34171    2.00000
    5     -5.33505    2.00000
    6     -5.27571    2.00000
    7     -5.25129    2.00000
    8     -4.83689    1.99999
    9     -4.83328    1.99999
   10     -4.81441    1.99999
   11     -4.80865    1.99999
   12     -4.77787    1.99999
   13     -4.74634    1.99999
   14     -4.68783    1.99999
   15     -4.31765    1.99984
   16     -4.31043    1.99983
   17     -4.27063    1.99978
   18     -4.25309    1.99975
   19     -4.23704    1.99973
   20     -4.21928    1.99969
   21     -4.16408    1.99956
   22     -4.11716    1.99939
   23     -3.73210    1.99213
   24     -3.67170    1.98824
   25     -3.65304    1.98670
   26     -3.63785    1.98529
   27     -3.42751    1.94153
   28     -3.26259    1.83415
   29     -3.25800    1.82942
   30     -3.25623    1.82758
   31     -3.24694    1.81757
   32     -3.17509    1.72111
   33     -3.16246    1.70027
   34     -3.13806    1.65643
   35     -3.13741    1.65518
   36     -2.85892    0.85701
   37     -2.74639    0.52303
   38     -2.67803    0.36669
   39     -2.66233    0.33637
   40     -2.65839    0.32909
   41     -2.64559    0.30629
   42     -2.47936    0.11268
   43     -2.47887    0.11233
   44     -2.34988    0.04913
   45     -2.33400    0.04431
   46     -2.22614    0.02183
   47     -2.07674    0.00812

Fermi level: -2.90211

Gap: 0.278 eV
Transition (v -> c):
  (s=0, k=0, n=35, [0.00, 0.00, 0.00]) -> (s=0, k=0, n=36, [0.00, 0.00, 0.00])
No difference between direct/indirect transitions

Forces in eV/Ang:
  0 Li   -0.00052    0.00000    0.09170
  1 Li    0.00047   -0.00737    0.10670
  2 Li   -0.00166    0.00000   -0.06516
  3 Li   -0.01577    0.02825   -0.07957
  4 Li   -0.03586    0.00000    0.00557
  5 Li   -0.00089    0.02116    0.00689
  6 Li    0.00154    0.00000    0.00263
  7 Li   -0.01464    0.03675   -0.02980
  8 Li   -0.01531   -0.00528    0.09250
  9 Li   -0.00070    0.00000    0.10159
 10 Li   -0.00171    0.08074   -0.14777
 11 Li    0.00007    0.00000    0.01314
 12 Li    0.01412   -0.00204   -0.01693
 13 Li   -0.00105    0.00000   -0.03573
 14 Li    0.00109   -0.00959   -0.01390
 15 Li    0.00728    0.00000    0.02126
 16 Li   -0.01531    0.00528    0.09250
 17 Li    0.00047    0.00737    0.10670
 18 Li   -0.00171   -0.08074   -0.14777
 19 Li   -0.01577   -0.02825   -0.07957
 20 Li    0.01412    0.00204   -0.01693
 21 Li   -0.00089   -0.02116    0.00689
 22 Li    0.00109    0.00959   -0.01390
 23 Li   -0.01464   -0.03675   -0.02980
 24 Li    0.00119    0.00000    0.09270
 25 Li    0.00731    0.00892    0.08122
 26 Li   -0.00342    0.00000   -0.07081
 27 Li    0.01706    0.02711   -0.07869
 28 Li    0.03707    0.00000    0.00399
 29 Li    0.00197   -0.00826   -0.01413
 30 Li    0.02396    0.00000   -0.01280
 31 Li    0.01077    0.03561   -0.02998
 32 Li    0.01496   -0.00721    0.09350
 33 Li    0.02147    0.00000    0.07407
 34 Li    0.00217    0.00065   -0.05899
 35 Li    0.00183    0.00000    0.01314
 36 Li   -0.01589   -0.00193   -0.01494
 37 Li    0.00490    0.00000    0.00033
 38 Li    0.00574    0.00600   -0.00076
 39 Li   -0.01029    0.00000    0.02006
 40 Li    0.01496    0.00721    0.09350
 41 Li    0.00731   -0.00892    0.08122
 42 Li    0.00217   -0.00065   -0.05899
 43 Li    0.01706   -0.02711   -0.07869
 44 Li   -0.01589    0.00193   -0.01494
 45 Li    0.00197    0.00826   -0.01413
 46 Li    0.00574   -0.00600   -0.00076
 47 Li    0.01077   -0.03561   -0.02998
 48 Li   -0.00063    0.00000    0.09031
 49 Li   -0.00776    0.01088    0.08213
 50 Li    0.00518    0.00000   -0.07009
 51 Li   -0.00188    0.00197   -0.07354
 52 Li   -0.00004    0.00000   -0.01501
 53 Li   -0.00301   -0.00831   -0.01068
 54 Li   -0.02462    0.00000   -0.01369
 55 Li    0.00037    0.00360   -0.00130
 56 Li    0.00036    0.01344    0.06659
 57 Li   -0.02070    0.00000    0.07528
 58 Li   -0.00039    0.00056   -0.05893
 59 Li   -0.00169    0.00000   -0.07328
 60 Li    0.00124    0.00569   -0.00454
 61 Li   -0.00570    0.00000    0.00368
 62 Li   -0.00555    0.00682   -0.00056
 63 Li    0.00012    0.00000   -0.00356
 64 Li    0.00036   -0.01344    0.06659
 65 Li   -0.00776   -0.01088    0.08213
 66 Li   -0.00039   -0.00056   -0.05893
 67 Li   -0.00188   -0.00197   -0.07354
 68 Li    0.00124   -0.00569   -0.00454
 69 Li   -0.00301    0.00831   -0.01068
 70 Li   -0.00555   -0.00682   -0.00056
 71 Li    0.00037   -0.00360   -0.00130
 72 Li    0.00003    0.00000   -0.03665

Timing:                                       incl.     excl.
--------------------------------------------------------------------
Basic WFS set positions:                      0.116     0.063   0.0% |
 Redistribute:                                0.053     0.053   0.0% |
Basis functions set positions:               18.617    18.617   0.3% |
Forces:                                     576.722    13.851   0.2% |
 LCAO forces:                               562.871     0.260   0.0% |
  Atomic Hamiltonian force:                   2.619     2.619   0.0% |
  Initial:                                    0.113     0.000   0.0% |
   Get density matrix:                        0.113     0.113   0.0% |
  Paw correction:                             2.460     2.460   0.0% |
  Potential:                                530.133   530.133   9.1% |---|
  TCI derivative:                            27.283    27.283   0.5% |
  Wait for sum:                               0.001     0.001   0.0% |
LCAO WFS Initialize:                        149.555     0.901   0.0% |
 Density initialized from wave functions:    96.464     6.631   0.1% |
  Calculate density matrix:                   0.066     0.066   0.0% |
  Construct density:                         89.547    89.547   1.5% ||
  Symmetrize density:                         0.220     0.220   0.0% |
 Hamiltonian:                                52.190     0.005   0.0% |
  Atomic:                                    16.877     0.060   0.0% |
   XC Correction:                            16.817    16.817   0.3% |
  Calculate atomic Hamiltonians:              1.127     1.127   0.0% |
  Communicate:                                0.000     0.000   0.0% |
  Hartree integrate/restrict:                 0.637     0.637   0.0% |
  Initialize Hamiltonian:                     0.000     0.000   0.0% |
  Poisson:                                   15.001     0.946   0.0% |
   Communicate from 1D:                       0.877     0.877   0.0% |
   Communicate from 2D:                       0.858     0.858   0.0% |
   Communicate to 1D:                         0.682     0.682   0.0% |
   Communicate to 2D:                         2.346     2.346   0.0% |
   FFT 1D:                                    3.208     3.208   0.1% |
   FFT 2D:                                    6.084     6.084   0.1% |
  XC 3D grid:                                17.795    17.795   0.3% |
  vbar:                                       0.748     0.748   0.0% |
P tci:                                       12.654    12.654   0.2% |
Redistribute:                                 0.005     0.005   0.0% |
SCF-cycle:                                 2376.344     1.528   0.0% |
 Density:                                   876.917     0.004   0.0% |
  Atomic density matrices:                    0.571     0.571   0.0% |
  Mix:                                       26.183    26.183   0.5% |
  Multipole moments:                          0.139     0.139   0.0% |
  Normalize:                                  0.070     0.070   0.0% |
  Pseudo density:                           849.950     0.420   0.0% |
   Calculate density matrix:                  0.108     0.108   0.0% |
   Construct density:                       847.550   847.550  14.6% |-----|
   Symmetrize density:                        1.871     1.871   0.0% |
 Hamiltonian:                               379.854     0.024   0.0% |
  Atomic:                                   139.207     0.578   0.0% |
   XC Correction:                           138.629   138.629   2.4% ||
  Calculate atomic Hamiltonians:              8.068     8.068   0.1% |
  Communicate:                                0.002     0.002   0.0% |
  Hartree integrate/restrict:                 3.150     3.150   0.1% |
  Poisson:                                   97.626     4.910   0.1% |
   Communicate from 1D:                       7.707     7.707   0.1% |
   Communicate from 2D:                       7.638     7.638   0.1% |
   Communicate to 1D:                         5.815     5.815   0.1% |
   Communicate to 2D:                        11.599    11.599   0.2% |
   FFT 1D:                                   27.143    27.143   0.5% |
   FFT 2D:                                   32.813    32.813   0.6% |
  XC 3D grid:                               128.544   128.544   2.2% ||
  vbar:                                       3.234     3.234   0.1% |
 LCAO eigensolver:                         1118.044     0.115   0.0% |
  Calculate projections:                      0.724     0.724   0.0% |
  DenseAtomicCorrection:                      4.158     4.158   0.1% |
  Distribute overlap matrix:                  0.024     0.024   0.0% |
  Orbital Layouts:                            5.326     5.326   0.1% |
  Potential matrix:                        1107.698  1107.698  19.1% |-------|
ST tci:                                       6.917     6.917   0.1% |
Set symmetry:                                 0.000     0.000   0.0% |
TCI: Evaluate splines:                        0.008     0.008   0.0% |
mktci:                                        1.657     1.657   0.0% |
Other:                                     2668.403  2668.403  45.9% |-----------------|
--------------------------------------------------------------------
Total:                                               5810.997 100.0%

Memory usage: 3.67 GiB
Date: Wed Nov 26 04:43:48 2025
