73
Lattice="14.806815998046307 0.0 0.0 0.0 10.47 0.0 0.0 0.0 27.403407999023152" Properties=species:S:1:pos:R:3:move_mask:L:1:tags:I:1:magmoms:R:1:forces:R:3 energy=-127.09417699626177 free_energy=-128.14628901851597 dipole="-17.400699789253185 -8.613010539500705 0.289562983395232" magmom=0.0 pbc="T T F"
Li       0.00000000       0.00000000      10.00000000  F        4       0.00000000      -0.00052270       0.00000000       0.09170379
Li       2.46780267       1.74500000      10.00000000  F        4       0.00000000       0.00047095      -0.00737430       0.10669939
Li       2.46780267       0.00000000      12.46780267  F        3       0.00000000      -0.00165785       0.00000000      -0.06516332
Li       0.00000000       1.74500000      12.46780267  F        3       0.00000000      -0.01576996       0.02825229      -0.07956542
Li       0.00844985       0.00000000      14.84087615  T        2       0.00000000      -0.03585985       0.00000000       0.00557413
Li       2.46677782       1.83734591      14.70848379  T        2       0.00000000      -0.00089122       0.02115797       0.00689252
Li       2.46517658       0.00000000      16.70058748  T        1       0.00000000       0.00154043       0.00000000       0.00263111
Li       0.11628035       1.60623800      17.39857675  T        1       0.00000000      -0.01463543       0.03674806      -0.02979529
Li       0.00000000       3.49000000      10.00000000  F        4       0.00000000      -0.01530528      -0.00528147       0.09250208
Li       2.46780267       5.23500000      10.00000000  F        4       0.00000000      -0.00070249       0.00000000       0.10159391
Li       2.46780267       3.49000000      12.46780267  F        3       0.00000000      -0.00171201       0.08074478      -0.14776974
Li       0.00000000       5.23500000      12.46780267  F        3       0.00000000       0.00007140       0.00000000       0.01314442
Li      -0.01925086       3.45438734      14.93738854  T        2       0.00000000       0.01411974      -0.00204121      -0.01693294
Li       2.46780210       5.23500000      14.94949008  T        2       0.00000000      -0.00105301       0.00000000      -0.03572510
Li       2.46609232       3.37747791      17.32741184  T        1       0.00000000       0.00109148      -0.00959199      -0.01389734
Li       0.05469782       5.23500000      17.28070399  T        1       0.00000000       0.00727710       0.00000000       0.02126114
Li       0.00000000       6.98000000      10.00000000  F        4       0.00000000      -0.01530528       0.00528147       0.09250208
Li       2.46780267       8.72500000      10.00000000  F        4       0.00000000       0.00047095       0.00737430       0.10669939
Li       2.46780267       6.98000000      12.46780267  F        3       0.00000000      -0.00171201      -0.08074478      -0.14776974
Li       0.00000000       8.72500000      12.46780267  F        3       0.00000000      -0.01576996      -0.02825229      -0.07956542
Li      -0.01925086       7.01561266      14.93738854  T        2       0.00000000       0.01411974       0.00204121      -0.01693294
Li       2.46677782       8.63265409      14.70848379  T        2       0.00000000      -0.00089122      -0.02115797       0.00689252
Li       2.46609232       7.09252209      17.32741184  T        1       0.00000000       0.00109148       0.00959199      -0.01389734
Li       0.11628035       8.86376200      17.39857675  T        1       0.00000000      -0.01463543      -0.03674806      -0.02979529
Li       4.93560533       0.00000000      10.00000000  F        4       0.00000000       0.00119047       0.00000000       0.09270457
Li       7.40340800       1.74500000      10.00000000  F        4       0.00000000       0.00731214       0.00892302       0.08121704
Li       7.40340800       0.00000000      12.46780267  F        3       0.00000000      -0.00342462       0.00000000      -0.07081470
Li       4.93560533       1.74500000      12.46780267  F        3       0.00000000       0.01706027       0.02710899      -0.07869123
Li       4.92566930       0.00000000      14.84298976  T        2       0.00000000       0.03706988       0.00000000       0.00398586
Li       7.41236711       1.74265199      14.86513850  T        2       0.00000000       0.00196626      -0.00825527      -0.01412954
Li       7.36821266       0.00000000      17.22902392  T        1       0.00000000       0.02395616       0.00000000      -0.01280459
Li       4.81828612       1.60729781      17.39818890  T        1       0.00000000       0.01076583       0.03560512      -0.02997519
Li       4.93560533       3.49000000      10.00000000  F        4       0.00000000       0.01495622      -0.00720809       0.09349672
Li       7.40340800       5.23500000      10.00000000  F        4       0.00000000       0.02146534       0.00000000       0.07406671
Li       7.40340800       3.49000000      12.46780267  F        3       0.00000000       0.00217121       0.00065420      -0.05899107
Li       4.93560533       5.23500000      12.46780267  F        3       0.00000000       0.00183390       0.00000000       0.01313679
Li       4.95520188       3.45458948      14.93444103  T        2       0.00000000      -0.01588910      -0.00193019      -0.01493998
Li       7.39770940       5.23500000      14.87116539  T        2       0.00000000       0.00489545       0.00000000       0.00032655
Li       7.34082688       3.45705056      17.23369619  T        1       0.00000000       0.00573694       0.00600469      -0.00075564
Li       4.88161507       5.23500000      17.27947002  T        1       0.00000000      -0.01028727       0.00000000       0.02006157
Li       4.93560533       6.98000000      10.00000000  F        4       0.00000000       0.01495622       0.00720809       0.09349672
Li       7.40340800       8.72500000      10.00000000  F        4       0.00000000       0.00731214      -0.00892302       0.08121704
Li       7.40340800       6.98000000      12.46780267  F        3       0.00000000       0.00217121      -0.00065420      -0.05899107
Li       4.93560533       8.72500000      12.46780267  F        3       0.00000000       0.01706027      -0.02710899      -0.07869123
Li       4.95520188       7.01541052      14.93444103  T        2       0.00000000      -0.01588910       0.00193019      -0.01493998
Li       7.41236711       8.72734801      14.86513850  T        2       0.00000000       0.00196626       0.00825527      -0.01412954
Li       7.34082688       7.01294944      17.23369619  T        1       0.00000000       0.00573694      -0.00600469      -0.00075564
Li       4.81828612       8.86270219      17.39818890  T        1       0.00000000       0.01076583      -0.03560512      -0.02997519
Li       9.87121067       0.00000000      10.00000000  F        4       0.00000000      -0.00063012       0.00000000       0.09031053
Li      12.33901333       1.74500000      10.00000000  F        4       0.00000000      -0.00776085       0.01087785       0.08213101
Li      12.33901333       0.00000000      12.46780267  F        3       0.00000000       0.00518152       0.00000000      -0.07009387
Li       9.87121067       1.74500000      12.46780267  F        3       0.00000000      -0.00188209       0.00197254      -0.07353641
Li       9.87020097      -0.00000000      14.87140502  T        2       0.00000000      -0.00004473       0.00000000      -0.01500678
Li      12.33045644       1.74268952      14.86368245  T        2       0.00000000      -0.00301245      -0.00830533      -0.01068444
Li      12.37281829       0.00000000      17.22822882  T        1       0.00000000      -0.02461828       0.00000000      -0.01368923
Li       9.87090077       1.74534278      17.21214870  T        1       0.00000000       0.00037257       0.00360301      -0.00129871
Li       9.87121067       3.49000000      10.00000000  F        4       0.00000000       0.00036434       0.01344453       0.06658936
Li      12.33901333       5.23500000      10.00000000  F        4       0.00000000      -0.02070116       0.00000000       0.07527531
Li      12.33901333       3.49000000      12.46780267  F        3       0.00000000      -0.00039197       0.00055877      -0.05892798
Li       9.87121067       5.23500000      12.46780267  F        3       0.00000000      -0.00168613       0.00000000      -0.07327654
Li       9.87030515       3.49316996      14.85513895  T        2       0.00000000       0.00124202       0.00568870      -0.00453854
Li      12.34560833       5.23500000      14.86984112  T        2       0.00000000      -0.00569619       0.00000000       0.00367552
Li      12.40094558       3.45656214      17.23280673  T        1       0.00000000      -0.00554679       0.00681939      -0.00055700
Li       9.87110727       5.23500000      17.22045000  T        1       0.00000000       0.00012338       0.00000000      -0.00356279
Li       9.87121067       6.98000000      10.00000000  F        4       0.00000000       0.00036434      -0.01344453       0.06658936
Li      12.33901333       8.72500000      10.00000000  F        4       0.00000000      -0.00776085      -0.01087785       0.08213101
Li      12.33901333       6.98000000      12.46780267  F        3       0.00000000      -0.00039197      -0.00055877      -0.05892798
Li       9.87121067       8.72500000      12.46780267  F        3       0.00000000      -0.00188209      -0.00197254      -0.07353641
Li       9.87030515       6.97683004      14.85513895  T        2       0.00000000       0.00124202      -0.00568870      -0.00453854
Li      12.33045644       8.72731048      14.86368245  T        2       0.00000000      -0.00301245       0.00830533      -0.01068444
Li      12.40094558       7.01343786      17.23280673  T        1       0.00000000      -0.00554679      -0.00681939      -0.00055700
Li       9.87090077       8.72465722      17.21214870  T        1       0.00000000       0.00037257      -0.00360301      -0.00129871
Li       2.46888504       0.00000000      19.32218923  T        0       0.00000000       0.00003219       0.00000000      -0.03665246
