
  ___ ___ ___ _ _ _  
 |   |   |_  | | | | 
 | | | | | . | | | | 
 |__ |  _|___|_____|  25.7.0
 |___|_|             

User:   tew@Mathuss-MacBook-Air-357.local
Date:   Wed Nov 26 04:43:48 2025
Arch:   arm64
Pid:    88448
CWD:    /Users/tew/Documents/Project/GitHub/chem-com
Python: 3.13.5
gpaw:   /Users/tew/Documents/Project/GitHub/chem-com/.venv/lib/python3.13/site-packages/gpaw
_gpaw:  /Users/tew/Documents/Project/GitHub/chem-com/.venv/lib/python3.13/site-packages/
        _gpaw.cpython-313-darwin.so
ase:    /Users/tew/Documents/Project/GitHub/chem-com/.venv/lib/python3.13/site-packages/ase (version 3.26.0)
numpy:  /Users/tew/Documents/Project/GitHub/chem-com/.venv/lib/python3.13/site-packages/numpy (version 2.3.5)
scipy:  /Users/tew/Documents/Project/GitHub/chem-com/.venv/lib/python3.13/site-packages/scipy (version 1.16.3)
libxc:  2.x.y
units:  Angstrom and eV
cores: 1
OpenMP: False
OMP_NUM_THREADS: 1

Input parameters:
  basis: dzp
  convergence: {density: 0.0001,
                eigenstates: 5e-06}
  kpts: [1 1 1]
  mode: {interpolation: 3,
         name: lcao}
  occupations: {fixmagmom: False,
                name: fermi-dirac,
                width: 0.15}
  xc: PBE

System changes: positions, numbers, cell, pbc, initial_charges, initial_magmoms 

Initialize ...

species:
  Li:
    name: Lithium
    id: 830b4218f175192f93f959cfc0aad614
    Z: 3.0
    valence: 1
    core: 2
    charge: 0.0
    file: /Users/tew/Documents/Project/GitHub/chem-com/.venv/lib/python3.13/site-packages/gpaw_data/setups/Li.PBE.gz
    compensation charges: {type: gauss,
                           rc: 0.33,
                           lmax: 2}
    cutoffs: {filter: 1.91,
              core: 2.55}
    projectors:
      #              energy  rcut
      - 2s(1.00)    -2.874   1.058
      - 2p(0.00)    -1.090   1.058
      -  s          24.337   1.058
  
    # LCAO basis set for Li:
    #   Name: dzp
    #   File: /Users/tew/Documents/Project/GitHub/chem-com/.venv/lib/python3.13/site-packages/gpaw_data/setups/Li.dzp.basis.gz
    #   Number of radial functions: 3
    #   Number of spherical harmonics: 5
    #     l=0, rc=10.8906 Bohr: 2s-sz confined orbital
    #     l=0, rc=6.6719 Bohr: 2s-dz split-valence wave
    #     l=1, rc=10.8906 Bohr: p-type Gaussian polarization
    #   Number of RI-basis functions 0

Reference energy: -14803.510878  # eV

Spin-paired calculation

Convergence criteria:
 Maximum [total energy] change in last 3 cyles: 0.0005 eV / valence electron
 Maximum integral of absolute [dens]ity change: 0.0001 electrons / valence electron
 Maximum integral of absolute [eigenst]ate change: 5e-06 eV^2 / valence electron
 Maximum number of scf [iter]ations: 333
 (Square brackets indicate name in SCF output, whereas a 'c' in
 the SCF output indicates the quantity has converged.)

Symmetries present (total): 1

  ( 1  0  0)
  ( 0  1  0)
  ( 0  0  1)

1 k-point (Gamma)
1 k-point in the irreducible part of the Brillouin zone
       k-points in crystal coordinates                weights
   0:     0.00000000    0.00000000    0.00000000          1/1

Wave functions: LCAO
  Diagonalizer: Serial LAPACK
  Atomic Correction: dense with blas
  Data-type: float
 

Occupation numbers: Fermi-Dirac:
  width: 0.1500  # eV
 

Eigensolver
   LCAO using direct dense diagonalizer 

Densities:
  Coarse grid: 76*52*136 grid
  Fine grid: 152*104*272 grid
  Total Charge: 0.000000 

Density mixing:
  Method: separate
  Backend: pulay
  Linear mixing parameter: 0.05
  old densities: 5
  Damping of long wavelength oscillations: 50 

Hamiltonian:
  XC and Coulomb potentials evaluated on a 152*104*272 grid
  Using the PBE Exchange-Correlation functional
  Interpolation: tri-quintic (5. degree polynomial)
  Poisson solver: FastPoissonSolver using
    Stencil: 6*3+1=19 point O(h^6) finite-difference Laplacian
    FFT axes: [np.int64(0), np.int64(1)]
    FST axes: [np.int64(2)]
 

XC parameters: PBE with 2 nearest neighbor stencil

Memory estimate:
  Process memory now: 3762.67 MiB
  Calculator: 680.35 MiB
    Density: 353.33 MiB
      Arrays: 106.19 MiB
      Localized functions: 206.43 MiB
      Mixer: 40.70 MiB
    Hamiltonian: 85.76 MiB
      Arrays: 69.44 MiB
      XC: 0.00 MiB
      Poisson: 0.00 MiB
      vbar: 16.32 MiB
    Wavefunctions: 241.26 MiB
      C [qnM]: 0.13 MiB
      S, T [2 x qmm]: 2.03 MiB
      P [aqMi]: 0.13 MiB
      BasisFunctions: 238.97 MiB
      Eigensolver: 0.00 MiB

Total number of cores used: 1

Number of atoms: 73
Number of atomic orbitals: 365
Number of bands in calculation: 48
Number of valence electrons: 73
Bands to converge: occupied

... initialized

Initializing position-dependent things.

Density initialized from atomic densities
       .-----------------------------------.  
      /|                                   |  
     / |                                   |  
    /  |                                   |  
   /   |                                   |  
  /    |                                   |  
 *     |                                   |  
 |     |                                   |  
 |     |                                   |  
 |     |                                   |  
 |     |                                   |  
 |     |                                   |  
 |     |                                   |  
 |    Li          Li                       |  
 |     |   Li                 Li           |  
 |     |               Li          Li      |  
 |  LiLii       Li          Li             |  
 |     | Li Li   Li  Li Li       Li Li   Li|  
 |Li   |  Li  Li          Li Li            |  
 |     Li          Li Li       Li Li       |  
 |    Li       Li Li       Li Li       Li  |  
 |     |Li Li       Li Li       Li Li      |  
 |  Li |     Li Li       Li Li             |  
 |     | Li Li       Li Li       Li Li     |  
 |Li Li|      Li Li       Li Li            |  
 |     Li Li       Li Li       Li Li       |  
 | Li  |       Li          Li              |  
 |     |Li          Li          Li         |  
 Li    |     Li          Li                |  
 |     |                                   |  
 |     |                                   |  
 |     |                                   |  
 |     |                                   |  
 |     |                                   |  
 |     .-----------------------------------.  
 |    /                                   /   
 |   /                                   /    
 |  /                                   /     
 | /                                   /      
 |/                                   /       
 *-----------------------------------*        

Atomic positions and initial magnetic moments

Positions:
   0 Li     0.000000    0.000000   10.000000    ( 0.0000,  0.0000,  0.0000)
   1 Li     2.467803    1.745000   10.000000    ( 0.0000,  0.0000,  0.0000)
   2 Li     2.467803    0.000000   12.467803    ( 0.0000,  0.0000,  0.0000)
   3 Li     0.000000    1.745000   12.467803    ( 0.0000,  0.0000,  0.0000)
   4 Li     0.007042   -0.014231   14.820299    ( 0.0000,  0.0000,  0.0000)
   5 Li     2.464222    1.822084   14.730808    ( 0.0000,  0.0000,  0.0000)
   6 Li     2.446650    0.022797   16.816944    ( 0.0000,  0.0000,  0.0000)
   7 Li     0.096900    1.629043   17.283508    ( 0.0000,  0.0000,  0.0000)
   8 Li     0.000000    3.490000   10.000000    ( 0.0000,  0.0000,  0.0000)
   9 Li     2.467803    5.235000   10.000000    ( 0.0000,  0.0000,  0.0000)
  10 Li     2.467803    3.490000   12.467803    ( 0.0000,  0.0000,  0.0000)
  11 Li     0.000000    5.235000   12.467803    ( 0.0000,  0.0000,  0.0000)
  12 Li    -0.016042    3.474613   14.901000    ( 0.0000,  0.0000,  0.0000)
  13 Li     2.471368    5.229271   14.947096    ( 0.0000,  0.0000,  0.0000)
  14 Li     2.447475    3.373555   17.339384    ( 0.0000,  0.0000,  0.0000)
  15 Li     0.045582    5.216474   17.288531    ( 0.0000,  0.0000,  0.0000)
  16 Li     0.000000    6.980000   10.000000    ( 0.0000,  0.0000,  0.0000)
  17 Li     2.467803    8.725000   10.000000    ( 0.0000,  0.0000,  0.0000)
  18 Li     2.467803    6.980000   12.467803    ( 0.0000,  0.0000,  0.0000)
  19 Li     0.000000    8.725000   12.467803    ( 0.0000,  0.0000,  0.0000)
  20 Li    -0.016042    7.009938   14.940036    ( 0.0000,  0.0000,  0.0000)
  21 Li     2.470462    8.653813   14.746012    ( 0.0000,  0.0000,  0.0000)
  22 Li     2.457098    7.074111   17.319314    ( 0.0000,  0.0000,  0.0000)
  23 Li     0.096900    8.859175   17.386641    ( 0.0000,  0.0000,  0.0000)
  24 Li     4.935605    0.000000   10.000000    ( 0.0000,  0.0000,  0.0000)
  25 Li     7.403408    1.745000   10.000000    ( 0.0000,  0.0000,  0.0000)
  26 Li     7.403408    0.000000   12.467803    ( 0.0000,  0.0000,  0.0000)
  27 Li     4.935605    1.745000   12.467803    ( 0.0000,  0.0000,  0.0000)
  28 Li     4.928983    0.000384   14.846074    ( 0.0000,  0.0000,  0.0000)
  29 Li     7.410874    1.743161   14.865983    ( 0.0000,  0.0000,  0.0000)
  30 Li     7.374079    0.000113   17.226183    ( 0.0000,  0.0000,  0.0000)
  31 Li     4.831561    1.630311   17.370010    ( 0.0000,  0.0000,  0.0000)
  32 Li     4.935605    3.490000   10.000000    ( 0.0000,  0.0000,  0.0000)
  33 Li     7.403408    5.235000   10.000000    ( 0.0000,  0.0000,  0.0000)
  34 Li     7.403408    3.490000   12.467803    ( 0.0000,  0.0000,  0.0000)
  35 Li     4.935605    5.235000   12.467803    ( 0.0000,  0.0000,  0.0000)
  36 Li     4.953618    3.460053   14.922184    ( 0.0000,  0.0000,  0.0000)
  37 Li     7.398659    5.235462   14.868296    ( 0.0000,  0.0000,  0.0000)
  38 Li     7.351257    3.462455   17.230252    ( 0.0000,  0.0000,  0.0000)
  39 Li     4.880039    5.229536   17.271625    ( 0.0000,  0.0000,  0.0000)
  40 Li     4.935605    6.980000   10.000000    ( 0.0000,  0.0000,  0.0000)
  41 Li     7.403408    8.725000   10.000000    ( 0.0000,  0.0000,  0.0000)
  42 Li     7.403408    6.980000   12.467803    ( 0.0000,  0.0000,  0.0000)
  43 Li     4.935605    8.725000   12.467803    ( 0.0000,  0.0000,  0.0000)
  44 Li     4.951009    7.009625   14.923084    ( 0.0000,  0.0000,  0.0000)
  45 Li     7.410874    8.726448   14.863165    ( 0.0000,  0.0000,  0.0000)
  46 Li     7.351257    7.007466   17.231712    ( 0.0000,  0.0000,  0.0000)
  47 Li     4.827330    8.845290   17.370553    ( 0.0000,  0.0000,  0.0000)
  48 Li     9.871211    0.000000   10.000000    ( 0.0000,  0.0000,  0.0000)
  49 Li    12.339013    1.745000   10.000000    ( 0.0000,  0.0000,  0.0000)
  50 Li    12.339013    0.000000   12.467803    ( 0.0000,  0.0000,  0.0000)
  51 Li     9.871211    1.745000   12.467803    ( 0.0000,  0.0000,  0.0000)
  52 Li     9.868711    0.000384   14.869753    ( 0.0000,  0.0000,  0.0000)
  53 Li    12.334610    1.743204   14.860141    ( 0.0000,  0.0000,  0.0000)
  54 Li    12.386149    0.022797   17.256645    ( 0.0000,  0.0000,  0.0000)
  55 Li     9.877231    1.745349   17.214976    ( 0.0000,  0.0000,  0.0000)
  56 Li     9.871211    3.490000   10.000000    ( 0.0000,  0.0000,  0.0000)
  57 Li    12.339013    5.235000   10.000000    ( 0.0000,  0.0000,  0.0000)
  58 Li    12.339013    3.490000   12.467803    ( 0.0000,  0.0000,  0.0000)
  59 Li     9.871211    5.235000   12.467803    ( 0.0000,  0.0000,  0.0000)
  60 Li     9.868774    3.492203   14.856099    ( 0.0000,  0.0000,  0.0000)
  61 Li    12.340943    5.229271   14.880722    ( 0.0000,  0.0000,  0.0000)
  62 Li    12.409526    3.439458   17.260546    ( 0.0000,  0.0000,  0.0000)
  63 Li     9.881699    5.229536   17.222442    ( 0.0000,  0.0000,  0.0000)
  64 Li     9.871211    6.980000   10.000000    ( 0.0000,  0.0000,  0.0000)
  65 Li    12.339013    8.725000   10.000000    ( 0.0000,  0.0000,  0.0000)
  66 Li    12.339013    6.980000   12.467803    ( 0.0000,  0.0000,  0.0000)
  67 Li     9.871211    8.725000   12.467803    ( 0.0000,  0.0000,  0.0000)
  68 Li     9.871382    6.977475   14.856999    ( 0.0000,  0.0000,  0.0000)
  69 Li    12.328369    8.732693   14.875344    ( 0.0000,  0.0000,  0.0000)
  70 Li    12.399903    7.008207   17.240476    ( 0.0000,  0.0000,  0.0000)
  71 Li     9.881461    8.730253   17.215519    ( 0.0000,  0.0000,  0.0000)
  72 Li     2.057404    0.290965   19.318916    ( 0.0000,  0.0000,  0.0000)

Unit cell:
           periodic     x           y           z      points  spacing
  1. axis:    yes   14.806816    0.000000    0.000000    76     0.1948
  2. axis:    yes    0.000000   10.470000    0.000000    52     0.2013
  3. axis:    no     0.000000    0.000000   27.403408   136     0.2015

  Lengths:  14.806816  10.470000  27.403408
  Angles:   90.000000  90.000000  90.000000

Effective grid spacing dv^(1/3) = 0.1992

     iter     time        total  log10-change:
                         energy   eigst   dens
iter:   1 04:44:06  -134.731291        c
iter:   2 04:44:18  -131.070721        c -0.63
iter:   3 04:44:28  -128.325662        c -0.77
iter:   4 04:44:39  -127.902579        c -0.98
iter:   5 04:44:50  -127.222885        c -1.09
iter:   6 04:45:00  -127.258152        c -1.43
iter:   7 04:45:12  -127.131658        c -1.45
iter:   8 04:45:24  -127.097051        c -1.70
iter:   9 04:45:38  -127.087115        c -1.95
iter:  10 04:45:49  -127.084210c       c -2.10
iter:  11 04:46:01  -127.082696c       c -2.27
iter:  12 04:46:14  -127.080629c       c -2.37
iter:  13 04:46:26  -127.079641c       c -2.62
iter:  14 04:46:37  -127.078461c       c -2.70
iter:  15 04:46:48  -127.078815c       c -2.83
iter:  16 04:46:59  -127.079356c       c -2.96
iter:  17 04:47:10  -127.079476c       c -3.07
iter:  18 04:47:19  -127.079541c       c -3.13
iter:  19 04:47:29  -127.079389c       c -3.26
iter:  20 04:47:39  -127.079396c       c -3.38
iter:  21 04:47:49  -127.079666c       c -3.53
iter:  22 04:47:59  -127.079759c       c -3.81
iter:  23 04:48:11  -127.079767c       c -3.95
iter:  24 04:48:24  -127.079768c       c -4.05c

Converged after 24 iterations.

Dipole moment: (-16.915784, -11.754551, 0.286153) |e|*Ang

Energy contributions relative to reference atoms: (reference = -14803.510878)

Kinetic:       +134.800647
Potential:     -115.846283
External:        +0.000000
XC:            -144.058927
Entropy (-ST):   -2.105699
Local:           -0.922356
SIC:             +0.000000
--------------------------
Free energy:   -128.132617
Extrapolated:  -127.079768

 Band  Eigenvalues  Occupancy
    0     -6.38066    2.00000
    1     -5.86927    2.00000
    2     -5.85368    2.00000
    3     -5.79593    2.00000
    4     -5.34142    2.00000
    5     -5.33478    2.00000
    6     -5.27482    2.00000
    7     -5.25235    2.00000
    8     -4.83682    1.99999
    9     -4.83005    1.99999
   10     -4.81634    1.99999
   11     -4.81126    1.99999
   12     -4.77554    1.99999
   13     -4.74564    1.99999
   14     -4.68727    1.99999
   15     -4.31970    1.99984
   16     -4.30826    1.99983
   17     -4.27084    1.99978
   18     -4.25067    1.99975
   19     -4.23737    1.99973
   20     -4.22197    1.99970
   21     -4.16198    1.99955
   22     -4.11718    1.99939
   23     -3.73029    1.99199
   24     -3.67117    1.98815
   25     -3.65222    1.98656
   26     -3.63795    1.98523
   27     -3.42934    1.94195
   28     -3.26184    1.83266
   29     -3.25687    1.82751
   30     -3.25603    1.82662
   31     -3.24875    1.81878
   32     -3.17276    1.71620
   33     -3.16431    1.70221
   34     -3.14293    1.66425
   35     -3.13638    1.65186
   36     -2.85881    0.85434
   37     -2.74666    0.52189
   38     -2.67814    0.36549
   39     -2.66670    0.34326
   40     -2.65881    0.32856
   41     -2.64754    0.30845
   42     -2.48108    0.11340
   43     -2.47731    0.11075
   44     -2.35182    0.04953
   45     -2.33230    0.04361
   46     -2.22159    0.02109
   47     -2.07804    0.00815

Fermi level: -2.90282

Gap: 0.278 eV
Transition (v -> c):
  (s=0, k=0, n=35, [0.00, 0.00, 0.00]) -> (s=0, k=0, n=36, [0.00, 0.00, 0.00])
No difference between direct/indirect transitions

Forces in eV/Ang:
  0 Li   -0.00039    0.00067    0.09335
  1 Li    0.00133   -0.00608    0.10359
  2 Li   -0.00042   -0.00548   -0.07094
  3 Li   -0.01242    0.02486   -0.08373
  4 Li   -0.02480    0.00070    0.00751
  5 Li    0.00318    0.01031    0.00953
  6 Li    0.06783   -0.05834   -0.22652
  7 Li   -0.04639    0.05470   -0.01210
  8 Li   -0.01211   -0.00720    0.09473
  9 Li    0.00407   -0.00236    0.10195
 10 Li    0.00061    0.06947   -0.13267
 11 Li   -0.00068    0.00789   -0.00734
 12 Li    0.00501   -0.00277   -0.01066
 13 Li   -0.00428   -0.00070   -0.03300
 14 Li    0.00636   -0.02839   -0.00428
 15 Li    0.00864    0.01293    0.00875
 16 Li   -0.01541    0.00645    0.09429
 17 Li    0.00156    0.00849    0.10496
 18 Li   -0.00044   -0.06168   -0.11575
 19 Li   -0.01240   -0.03475   -0.08669
 20 Li    0.01095    0.00174   -0.02076
 21 Li    0.00297   -0.00771    0.00724
 22 Li   -0.01036   -0.00531   -0.01093
 23 Li   -0.01572   -0.01908   -0.03252
 24 Li    0.00128    0.00030    0.09071
 25 Li    0.00653    0.00901    0.08201
 26 Li   -0.00555    0.00003   -0.07017
 27 Li    0.01453    0.02205   -0.07854
 28 Li    0.01333    0.00030    0.02150
 29 Li    0.00067   -0.00640   -0.01173
 30 Li    0.02340    0.00118   -0.01729
 31 Li   -0.00479    0.03769   -0.00651
 32 Li    0.01385   -0.00512    0.09016
 33 Li    0.01890    0.00223    0.07042
 34 Li    0.00218    0.00039   -0.06217
 35 Li    0.00187   -0.00003    0.00166
 36 Li   -0.01105   -0.00146   -0.01413
 37 Li    0.00380    0.00123   -0.00093
 38 Li    0.00521    0.00462   -0.00082
 39 Li   -0.00496    0.00273    0.01013
 40 Li    0.01770    0.00478    0.09118
 41 Li    0.00836   -0.01126    0.07941
 42 Li    0.00216   -0.00032   -0.06178
 43 Li    0.01509   -0.02224   -0.07846
 44 Li   -0.01000   -0.00081   -0.00528
 45 Li    0.00311    0.00474   -0.01266
 46 Li    0.00410   -0.00600   -0.00322
 47 Li    0.00877   -0.02874   -0.01736
 48 Li   -0.00252   -0.00245    0.08987
 49 Li   -0.00688    0.00836    0.08312
 50 Li    0.00152   -0.00403   -0.07308
 51 Li   -0.00025    0.00224   -0.07248
 52 Li   -0.00048    0.00190   -0.01216
 53 Li    0.00451   -0.00614    0.01269
 54 Li   -0.03406   -0.01944   -0.01612
 55 Li   -0.00657    0.00251   -0.00656
 56 Li   -0.00238    0.01387    0.06927
 57 Li   -0.02176    0.00094    0.07842
 58 Li   -0.00194    0.00442   -0.06255
 59 Li   -0.00200   -0.00007   -0.07139
 60 Li    0.00172    0.00312   -0.00558
 61 Li   -0.00305    0.00186    0.00211
 62 Li   -0.02309    0.02180   -0.02219
 63 Li   -0.00016    0.00313   -0.00393
 64 Li   -0.00316   -0.01133    0.06520
 65 Li   -0.00905   -0.00930    0.08200
 66 Li   -0.00069    0.00004   -0.04642
 67 Li   -0.00177   -0.00196   -0.07215
 68 Li   -0.00021   -0.00475   -0.00335
 69 Li    0.00078    0.00623   -0.01026
 70 Li   -0.00542   -0.00500   -0.00130
 71 Li   -0.00075   -0.00403   -0.00137
 72 Li    0.02490    0.03162    0.12406

System changes: positions 

Initializing position-dependent things.

Density initialized from wave functions
       .-----------------------------------.  
      /|                                   |  
     / |                                   |  
    /  |                                   |  
   /   |                                   |  
  /    |                                   |  
 *     |                                   |  
 |     |                                   |  
 |     |                                   |  
 |     |                                   |  
 |     |                                   |  
 |     |                                   |  
 |     |                                   |  
 |    Li          Li                       |  
 |     |   Li                 Li           |  
 |     |               Li          Li      |  
 |  LiLii       Li          Li             |  
 |     | Li Li   Li  Li Li       Li Li   Li|  
 |Li   |  Li  Li          Li Li            |  
 |     Li          Li Li       Li Li       |  
 |    Li       Li Li       Li Li       Li  |  
 |     |Li Li       Li Li       Li Li      |  
 |  Li |     Li Li       Li Li             |  
 |     | Li Li       Li Li       Li Li     |  
 |Li Li|      Li Li       Li Li            |  
 |     Li Li       Li Li       Li Li       |  
 | Li  |       Li          Li              |  
 |     |Li          Li          Li         |  
 Li    |     Li          Li                |  
 |     |                                   |  
 |     |                                   |  
 |     |                                   |  
 |     |                                   |  
 |     |                                   |  
 |     .-----------------------------------.  
 |    /                                   /   
 |   /                                   /    
 |  /                                   /     
 | /                                   /      
 |/                                   /       
 *-----------------------------------*        

Atomic positions and initial magnetic moments

Positions:
   0 Li     0.000000    0.000000   10.000000    ( 0.0000,  0.0000,  0.0000)
   1 Li     2.467803    1.745000   10.000000    ( 0.0000,  0.0000,  0.0000)
   2 Li     2.467803    0.000000   12.467803    ( 0.0000,  0.0000,  0.0000)
   3 Li     0.000000    1.745000   12.467803    ( 0.0000,  0.0000,  0.0000)
   4 Li     0.006792   -0.014237   14.820357    ( 0.0000,  0.0000,  0.0000)
   5 Li     2.464251    1.822174   14.730923    ( 0.0000,  0.0000,  0.0000)
   6 Li     2.447312    0.022234   16.814779    ( 0.0000,  0.0000,  0.0000)
   7 Li     0.096420    1.629610   17.283287    ( 0.0000,  0.0000,  0.0000)
   8 Li     0.000000    3.490000   10.000000    ( 0.0000,  0.0000,  0.0000)
   9 Li     2.467803    5.235000   10.000000    ( 0.0000,  0.0000,  0.0000)
  10 Li     2.467803    3.490000   12.467803    ( 0.0000,  0.0000,  0.0000)
  11 Li     0.000000    5.235000   12.467803    ( 0.0000,  0.0000,  0.0000)
  12 Li    -0.015990    3.474603   14.900862    ( 0.0000,  0.0000,  0.0000)
  13 Li     2.471328    5.229259   14.946764    ( 0.0000,  0.0000,  0.0000)
  14 Li     2.447522    3.373267   17.339351    ( 0.0000,  0.0000,  0.0000)
  15 Li     0.045660    5.216588   17.288626    ( 0.0000,  0.0000,  0.0000)
  16 Li     0.000000    6.980000   10.000000    ( 0.0000,  0.0000,  0.0000)
  17 Li     2.467803    8.725000   10.000000    ( 0.0000,  0.0000,  0.0000)
  18 Li     2.467803    6.980000   12.467803    ( 0.0000,  0.0000,  0.0000)
  19 Li     0.000000    8.725000   12.467803    ( 0.0000,  0.0000,  0.0000)
  20 Li    -0.015930    7.009950   14.939831    ( 0.0000,  0.0000,  0.0000)
  21 Li     2.470495    8.653754   14.746117    ( 0.0000,  0.0000,  0.0000)
  22 Li     2.456986    7.074042   17.319197    ( 0.0000,  0.0000,  0.0000)
  23 Li     0.096726    8.858981   17.386305    ( 0.0000,  0.0000,  0.0000)
  24 Li     4.935605    0.000000   10.000000    ( 0.0000,  0.0000,  0.0000)
  25 Li     7.403408    1.745000   10.000000    ( 0.0000,  0.0000,  0.0000)
  26 Li     7.403408    0.000000   12.467803    ( 0.0000,  0.0000,  0.0000)
  27 Li     4.935605    1.745000   12.467803    ( 0.0000,  0.0000,  0.0000)
  28 Li     4.929119    0.000388   14.846292    ( 0.0000,  0.0000,  0.0000)
  29 Li     7.410879    1.743097   14.865866    ( 0.0000,  0.0000,  0.0000)
  30 Li     7.374318    0.000125   17.226008    ( 0.0000,  0.0000,  0.0000)
  31 Li     4.831525    1.630708   17.369920    ( 0.0000,  0.0000,  0.0000)
  32 Li     4.935605    3.490000   10.000000    ( 0.0000,  0.0000,  0.0000)
  33 Li     7.403408    5.235000   10.000000    ( 0.0000,  0.0000,  0.0000)
  34 Li     7.403408    3.490000   12.467803    ( 0.0000,  0.0000,  0.0000)
  35 Li     4.935605    5.235000   12.467803    ( 0.0000,  0.0000,  0.0000)
  36 Li     4.953506    3.460043   14.922032    ( 0.0000,  0.0000,  0.0000)
  37 Li     7.398698    5.235475   14.868284    ( 0.0000,  0.0000,  0.0000)
  38 Li     7.351318    3.462506   17.230241    ( 0.0000,  0.0000,  0.0000)
  39 Li     4.879988    5.229559   17.271720    ( 0.0000,  0.0000,  0.0000)
  40 Li     4.935605    6.980000   10.000000    ( 0.0000,  0.0000,  0.0000)
  41 Li     7.403408    8.725000   10.000000    ( 0.0000,  0.0000,  0.0000)
  42 Li     7.403408    6.980000   12.467803    ( 0.0000,  0.0000,  0.0000)
  43 Li     4.935605    8.725000   12.467803    ( 0.0000,  0.0000,  0.0000)
  44 Li     4.950906    7.009612   14.923021    ( 0.0000,  0.0000,  0.0000)
  45 Li     7.410904    8.726494   14.863037    ( 0.0000,  0.0000,  0.0000)
  46 Li     7.351307    7.007401   17.231678    ( 0.0000,  0.0000,  0.0000)
  47 Li     4.827426    8.844988   17.370355    ( 0.0000,  0.0000,  0.0000)
  48 Li     9.871211    0.000000   10.000000    ( 0.0000,  0.0000,  0.0000)
  49 Li    12.339013    1.745000   10.000000    ( 0.0000,  0.0000,  0.0000)
  50 Li    12.339013    0.000000   12.467803    ( 0.0000,  0.0000,  0.0000)
  51 Li     9.871211    1.745000   12.467803    ( 0.0000,  0.0000,  0.0000)
  52 Li     9.868705    0.000404   14.869630    ( 0.0000,  0.0000,  0.0000)
  53 Li    12.334658    1.743143   14.860264    ( 0.0000,  0.0000,  0.0000)
  54 Li    12.385820    0.022623   17.256508    ( 0.0000,  0.0000,  0.0000)
  55 Li     9.877170    1.745374   17.214913    ( 0.0000,  0.0000,  0.0000)
  56 Li     9.871211    3.490000   10.000000    ( 0.0000,  0.0000,  0.0000)
  57 Li    12.339013    5.235000   10.000000    ( 0.0000,  0.0000,  0.0000)
  58 Li    12.339013    3.490000   12.467803    ( 0.0000,  0.0000,  0.0000)
  59 Li     9.871211    5.235000   12.467803    ( 0.0000,  0.0000,  0.0000)
  60 Li     9.868789    3.492234   14.856044    ( 0.0000,  0.0000,  0.0000)
  61 Li    12.340909    5.229285   14.880752    ( 0.0000,  0.0000,  0.0000)
  62 Li    12.409303    3.439661   17.260348    ( 0.0000,  0.0000,  0.0000)
  63 Li     9.881707    5.229563   17.222404    ( 0.0000,  0.0000,  0.0000)
  64 Li     9.871211    6.980000   10.000000    ( 0.0000,  0.0000,  0.0000)
  65 Li    12.339013    8.725000   10.000000    ( 0.0000,  0.0000,  0.0000)
  66 Li    12.339013    6.980000   12.467803    ( 0.0000,  0.0000,  0.0000)
  67 Li     9.871211    8.725000   12.467803    ( 0.0000,  0.0000,  0.0000)
  68 Li     9.871381    6.977428   14.856967    ( 0.0000,  0.0000,  0.0000)
  69 Li    12.328375    8.732760   14.875252    ( 0.0000,  0.0000,  0.0000)
  70 Li    12.399848    7.008153   17.240470    ( 0.0000,  0.0000,  0.0000)
  71 Li     9.881463    8.730217   17.215508    ( 0.0000,  0.0000,  0.0000)
  72 Li     2.057297    0.291533   19.320154    ( 0.0000,  0.0000,  0.0000)

Unit cell:
           periodic     x           y           z      points  spacing
  1. axis:    yes   14.806816    0.000000    0.000000    76     0.1948
  2. axis:    yes    0.000000   10.470000    0.000000    52     0.2013
  3. axis:    no     0.000000    0.000000   27.403408   136     0.2015

  Lengths:  14.806816  10.470000  27.403408
  Angles:   90.000000  90.000000  90.000000

Effective grid spacing dv^(1/3) = 0.1992

     iter     time        total  log10-change:
                         energy   eigst   dens
iter:   1 05:08:21  -127.080365        c
iter:   2 05:08:32  -127.080509        c -3.68
iter:   3 05:08:44  -127.080682c       c -3.92
iter:   4 05:08:55  -127.080694c       c -4.31c

Converged after 4 iterations.

Dipole moment: (-16.907022, -11.745828, 0.287282) |e|*Ang

Energy contributions relative to reference atoms: (reference = -14803.510878)

Kinetic:       +134.770849
Potential:     -115.841062
External:        +0.000000
XC:            -144.052719
Entropy (-ST):   -2.105701
Local:           -0.904911
SIC:             +0.000000
--------------------------
Free energy:   -128.133544
Extrapolated:  -127.080694

 Band  Eigenvalues  Occupancy
    0     -6.38026    2.00000
    1     -5.86884    2.00000
    2     -5.85329    2.00000
    3     -5.79550    2.00000
    4     -5.34100    2.00000
    5     -5.33439    2.00000
    6     -5.27438    2.00000
    7     -5.25192    2.00000
    8     -4.83638    1.99999
    9     -4.82965    1.99999
   10     -4.81593    1.99999
   11     -4.81088    1.99999
   12     -4.77512    1.99999
   13     -4.74522    1.99999
   14     -4.68684    1.99999
   15     -4.31929    1.99984
   16     -4.30786    1.99983
   17     -4.27040    1.99978
   18     -4.25023    1.99975
   19     -4.23691    1.99973
   20     -4.22157    1.99970
   21     -4.16156    1.99955
   22     -4.11671    1.99939
   23     -3.72988    1.99199
   24     -3.67071    1.98815
   25     -3.65180    1.98656
   26     -3.63747    1.98523
   27     -3.42894    1.94196
   28     -3.26143    1.83269
   29     -3.25647    1.82755
   30     -3.25561    1.82665
   31     -3.24837    1.81885
   32     -3.17232    1.71621
   33     -3.16381    1.70211
   34     -3.14245    1.66418
   35     -3.13594    1.65187
   36     -2.85837    0.85437
   37     -2.74613    0.52168
   38     -2.67769    0.36548
   39     -2.66623    0.34321
   40     -2.65837    0.32857
   41     -2.64718    0.30859
   42     -2.48060    0.11338
   43     -2.47687    0.11074
   44     -2.35149    0.04956
   45     -2.33197    0.04365
   46     -2.22117    0.02109
   47     -2.07768    0.00816

Fermi level: -2.90238

Gap: 0.278 eV
Transition (v -> c):
  (s=0, k=0, n=35, [0.00, 0.00, 0.00]) -> (s=0, k=0, n=36, [0.00, 0.00, 0.00])
No difference between direct/indirect transitions

Forces in eV/Ang:
  0 Li   -0.00042    0.00073    0.09312
  1 Li    0.00135   -0.00632    0.10339
  2 Li   -0.00040   -0.00548   -0.07005
  3 Li   -0.01255    0.02489   -0.08352
  4 Li   -0.02434    0.00076    0.00684
  5 Li    0.00304    0.01052    0.00835
  6 Li    0.06604   -0.05701   -0.21876
  7 Li   -0.04509    0.05338   -0.01177
  8 Li   -0.01221   -0.00738    0.09494
  9 Li    0.00410   -0.00238    0.10233
 10 Li    0.00064    0.06964   -0.13260
 11 Li   -0.00084    0.00794   -0.00749
 12 Li    0.00508   -0.00261   -0.01068
 13 Li   -0.00430   -0.00080   -0.03268
 14 Li    0.00610   -0.02798   -0.00432
 15 Li    0.00854    0.01263    0.00874
 16 Li   -0.01550    0.00657    0.09459
 17 Li    0.00160    0.00876    0.10484
 18 Li   -0.00041   -0.06182   -0.11576
 19 Li   -0.01254   -0.03485   -0.08656
 20 Li    0.01100    0.00175   -0.02064
 21 Li    0.00289   -0.00830    0.00593
 22 Li   -0.01021   -0.00545   -0.01095
 23 Li   -0.01514   -0.01835   -0.03241
 24 Li    0.00130    0.00033    0.09052
 25 Li    0.00645    0.00899    0.08208
 26 Li   -0.00523    0.00006   -0.07025
 27 Li    0.01471    0.02208   -0.07841
 28 Li    0.01315    0.00033    0.02072
 29 Li    0.00076   -0.00625   -0.01185
 30 Li    0.02310    0.00118   -0.01716
 31 Li   -0.00485    0.03696   -0.00654
 32 Li    0.01395   -0.00525    0.09036
 33 Li    0.01901    0.00223    0.07050
 34 Li    0.00219    0.00040   -0.06206
 35 Li    0.00201    0.00001    0.00156
 36 Li   -0.01110   -0.00143   -0.01403
 37 Li    0.00359    0.00118   -0.00123
 38 Li    0.00514    0.00470   -0.00075
 39 Li   -0.00503    0.00262    0.01017
 40 Li    0.01784    0.00488    0.09143
 41 Li    0.00831   -0.01124    0.07947
 42 Li    0.00214   -0.00037   -0.06169
 43 Li    0.01525   -0.02232   -0.07837
 44 Li   -0.01015   -0.00075   -0.00527
 45 Li    0.00323    0.00464   -0.01276
 46 Li    0.00411   -0.00604   -0.00309
 47 Li    0.00874   -0.02841   -0.01729
 48 Li   -0.00247   -0.00245    0.09002
 49 Li   -0.00683    0.00829    0.08313
 50 Li    0.00122   -0.00401   -0.07318
 51 Li   -0.00031    0.00211   -0.07240
 52 Li   -0.00056    0.00187   -0.01223
 53 Li    0.00455   -0.00611    0.01248
 54 Li   -0.03393   -0.01922   -0.01602
 55 Li   -0.00644    0.00251   -0.00654
 56 Li   -0.00238    0.01389    0.06929
 57 Li   -0.02193    0.00092    0.07864
 58 Li   -0.00201    0.00452   -0.06249
 59 Li   -0.00197   -0.00007   -0.07133
 60 Li    0.00162    0.00295   -0.00573
 61 Li   -0.00276    0.00191    0.00173
 62 Li   -0.02292    0.02180   -0.02194
 63 Li   -0.00027    0.00315   -0.00371
 64 Li   -0.00318   -0.01134    0.06521
 65 Li   -0.00904   -0.00921    0.08208
 66 Li   -0.00072   -0.00007   -0.04640
 67 Li   -0.00179   -0.00182   -0.07206
 68 Li   -0.00022   -0.00456   -0.00353
 69 Li    0.00079    0.00610   -0.01025
 70 Li   -0.00535   -0.00499   -0.00119
 71 Li   -0.00080   -0.00408   -0.00141
 72 Li    0.02506    0.03142    0.11766

System changes: positions 

Initializing position-dependent things.

Density initialized from wave functions
       .-----------------------------------.  
      /|                                   |  
     / |                                   |  
    /  |                                   |  
   /   |                                   |  
  /    |                                   |  
 *     |                                   |  
 |     |                                   |  
 |     |                                   |  
 |     |                                   |  
 |     |                                   |  
 |     |                                   |  
 |     |                                   |  
 |    Li          Li                       |  
 |     |   Li                 Li           |  
 |     |               Li          Li      |  
 |  LiLii       Li          Li             |  
 |     | Li Li   Li  Li Li       Li Li   Li|  
 |Li   |  Li  Li          Li Li            |  
 |     Li          Li Li       Li Li       |  
 |    Li       Li Li       Li Li       Li  |  
 |     |Li Li       Li Li       Li Li      |  
 |  Li |     Li Li       Li Li             |  
 |     | Li Li       Li Li       Li Li     |  
 |Li Li|      Li Li       Li Li            |  
 |     Li Li       Li Li       Li Li       |  
 | Li  |       Li          Li              |  
 |     |Li          Li          Li         |  
 Li    |     Li          Li                |  
 |     |                                   |  
 |     |                                   |  
 |     |                                   |  
 |     |                                   |  
 |     |                                   |  
 |     .-----------------------------------.  
 |    /                                   /   
 |   /                                   /    
 |  /                                   /     
 | /                                   /      
 |/                                   /       
 *-----------------------------------*        

Atomic positions and initial magnetic moments

Positions:
   0 Li     0.000000    0.000000   10.000000    ( 0.0000,  0.0000,  0.0000)
   1 Li     2.467803    1.745000   10.000000    ( 0.0000,  0.0000,  0.0000)
   2 Li     2.467803    0.000000   12.467803    ( 0.0000,  0.0000,  0.0000)
   3 Li     0.000000    1.745000   12.467803    ( 0.0000,  0.0000,  0.0000)
   4 Li     0.006298   -0.014246   14.820465    ( 0.0000,  0.0000,  0.0000)
   5 Li     2.464309    1.822357   14.731139    ( 0.0000,  0.0000,  0.0000)
   6 Li     2.448620    0.021117   16.810523    ( 0.0000,  0.0000,  0.0000)
   7 Li     0.095471    1.630730   17.282853    ( 0.0000,  0.0000,  0.0000)
   8 Li     0.000000    3.490000   10.000000    ( 0.0000,  0.0000,  0.0000)
   9 Li     2.467803    5.235000   10.000000    ( 0.0000,  0.0000,  0.0000)
  10 Li     2.467803    3.490000   12.467803    ( 0.0000,  0.0000,  0.0000)
  11 Li     0.000000    5.235000   12.467803    ( 0.0000,  0.0000,  0.0000)
  12 Li    -0.015883    3.474583   14.900586    ( 0.0000,  0.0000,  0.0000)
  13 Li     2.471248    5.229234   14.946102    ( 0.0000,  0.0000,  0.0000)
  14 Li     2.447615    3.372696   17.339285    ( 0.0000,  0.0000,  0.0000)
  15 Li     0.045817    5.216812   17.288814    ( 0.0000,  0.0000,  0.0000)
  16 Li     0.000000    6.980000   10.000000    ( 0.0000,  0.0000,  0.0000)
  17 Li     2.467803    8.725000   10.000000    ( 0.0000,  0.0000,  0.0000)
  18 Li     2.467803    6.980000   12.467803    ( 0.0000,  0.0000,  0.0000)
  19 Li     0.000000    8.725000   12.467803    ( 0.0000,  0.0000,  0.0000)
  20 Li    -0.015705    7.009976   14.939421    ( 0.0000,  0.0000,  0.0000)
  21 Li     2.470560    8.653629   14.746311    ( 0.0000,  0.0000,  0.0000)
  22 Li     2.456765    7.073902   17.318964    ( 0.0000,  0.0000,  0.0000)
  23 Li     0.096385    8.858599   17.385634    ( 0.0000,  0.0000,  0.0000)
  24 Li     4.935605    0.000000   10.000000    ( 0.0000,  0.0000,  0.0000)
  25 Li     7.403408    1.745000   10.000000    ( 0.0000,  0.0000,  0.0000)
  26 Li     7.403408    0.000000   12.467803    ( 0.0000,  0.0000,  0.0000)
  27 Li     4.935605    1.745000   12.467803    ( 0.0000,  0.0000,  0.0000)
  28 Li     4.929390    0.000395   14.846719    ( 0.0000,  0.0000,  0.0000)
  29 Li     7.410891    1.742971   14.865631    ( 0.0000,  0.0000,  0.0000)
  30 Li     7.374793    0.000149   17.225658    ( 0.0000,  0.0000,  0.0000)
  31 Li     4.831451    1.631494   17.369742    ( 0.0000,  0.0000,  0.0000)
  32 Li     4.935605    3.490000   10.000000    ( 0.0000,  0.0000,  0.0000)
  33 Li     7.403408    5.235000   10.000000    ( 0.0000,  0.0000,  0.0000)
  34 Li     7.403408    3.490000   12.467803    ( 0.0000,  0.0000,  0.0000)
  35 Li     4.935605    5.235000   12.467803    ( 0.0000,  0.0000,  0.0000)
  36 Li     4.953282    3.460023   14.921729    ( 0.0000,  0.0000,  0.0000)
  37 Li     7.398774    5.235499   14.868257    ( 0.0000,  0.0000,  0.0000)
  38 Li     7.351440    3.462608   17.230220    ( 0.0000,  0.0000,  0.0000)
  39 Li     4.879885    5.229603   17.271910    ( 0.0000,  0.0000,  0.0000)
  40 Li     4.935605    6.980000   10.000000    ( 0.0000,  0.0000,  0.0000)
  41 Li     7.403408    8.725000   10.000000    ( 0.0000,  0.0000,  0.0000)
  42 Li     7.403408    6.980000   12.467803    ( 0.0000,  0.0000,  0.0000)
  43 Li     4.935605    8.725000   12.467803    ( 0.0000,  0.0000,  0.0000)
  44 Li     4.950697    7.009587   14.922896    ( 0.0000,  0.0000,  0.0000)
  45 Li     7.410965    8.726587   14.862779    ( 0.0000,  0.0000,  0.0000)
  46 Li     7.351407    7.007271   17.231611    ( 0.0000,  0.0000,  0.0000)
  47 Li     4.827617    8.844386   17.369961    ( 0.0000,  0.0000,  0.0000)
  48 Li     9.871211    0.000000   10.000000    ( 0.0000,  0.0000,  0.0000)
  49 Li    12.339013    1.745000   10.000000    ( 0.0000,  0.0000,  0.0000)
  50 Li    12.339013    0.000000   12.467803    ( 0.0000,  0.0000,  0.0000)
  51 Li     9.871211    1.745000   12.467803    ( 0.0000,  0.0000,  0.0000)
  52 Li     9.868692    0.000442   14.869383    ( 0.0000,  0.0000,  0.0000)
  53 Li    12.334756    1.743021   14.860510    ( 0.0000,  0.0000,  0.0000)
  54 Li    12.385161    0.022274   17.256234    ( 0.0000,  0.0000,  0.0000)
  55 Li     9.877051    1.745424   17.214787    ( 0.0000,  0.0000,  0.0000)
  56 Li     9.871211    3.490000   10.000000    ( 0.0000,  0.0000,  0.0000)
  57 Li    12.339013    5.235000   10.000000    ( 0.0000,  0.0000,  0.0000)
  58 Li    12.339013    3.490000   12.467803    ( 0.0000,  0.0000,  0.0000)
  59 Li     9.871211    5.235000   12.467803    ( 0.0000,  0.0000,  0.0000)
  60 Li     9.868820    3.492293   14.855932    ( 0.0000,  0.0000,  0.0000)
  61 Li    12.340843    5.229313   14.880809    ( 0.0000,  0.0000,  0.0000)
  62 Li    12.408856    3.440069   17.259953    ( 0.0000,  0.0000,  0.0000)
  63 Li     9.881720    5.229617   17.222331    ( 0.0000,  0.0000,  0.0000)
  64 Li     9.871211    6.980000   10.000000    ( 0.0000,  0.0000,  0.0000)
  65 Li    12.339013    8.725000   10.000000    ( 0.0000,  0.0000,  0.0000)
  66 Li    12.339013    6.980000   12.467803    ( 0.0000,  0.0000,  0.0000)
  67 Li     9.871211    8.725000   12.467803    ( 0.0000,  0.0000,  0.0000)
  68 Li     9.871379    6.977336   14.856901    ( 0.0000,  0.0000,  0.0000)
  69 Li    12.328388    8.732893   14.875066    ( 0.0000,  0.0000,  0.0000)
  70 Li    12.399739    7.008044   17.240458    ( 0.0000,  0.0000,  0.0000)
  71 Li     9.881465    8.730145   17.215486    ( 0.0000,  0.0000,  0.0000)
  72 Li     2.057099    0.292658   19.322564    ( 0.0000,  0.0000,  0.0000)

Unit cell:
           periodic     x           y           z      points  spacing
  1. axis:    yes   14.806816    0.000000    0.000000    76     0.1948
  2. axis:    yes    0.000000   10.470000    0.000000    52     0.2013
  3. axis:    no     0.000000    0.000000   27.403408   136     0.2015

  Lengths:  14.806816  10.470000  27.403408
  Angles:   90.000000  90.000000  90.000000

Effective grid spacing dv^(1/3) = 0.1992

     iter     time        total  log10-change:
                         energy   eigst   dens
iter:   1 05:15:24  -127.082029        c
iter:   2 05:15:36  -127.082210        c -3.54
iter:   3 05:15:48  -127.082419c       c -3.78
iter:   4 05:15:59  -127.082452c       c -4.25c

Converged after 4 iterations.

Dipole moment: (-16.888739, -11.728672, 0.288233) |e|*Ang

Energy contributions relative to reference atoms: (reference = -14803.510878)

Kinetic:       +134.759573
Potential:     -115.834130
External:        +0.000000
XC:            -144.049798
Entropy (-ST):   -2.105651
Local:           -0.905271
SIC:             +0.000000
--------------------------
Free energy:   -128.135278
Extrapolated:  -127.082452

 Band  Eigenvalues  Occupancy
    0     -6.38004    2.00000
    1     -5.86868    2.00000
    2     -5.85303    2.00000
    3     -5.79522    2.00000
    4     -5.34079    2.00000
    5     -5.33418    2.00000
    6     -5.27411    2.00000
    7     -5.25164    2.00000
    8     -4.83620    1.99999
    9     -4.82947    1.99999
   10     -4.81567    1.99999
   11     -4.81063    1.99999
   12     -4.77472    1.99999
   13     -4.74497    1.99999
   14     -4.68661    1.99999
   15     -4.31908    1.99984
   16     -4.30763    1.99983
   17     -4.27008    1.99978
   18     -4.24995    1.99975
   19     -4.23657    1.99973
   20     -4.22133    1.99970
   21     -4.16137    1.99955
   22     -4.11636    1.99939
   23     -3.72957    1.99199
   24     -3.67040    1.98815
   25     -3.65157    1.98657
   26     -3.63707    1.98522
   27     -3.42867    1.94198
   28     -3.26118    1.83276
   29     -3.25626    1.82766
   30     -3.25538    1.82673
   31     -3.24814    1.81894
   32     -3.17210    1.71635
   33     -3.16339    1.70193
   34     -3.14206    1.66403
   35     -3.13562    1.65185
   36     -2.85807    0.85439
   37     -2.74561    0.52113
   38     -2.67738    0.36548
   39     -2.66589    0.34314
   40     -2.65811    0.32865
   41     -2.64706    0.30892
   42     -2.48025    0.11335
   43     -2.47655    0.11074
   44     -2.35140    0.04963
   45     -2.33170    0.04366
   46     -2.22078    0.02108
   47     -2.07751    0.00816

Fermi level: -2.90207

Gap: 0.278 eV
Transition (v -> c):
  (s=0, k=0, n=35, [0.00, 0.00, 0.00]) -> (s=0, k=0, n=36, [0.00, 0.00, 0.00])
No difference between direct/indirect transitions

Forces in eV/Ang:
  0 Li   -0.00043    0.00070    0.09336
  1 Li    0.00135   -0.00617    0.10365
  2 Li   -0.00040   -0.00543   -0.06952
  3 Li   -0.01250    0.02473   -0.08356
  4 Li   -0.02423    0.00088    0.00599
  5 Li    0.00285    0.01156    0.00615
  6 Li    0.06216   -0.05432   -0.20322
  7 Li   -0.04301    0.05088   -0.01107
  8 Li   -0.01214   -0.00731    0.09495
  9 Li    0.00407   -0.00238    0.10215
 10 Li    0.00062    0.06942   -0.13288
 11 Li   -0.00072    0.00791   -0.00773
 12 Li    0.00477   -0.00219   -0.01048
 13 Li   -0.00424   -0.00096   -0.03172
 14 Li    0.00563   -0.02688   -0.00441
 15 Li    0.00839    0.01213    0.00842
 16 Li   -0.01544    0.00652    0.09450
 17 Li    0.00159    0.00861    0.10504
 18 Li   -0.00044   -0.06161   -0.11603
 19 Li   -0.01248   -0.03465   -0.08668
 20 Li    0.01062    0.00167   -0.02011
 21 Li    0.00279   -0.01022    0.00319
 22 Li   -0.00995   -0.00577   -0.01097
 23 Li   -0.01445   -0.01725   -0.03180
 24 Li    0.00134    0.00033    0.09070
 25 Li    0.00652    0.00897    0.08200
 26 Li   -0.00537    0.00005   -0.07053
 27 Li    0.01463    0.02184   -0.07835
 28 Li    0.01390    0.00037    0.01919
 29 Li    0.00067   -0.00583   -0.01154
 30 Li    0.02217    0.00120   -0.01693
 31 Li   -0.00424    0.03564   -0.00625
 32 Li    0.01388   -0.00522    0.09035
 33 Li    0.01901    0.00223    0.07037
 34 Li    0.00216    0.00036   -0.06204
 35 Li    0.00193    0.00001    0.00144
 36 Li   -0.01071   -0.00127   -0.01351
 37 Li    0.00341    0.00113   -0.00120
 38 Li    0.00494    0.00463   -0.00097
 39 Li   -0.00512    0.00239    0.00987
 40 Li    0.01778    0.00485    0.09137
 41 Li    0.00838   -0.01123    0.07940
 42 Li    0.00213   -0.00032   -0.06168
 43 Li    0.01522   -0.02210   -0.07826
 44 Li   -0.00985   -0.00072   -0.00503
 45 Li    0.00312    0.00428   -0.01241
 46 Li    0.00403   -0.00589   -0.00329
 47 Li    0.00929   -0.02796   -0.01681
 48 Li   -0.00251   -0.00246    0.08981
 49 Li   -0.00688    0.00830    0.08310
 50 Li    0.00135   -0.00390   -0.07323
 51 Li   -0.00023    0.00222   -0.07254
 52 Li   -0.00050    0.00181   -0.01180
 53 Li    0.00442   -0.00584    0.01209
 54 Li   -0.03336   -0.01886   -0.01574
 55 Li   -0.00628    0.00269   -0.00663
 56 Li   -0.00242    0.01382    0.06923
 57 Li   -0.02192    0.00094    0.07848
 58 Li   -0.00202    0.00433   -0.06224
 59 Li   -0.00201   -0.00006   -0.07135
 60 Li    0.00163    0.00293   -0.00550
 61 Li   -0.00264    0.00199    0.00151
 62 Li   -0.02270    0.02166   -0.02174
 63 Li   -0.00041    0.00314   -0.00390
 64 Li   -0.00320   -0.01126    0.06514
 65 Li   -0.00907   -0.00924    0.08203
 66 Li   -0.00071    0.00002   -0.04634
 67 Li   -0.00175   -0.00194   -0.07222
 68 Li   -0.00015   -0.00446   -0.00338
 69 Li    0.00075    0.00564   -0.00999
 70 Li   -0.00520   -0.00479   -0.00142
 71 Li   -0.00097   -0.00430   -0.00162
 72 Li    0.02553    0.03085    0.10700

System changes: positions 

Initializing position-dependent things.

Density initialized from wave functions
       .-----------------------------------.  
      /|                                   |  
     / |                                   |  
    /  |                                   |  
   /   |                                   |  
  /    |                                   |  
 *     |                                   |  
 |     |                                   |  
 |     |                                   |  
 |     |                                   |  
 |     |                                   |  
 |     |                                   |  
 |     |                                   |  
 |    Li          Li                       |  
 |     |   Li                 Li           |  
 |     |               Li          Li      |  
 |  LiLii       Li          Li             |  
 |     | Li Li   Li  Li Li       Li Li   Li|  
 |Li   |  Li  Li          Li Li            |  
 |     Li          Li Li       Li Li       |  
 |    Li       Li Li       Li Li       Li  |  
 |     |Li Li       Li Li       Li Li      |  
 |  Li |     Li Li       Li Li             |  
 |     | Li Li       Li Li       Li Li     |  
 |Li Li|      Li Li       Li Li            |  
 |     Li Li       Li Li       Li Li       |  
 | Li  |       Li          Li              |  
 |     |Li          Li          Li         |  
 Li    |     Li          Li                |  
 |     |                                   |  
 |     |                                   |  
 |     |                                   |  
 |     |                                   |  
 |     |                                   |  
 |     .-----------------------------------.  
 |    /                                   /   
 |   /                                   /    
 |  /                                   /     
 | /                                   /      
 |/                                   /       
 *-----------------------------------*        

Atomic positions and initial magnetic moments

Positions:
   0 Li     0.000000    0.000000   10.000000    ( 0.0000,  0.0000,  0.0000)
   1 Li     2.467803    1.745000   10.000000    ( 0.0000,  0.0000,  0.0000)
   2 Li     2.467803    0.000000   12.467803    ( 0.0000,  0.0000,  0.0000)
   3 Li     0.000000    1.745000   12.467803    ( 0.0000,  0.0000,  0.0000)
   4 Li     0.005557   -0.014257   14.820616    ( 0.0000,  0.0000,  0.0000)
   5 Li     2.464394    1.822648   14.731429    ( 0.0000,  0.0000,  0.0000)
   6 Li     2.450540    0.019471   16.804322    ( 0.0000,  0.0000,  0.0000)
   7 Li     0.094073    1.632381   17.282218    ( 0.0000,  0.0000,  0.0000)
   8 Li     0.000000    3.490000   10.000000    ( 0.0000,  0.0000,  0.0000)
   9 Li     2.467803    5.235000   10.000000    ( 0.0000,  0.0000,  0.0000)
  10 Li     2.467803    3.490000   12.467803    ( 0.0000,  0.0000,  0.0000)
  11 Li     0.000000    5.235000   12.467803    ( 0.0000,  0.0000,  0.0000)
  12 Li    -0.015726    3.474558   14.900177    ( 0.0000,  0.0000,  0.0000)
  13 Li     2.471128    5.229195   14.945118    ( 0.0000,  0.0000,  0.0000)
  14 Li     2.447750    3.371851   17.339183    ( 0.0000,  0.0000,  0.0000)
  15 Li     0.046051    5.217145   17.289093    ( 0.0000,  0.0000,  0.0000)
  16 Li     0.000000    6.980000   10.000000    ( 0.0000,  0.0000,  0.0000)
  17 Li     2.467803    8.725000   10.000000    ( 0.0000,  0.0000,  0.0000)
  18 Li     2.467803    6.980000   12.467803    ( 0.0000,  0.0000,  0.0000)
  19 Li     0.000000    8.725000   12.467803    ( 0.0000,  0.0000,  0.0000)
  20 Li    -0.015370    7.010013   14.938809    ( 0.0000,  0.0000,  0.0000)
  21 Li     2.470655    8.653412   14.746560    ( 0.0000,  0.0000,  0.0000)
  22 Li     2.456436    7.073689   17.318613    ( 0.0000,  0.0000,  0.0000)
  23 Li     0.095884    8.858041   17.384632    ( 0.0000,  0.0000,  0.0000)
  24 Li     4.935605    0.000000   10.000000    ( 0.0000,  0.0000,  0.0000)
  25 Li     7.403408    1.745000   10.000000    ( 0.0000,  0.0000,  0.0000)
  26 Li     7.403408    0.000000   12.467803    ( 0.0000,  0.0000,  0.0000)
  27 Li     4.935605    1.745000   12.467803    ( 0.0000,  0.0000,  0.0000)
  28 Li     4.929805    0.000406   14.847341    ( 0.0000,  0.0000,  0.0000)
  29 Li     7.410909    1.742788   14.865280    ( 0.0000,  0.0000,  0.0000)
  30 Li     7.375497    0.000185   17.225134    ( 0.0000,  0.0000,  0.0000)
  31 Li     4.831345    1.632658   17.369479    ( 0.0000,  0.0000,  0.0000)
  32 Li     4.935605    3.490000   10.000000    ( 0.0000,  0.0000,  0.0000)
  33 Li     7.403408    5.235000   10.000000    ( 0.0000,  0.0000,  0.0000)
  34 Li     7.403408    3.490000   12.467803    ( 0.0000,  0.0000,  0.0000)
  35 Li     4.935605    5.235000   12.467803    ( 0.0000,  0.0000,  0.0000)
  36 Li     4.952948    3.459995   14.921280    ( 0.0000,  0.0000,  0.0000)
  37 Li     7.398884    5.235536   14.868216    ( 0.0000,  0.0000,  0.0000)
  38 Li     7.351619    3.462762   17.230185    ( 0.0000,  0.0000,  0.0000)
  39 Li     4.879729    5.229667   17.272193    ( 0.0000,  0.0000,  0.0000)
  40 Li     4.935605    6.980000   10.000000    ( 0.0000,  0.0000,  0.0000)
  41 Li     7.403408    8.725000   10.000000    ( 0.0000,  0.0000,  0.0000)
  42 Li     7.403408    6.980000   12.467803    ( 0.0000,  0.0000,  0.0000)
  43 Li     4.935605    8.725000   12.467803    ( 0.0000,  0.0000,  0.0000)
  44 Li     4.950385    7.009550   14.922712    ( 0.0000,  0.0000,  0.0000)
  45 Li     7.411057    8.726721   14.862393    ( 0.0000,  0.0000,  0.0000)
  46 Li     7.351556    7.007077   17.231509    ( 0.0000,  0.0000,  0.0000)
  47 Li     4.827911    8.843487   17.369375    ( 0.0000,  0.0000,  0.0000)
  48 Li     9.871211    0.000000   10.000000    ( 0.0000,  0.0000,  0.0000)
  49 Li    12.339013    1.745000   10.000000    ( 0.0000,  0.0000,  0.0000)
  50 Li    12.339013    0.000000   12.467803    ( 0.0000,  0.0000,  0.0000)
  51 Li     9.871211    1.745000   12.467803    ( 0.0000,  0.0000,  0.0000)
  52 Li     9.868673    0.000499   14.869015    ( 0.0000,  0.0000,  0.0000)
  53 Li    12.334902    1.742841   14.860876    ( 0.0000,  0.0000,  0.0000)
  54 Li    12.384175    0.021751   17.255823    ( 0.0000,  0.0000,  0.0000)
  55 Li     9.876872    1.745502   17.214595    ( 0.0000,  0.0000,  0.0000)
  56 Li     9.871211    3.490000   10.000000    ( 0.0000,  0.0000,  0.0000)
  57 Li    12.339013    5.235000   10.000000    ( 0.0000,  0.0000,  0.0000)
  58 Li    12.339013    3.490000   12.467803    ( 0.0000,  0.0000,  0.0000)
  59 Li     9.871211    5.235000   12.467803    ( 0.0000,  0.0000,  0.0000)
  60 Li     9.868866    3.492380   14.855765    ( 0.0000,  0.0000,  0.0000)
  61 Li    12.340747    5.229358   14.880888    ( 0.0000,  0.0000,  0.0000)
  62 Li    12.408186    3.440685   17.259358    ( 0.0000,  0.0000,  0.0000)
  63 Li     9.881737    5.229698   17.222220    ( 0.0000,  0.0000,  0.0000)
  64 Li     9.871211    6.980000   10.000000    ( 0.0000,  0.0000,  0.0000)
  65 Li    12.339013    8.725000   10.000000    ( 0.0000,  0.0000,  0.0000)
  66 Li    12.339013    6.980000   12.467803    ( 0.0000,  0.0000,  0.0000)
  67 Li     9.871211    8.725000   12.467803    ( 0.0000,  0.0000,  0.0000)
  68 Li     9.871376    6.977199   14.856802    ( 0.0000,  0.0000,  0.0000)
  69 Li    12.328406    8.733086   14.874788    ( 0.0000,  0.0000,  0.0000)
  70 Li    12.399576    7.007882   17.240437    ( 0.0000,  0.0000,  0.0000)
  71 Li     9.881465    8.730033   17.215450    ( 0.0000,  0.0000,  0.0000)
  72 Li     2.056849    0.294318   19.326038    ( 0.0000,  0.0000,  0.0000)

Unit cell:
           periodic     x           y           z      points  spacing
  1. axis:    yes   14.806816    0.000000    0.000000    76     0.1948
  2. axis:    yes    0.000000   10.470000    0.000000    52     0.2013
  3. axis:    no     0.000000    0.000000   27.403408   136     0.2015

  Lengths:  14.806816  10.470000  27.403408
  Angles:   90.000000  90.000000  90.000000

Effective grid spacing dv^(1/3) = 0.1992

     iter     time        total  log10-change:
                         energy   eigst   dens
iter:   1 05:23:23  -127.084292        c
iter:   2 05:23:36  -127.084470        c -3.30
iter:   3 05:23:49  -127.084627c       c -3.54
iter:   4 05:24:01  -127.084828c       c -3.85
iter:   5 05:24:14  -127.084787c       c -4.13c

Converged after 5 iterations.

Dipole moment: (-16.861284, -11.702691, 0.289675) |e|*Ang

Energy contributions relative to reference atoms: (reference = -14803.510878)

Kinetic:       +134.735577
Potential:     -115.817256
External:        +0.000000
XC:            -144.045124
Entropy (-ST):   -2.105616
Local:           -0.905176
SIC:             +0.000000
--------------------------
Free energy:   -128.137595
Extrapolated:  -127.084787

 Band  Eigenvalues  Occupancy
    0     -6.37952    2.00000
    1     -5.86821    2.00000
    2     -5.85246    2.00000
    3     -5.79463    2.00000
    4     -5.34026    2.00000
    5     -5.33369    2.00000
    6     -5.27350    2.00000
    7     -5.25106    2.00000
    8     -4.83568    1.99999
    9     -4.82900    1.99999
   10     -4.81508    1.99999
   11     -4.81009    1.99999
   12     -4.77394    1.99999
   13     -4.74443    1.99999
   14     -4.68610    1.99999
   15     -4.31852    1.99984
   16     -4.30707    1.99983
   17     -4.26943    1.99978
   18     -4.24935    1.99975
   19     -4.23590    1.99973
   20     -4.22084    1.99970
   21     -4.16092    1.99955
   22     -4.11568    1.99939
   23     -3.72889    1.99199
   24     -3.66976    1.98814
   25     -3.65106    1.98658
   26     -3.63633    1.98521
   27     -3.42809    1.94200
   28     -3.26060    1.83280
   29     -3.25576    1.82779
   30     -3.25483    1.82680
   31     -3.24761    1.81904
   32     -3.17161    1.71657
   33     -3.16262    1.70167
   34     -3.14134    1.66385
   35     -3.13502    1.65189
   36     -2.85747    0.85447
   37     -2.74470    0.52039
   38     -2.67673    0.36542
   39     -2.66520    0.34303
   40     -2.65754    0.32875
   41     -2.64673    0.30942
   42     -2.47956    0.11330
   43     -2.47591    0.11072
   44     -2.35110    0.04974
   45     -2.33117    0.04368
   46     -2.22008    0.02107
   47     -2.07710    0.00818

Fermi level: -2.90144

Gap: 0.278 eV
Transition (v -> c):
  (s=0, k=0, n=35, [0.00, 0.00, 0.00]) -> (s=0, k=0, n=36, [0.00, 0.00, 0.00])
No difference between direct/indirect transitions

Forces in eV/Ang:
  0 Li   -0.00043    0.00073    0.09334
  1 Li    0.00132   -0.00617    0.10359
  2 Li   -0.00041   -0.00544   -0.06863
  3 Li   -0.01266    0.02468   -0.08364
  4 Li   -0.02355    0.00111    0.00514
  5 Li    0.00234    0.01305    0.00307
  6 Li    0.05531   -0.04982   -0.17821
  7 Li   -0.03923    0.04666   -0.01052
  8 Li   -0.01205   -0.00736    0.09503
  9 Li    0.00403   -0.00241    0.10210
 10 Li    0.00057    0.06923   -0.13339
 11 Li   -0.00095    0.00789   -0.00813
 12 Li    0.00437   -0.00152   -0.01024
 13 Li   -0.00423   -0.00129   -0.03011
 14 Li    0.00483   -0.02542   -0.00486
 15 Li    0.00803    0.01129    0.00773
 16 Li   -0.01538    0.00654    0.09463
 17 Li    0.00157    0.00865    0.10507
 18 Li   -0.00046   -0.06143   -0.11655
 19 Li   -0.01261   -0.03456   -0.08691
 20 Li    0.01002    0.00146   -0.01947
 21 Li    0.00247   -0.01301   -0.00104
 22 Li   -0.00950   -0.00589   -0.01120
 23 Li   -0.01296   -0.01539   -0.03119
 24 Li    0.00129    0.00034    0.09073
 25 Li    0.00640    0.00887    0.08216
 26 Li   -0.00527    0.00007   -0.07078
 27 Li    0.01482    0.02165   -0.07839
 28 Li    0.01478    0.00042    0.01710
 29 Li    0.00075   -0.00522   -0.01138
 30 Li    0.02081    0.00121   -0.01646
 31 Li   -0.00347    0.03347   -0.00611
 32 Li    0.01375   -0.00526    0.09045
 33 Li    0.01892    0.00224    0.07067
 34 Li    0.00217    0.00044   -0.06199
 35 Li    0.00214    0.00008    0.00119
 36 Li   -0.00998   -0.00091   -0.01286
 37 Li    0.00304    0.00100   -0.00146
 38 Li    0.00475    0.00464   -0.00127
 39 Li   -0.00509    0.00205    0.00940
 40 Li    0.01768    0.00488    0.09152
 41 Li    0.00829   -0.01114    0.07957
 42 Li    0.00211   -0.00043   -0.06170
 43 Li    0.01539   -0.02198   -0.07821
 44 Li   -0.00924   -0.00083   -0.00492
 45 Li    0.00316    0.00381   -0.01214
 46 Li    0.00404   -0.00576   -0.00347
 47 Li    0.00990   -0.02725   -0.01622
 48 Li   -0.00244   -0.00248    0.08999
 49 Li   -0.00673    0.00820    0.08322
 50 Li    0.00122   -0.00372   -0.07327
 51 Li   -0.00018    0.00226   -0.07258
 52 Li   -0.00044    0.00170   -0.01157
 53 Li    0.00407   -0.00548    0.01118
 54 Li   -0.03236   -0.01826   -0.01521
 55 Li   -0.00612    0.00284   -0.00670
 56 Li   -0.00237    0.01377    0.06959
 57 Li   -0.02183    0.00095    0.07878
 58 Li   -0.00205    0.00430   -0.06193
 59 Li   -0.00200   -0.00004   -0.07144
 60 Li    0.00157    0.00272   -0.00545
 61 Li   -0.00232    0.00215    0.00069
 62 Li   -0.02233    0.02151   -0.02118
 63 Li   -0.00075    0.00316   -0.00398
 64 Li   -0.00314   -0.01119    0.06545
 65 Li   -0.00896   -0.00916    0.08215
 66 Li   -0.00071   -0.00011   -0.04633
 67 Li   -0.00172   -0.00199   -0.07226
 68 Li   -0.00008   -0.00413   -0.00345
 69 Li    0.00050    0.00498   -0.00993
 70 Li   -0.00507   -0.00454   -0.00161
 71 Li   -0.00131   -0.00455   -0.00190
 72 Li    0.02663    0.02979    0.08952

System changes: positions 

Initializing position-dependent things.

Density initialized from wave functions
       .-----------------------------------.  
      /|                                   |  
     / |                                   |  
    /  |                                   |  
   /   |                                   |  
  /    |                                   |  
 *     |                                   |  
 |     |                                   |  
 |     |                                   |  
 |     |                                   |  
 |     |                                   |  
 |     |                                   |  
 |     |                                   |  
 |    Li          Li                       |  
 |     |   Li                 Li           |  
 |     |               Li          Li      |  
 |  LiLii       Li          Li             |  
 |     | Li Li   Li  Li Li       Li Li   Li|  
 |Li   |  Li  Li          Li Li            |  
 |     Li          Li Li       Li Li       |  
 |    Li       Li Li       Li Li       Li  |  
 |     |Li Li       Li Li       Li Li      |  
 |  Li |     Li Li       Li Li             |  
 |     | Li Li       Li Li       Li Li     |  
 |Li Li|      Li Li       Li Li            |  
 |     Li Li       Li Li       Li Li       |  
 | Li  |       Li          Li              |  
 |     |Li          Li          Li         |  
 Li    |     Li          Li                |  
 |     |                                   |  
 |     |                                   |  
 |     |                                   |  
 |     |                                   |  
 |     |                                   |  
 |     .-----------------------------------.  
 |    /                                   /   
 |   /                                   /    
 |  /                                   /     
 | /                                   /      
 |/                                   /       
 *-----------------------------------*        

Atomic positions and initial magnetic moments

Positions:
   0 Li     0.000000    0.000000   10.000000    ( 0.0000,  0.0000,  0.0000)
   1 Li     2.467803    1.745000   10.000000    ( 0.0000,  0.0000,  0.0000)
   2 Li     2.467803    0.000000   12.467803    ( 0.0000,  0.0000,  0.0000)
   3 Li     0.000000    1.745000   12.467803    ( 0.0000,  0.0000,  0.0000)
   4 Li     0.004569   -0.014265   14.820803    ( 0.0000,  0.0000,  0.0000)
   5 Li     2.464499    1.823073   14.731752    ( 0.0000,  0.0000,  0.0000)
   6 Li     2.453006    0.017330   16.796426    ( 0.0000,  0.0000,  0.0000)
   7 Li     0.092262    1.634524   17.281394    ( 0.0000,  0.0000,  0.0000)
   8 Li     0.000000    3.490000   10.000000    ( 0.0000,  0.0000,  0.0000)
   9 Li     2.467803    5.235000   10.000000    ( 0.0000,  0.0000,  0.0000)
  10 Li     2.467803    3.490000   12.467803    ( 0.0000,  0.0000,  0.0000)
  11 Li     0.000000    5.235000   12.467803    ( 0.0000,  0.0000,  0.0000)
  12 Li    -0.015523    3.474533   14.899636    ( 0.0000,  0.0000,  0.0000)
  13 Li     2.470965    5.229136   14.943821    ( 0.0000,  0.0000,  0.0000)
  14 Li     2.447920    3.370742   17.339036    ( 0.0000,  0.0000,  0.0000)
  15 Li     0.046363    5.217581   17.289456    ( 0.0000,  0.0000,  0.0000)
  16 Li     0.000000    6.980000   10.000000    ( 0.0000,  0.0000,  0.0000)
  17 Li     2.467803    8.725000   10.000000    ( 0.0000,  0.0000,  0.0000)
  18 Li     2.467803    6.980000   12.467803    ( 0.0000,  0.0000,  0.0000)
  19 Li     0.000000    8.725000   12.467803    ( 0.0000,  0.0000,  0.0000)
  20 Li    -0.014929    7.010062   14.937996    ( 0.0000,  0.0000,  0.0000)
  21 Li     2.470779    8.653060   14.746804    ( 0.0000,  0.0000,  0.0000)
  22 Li     2.456003    7.073400   17.318138    ( 0.0000,  0.0000,  0.0000)
  23 Li     0.095239    8.857327   17.383296    ( 0.0000,  0.0000,  0.0000)
  24 Li     4.935605    0.000000   10.000000    ( 0.0000,  0.0000,  0.0000)
  25 Li     7.403408    1.745000   10.000000    ( 0.0000,  0.0000,  0.0000)
  26 Li     7.403408    0.000000   12.467803    ( 0.0000,  0.0000,  0.0000)
  27 Li     4.935605    1.745000   12.467803    ( 0.0000,  0.0000,  0.0000)
  28 Li     4.930382    0.000422   14.848136    ( 0.0000,  0.0000,  0.0000)
  29 Li     7.410933    1.742552   14.864810    ( 0.0000,  0.0000,  0.0000)
  30 Li     7.376418    0.000234   17.224436    ( 0.0000,  0.0000,  0.0000)
  31 Li     4.831215    1.634181   17.369134    ( 0.0000,  0.0000,  0.0000)
  32 Li     4.935605    3.490000   10.000000    ( 0.0000,  0.0000,  0.0000)
  33 Li     7.403408    5.235000   10.000000    ( 0.0000,  0.0000,  0.0000)
  34 Li     7.403408    3.490000   12.467803    ( 0.0000,  0.0000,  0.0000)
  35 Li     4.935605    5.235000   12.467803    ( 0.0000,  0.0000,  0.0000)
  36 Li     4.952510    3.459963   14.920691    ( 0.0000,  0.0000,  0.0000)
  37 Li     7.399025    5.235583   14.868156    ( 0.0000,  0.0000,  0.0000)
  38 Li     7.351854    3.462968   17.230134    ( 0.0000,  0.0000,  0.0000)
  39 Li     4.879518    5.229748   17.272569    ( 0.0000,  0.0000,  0.0000)
  40 Li     4.935605    6.980000   10.000000    ( 0.0000,  0.0000,  0.0000)
  41 Li     7.403408    8.725000   10.000000    ( 0.0000,  0.0000,  0.0000)
  42 Li     7.403408    6.980000   12.467803    ( 0.0000,  0.0000,  0.0000)
  43 Li     4.935605    8.725000   12.467803    ( 0.0000,  0.0000,  0.0000)
  44 Li     4.949975    7.009499   14.922470    ( 0.0000,  0.0000,  0.0000)
  45 Li     7.411181    8.726893   14.861880    ( 0.0000,  0.0000,  0.0000)
  46 Li     7.351754    7.006819   17.231369    ( 0.0000,  0.0000,  0.0000)
  47 Li     4.828320    8.842291   17.368602    ( 0.0000,  0.0000,  0.0000)
  48 Li     9.871211    0.000000   10.000000    ( 0.0000,  0.0000,  0.0000)
  49 Li    12.339013    1.745000   10.000000    ( 0.0000,  0.0000,  0.0000)
  50 Li    12.339013    0.000000   12.467803    ( 0.0000,  0.0000,  0.0000)
  51 Li     9.871211    1.745000   12.467803    ( 0.0000,  0.0000,  0.0000)
  52 Li     9.868649    0.000574   14.868526    ( 0.0000,  0.0000,  0.0000)
  53 Li    12.335093    1.742605   14.861355    ( 0.0000,  0.0000,  0.0000)
  54 Li    12.382860    0.021053   17.255273    ( 0.0000,  0.0000,  0.0000)
  55 Li     9.876634    1.745611   17.214333    ( 0.0000,  0.0000,  0.0000)
  56 Li     9.871211    3.490000   10.000000    ( 0.0000,  0.0000,  0.0000)
  57 Li    12.339013    5.235000   10.000000    ( 0.0000,  0.0000,  0.0000)
  58 Li    12.339013    3.490000   12.467803    ( 0.0000,  0.0000,  0.0000)
  59 Li     9.871211    5.235000   12.467803    ( 0.0000,  0.0000,  0.0000)
  60 Li     9.868928    3.492495   14.855542    ( 0.0000,  0.0000,  0.0000)
  61 Li    12.340626    5.229421   14.880979    ( 0.0000,  0.0000,  0.0000)
  62 Li    12.407286    3.441516   17.258560    ( 0.0000,  0.0000,  0.0000)
  63 Li     9.881752    5.229810   17.222068    ( 0.0000,  0.0000,  0.0000)
  64 Li     9.871211    6.980000   10.000000    ( 0.0000,  0.0000,  0.0000)
  65 Li    12.339013    8.725000   10.000000    ( 0.0000,  0.0000,  0.0000)
  66 Li    12.339013    6.980000   12.467803    ( 0.0000,  0.0000,  0.0000)
  67 Li     9.871211    8.725000   12.467803    ( 0.0000,  0.0000,  0.0000)
  68 Li     9.871373    6.977021   14.856668    ( 0.0000,  0.0000,  0.0000)
  69 Li    12.328427    8.733332   14.874414    ( 0.0000,  0.0000,  0.0000)
  70 Li    12.399359    7.007671   17.240403    ( 0.0000,  0.0000,  0.0000)
  71 Li     9.881457    8.729876   17.215394    ( 0.0000,  0.0000,  0.0000)
  72 Li     2.056605    0.296485   19.330383    ( 0.0000,  0.0000,  0.0000)

Unit cell:
           periodic     x           y           z      points  spacing
  1. axis:    yes   14.806816    0.000000    0.000000    76     0.1948
  2. axis:    yes    0.000000   10.470000    0.000000    52     0.2013
  3. axis:    no     0.000000    0.000000   27.403408   136     0.2015

  Lengths:  14.806816  10.470000  27.403408
  Angles:   90.000000  90.000000  90.000000

Effective grid spacing dv^(1/3) = 0.1992

     iter     time        total  log10-change:
                         energy   eigst   dens
iter:   1 05:31:41  -127.087013        c
iter:   2 05:31:52  -127.087169        c -3.28
iter:   3 05:32:03  -127.087333c       c -3.42
iter:   4 05:32:14  -127.087536c       c -3.70
iter:   5 05:32:25  -127.087450c       c -3.90
iter:   6 05:32:36  -127.087468c       c -4.18c

Converged after 6 iterations.

Dipole moment: (-16.825366, -11.668815, 0.291749) |e|*Ang

Energy contributions relative to reference atoms: (reference = -14803.510878)

Kinetic:       +134.706339
Potential:     -115.796740
External:        +0.000000
XC:            -144.039293
Entropy (-ST):   -2.105464
Local:           -0.905043
SIC:             +0.000000
--------------------------
Free energy:   -128.140200
Extrapolated:  -127.087468

 Band  Eigenvalues  Occupancy
    0     -6.37906    2.00000
    1     -5.86782    2.00000
    2     -5.85195    2.00000
    3     -5.79402    2.00000
    4     -5.33979    2.00000
    5     -5.33326    2.00000
    6     -5.27290    2.00000
    7     -5.25048    2.00000
    8     -4.83525    1.99999
    9     -4.82860    1.99999
   10     -4.81453    1.99999
   11     -4.80962    1.99999
   12     -4.77313    1.99999
   13     -4.74389    1.99999
   14     -4.68557    1.99999
   15     -4.31805    1.99984
   16     -4.30659    1.99983
   17     -4.26877    1.99978
   18     -4.24875    1.99975
   19     -4.23520    1.99973
   20     -4.22034    1.99970
   21     -4.16047    1.99955
   22     -4.11497    1.99939
   23     -3.72818    1.99199
   24     -3.66910    1.98814
   25     -3.65055    1.98659
   26     -3.63553    1.98519
   27     -3.42750    1.94202
   28     -3.26009    1.83293
   29     -3.25534    1.82802
   30     -3.25433    1.82695
   31     -3.24716    1.81925
   32     -3.17112    1.71680
   33     -3.16179    1.70134
   34     -3.14057    1.66359
   35     -3.13438    1.65190
   36     -2.85684    0.85449
   37     -2.74369    0.51944
   38     -2.67605    0.36533
   39     -2.66448    0.34287
   40     -2.65696    0.32887
   41     -2.64644    0.31003
   42     -2.47882    0.11322
   43     -2.47522    0.11069
   44     -2.35090    0.04988
   45     -2.33061    0.04371
   46     -2.21933    0.02106
   47     -2.07666    0.00819

Fermi level: -2.90080

Gap: 0.278 eV
Transition (v -> c):
  (s=0, k=0, n=35, [0.00, 0.00, 0.00]) -> (s=0, k=0, n=36, [0.00, 0.00, 0.00])
No difference between direct/indirect transitions

Forces in eV/Ang:
  0 Li   -0.00042    0.00072    0.09327
  1 Li    0.00132   -0.00605    0.10351
  2 Li   -0.00041   -0.00544   -0.06741
  3 Li   -0.01269    0.02463   -0.08374
  4 Li   -0.02261    0.00132    0.00388
  5 Li    0.00179    0.01497   -0.00096
  6 Li    0.04690   -0.04411   -0.14748
  7 Li   -0.03489    0.04168   -0.00988
  8 Li   -0.01189   -0.00735    0.09495
  9 Li    0.00399   -0.00243    0.10189
 10 Li    0.00052    0.06903   -0.13399
 11 Li   -0.00096    0.00790   -0.00859
 12 Li    0.00391   -0.00050   -0.00979
 13 Li   -0.00422   -0.00165   -0.02796
 14 Li    0.00386   -0.02315   -0.00560
 15 Li    0.00748    0.01022    0.00673
 16 Li   -0.01526    0.00653    0.09457
 17 Li    0.00156    0.00857    0.10506
 18 Li   -0.00051   -0.06126   -0.11714
 19 Li   -0.01262   -0.03447   -0.08717
 20 Li    0.00931    0.00108   -0.01850
 21 Li    0.00210   -0.01665   -0.00642
 22 Li   -0.00889   -0.00631   -0.01177
 23 Li   -0.01147   -0.01346   -0.03051
 24 Li    0.00127    0.00034    0.09067
 25 Li    0.00632    0.00874    0.08203
 26 Li   -0.00528    0.00008   -0.07118
 27 Li    0.01487    0.02141   -0.07841
 28 Li    0.01569    0.00046    0.01440
 29 Li    0.00080   -0.00435   -0.01094
 30 Li    0.01917    0.00122   -0.01578
 31 Li   -0.00225    0.03088   -0.00607
 32 Li    0.01357   -0.00526    0.09037
 33 Li    0.01880    0.00223    0.07069
 34 Li    0.00207    0.00051   -0.06204
 35 Li    0.00214    0.00015    0.00092
 36 Li   -0.00920   -0.00038   -0.01189
 37 Li    0.00252    0.00086   -0.00148
 38 Li    0.00457    0.00471   -0.00160
 39 Li   -0.00509    0.00162    0.00870
 40 Li    0.01753    0.00488    0.09146
 41 Li    0.00824   -0.01101    0.07946
 42 Li    0.00201   -0.00051   -0.06182
 43 Li    0.01544   -0.02182   -0.07809
 44 Li   -0.00863   -0.00104   -0.00463
 45 Li    0.00313    0.00311   -0.01156
 46 Li    0.00413   -0.00567   -0.00367
 47 Li    0.01083   -0.02654   -0.01565
 48 Li   -0.00242   -0.00250    0.08981
 49 Li   -0.00665    0.00809    0.08308
 50 Li    0.00119   -0.00352   -0.07334
 51 Li   -0.00012    0.00234   -0.07278
 52 Li   -0.00033    0.00154   -0.01095
 53 Li    0.00364   -0.00491    0.01022
 54 Li   -0.03120   -0.01747   -0.01444
 55 Li   -0.00583    0.00314   -0.00664
 56 Li   -0.00236    0.01366    0.06967
 57 Li   -0.02169    0.00099    0.07880
 58 Li   -0.00198    0.00422   -0.06156
 59 Li   -0.00199   -0.00000   -0.07164
 60 Li    0.00157    0.00254   -0.00502
 61 Li   -0.00184    0.00239    0.00000
 62 Li   -0.02191    0.02142   -0.02041
 63 Li   -0.00108    0.00317   -0.00397
 64 Li   -0.00310   -0.01106    0.06547
 65 Li   -0.00889   -0.00908    0.08203
 66 Li   -0.00059   -0.00020   -0.04633
 67 Li   -0.00167   -0.00210   -0.07245
 68 Li    0.00007   -0.00379   -0.00320
 69 Li    0.00025    0.00400   -0.00960
 70 Li   -0.00497   -0.00434   -0.00185
 71 Li   -0.00167   -0.00498   -0.00213
 72 Li    0.02795    0.02860    0.06872

System changes: positions 

Initializing position-dependent things.

Density initialized from wave functions
       .-----------------------------------.  
      /|                                   |  
     / |                                   |  
    /  |                                   |  
   /   |                                   |  
  /    |                                   |  
 *     |                                   |  
 |     |                                   |  
 |     |                                   |  
 |     |                                   |  
 |     |                                   |  
 |     |                                   |  
 |     |                                   |  
 |    Li          Li                       |  
 |     |   Li                 Li           |  
 |     |               Li          Li      |  
 |  LiLii       Li          Li             |  
 |     | Li Li   Li  Li Li       Li Li   Li|  
 |Li   |  Li  Li          Li Li            |  
 |     Li          Li Li       Li Li       |  
 |    Li       Li Li       Li Li       Li  |  
 |     |Li Li       Li Li       Li Li      |  
 |  Li |     Li Li       Li Li             |  
 |     | Li Li       Li Li       Li Li     |  
 |Li Li|      Li Li       Li Li            |  
 |     Li Li       Li Li       Li Li       |  
 | Li  |       Li          Li              |  
 |     |Li          Li          Li         |  
 Li    |     Li          Li                |  
 |     |                                   |  
 |     |                                   |  
 |     |                                   |  
 |     |                                   |  
 |     |                                   |  
 |     .-----------------------------------.  
 |    /                                   /   
 |   /                                   /    
 |  /                                   /     
 | /                                   /      
 |/                                   /       
 *-----------------------------------*        

Atomic positions and initial magnetic moments

Positions:
   0 Li     0.000000    0.000000   10.000000    ( 0.0000,  0.0000,  0.0000)
   1 Li     2.467803    1.745000   10.000000    ( 0.0000,  0.0000,  0.0000)
   2 Li     2.467803    0.000000   12.467803    ( 0.0000,  0.0000,  0.0000)
   3 Li     0.000000    1.745000   12.467803    ( 0.0000,  0.0000,  0.0000)
   4 Li     0.003333   -0.014265   14.821013    ( 0.0000,  0.0000,  0.0000)
   5 Li     2.464620    1.823671   14.732048    ( 0.0000,  0.0000,  0.0000)
   6 Li     2.455934    0.014741   16.787153    ( 0.0000,  0.0000,  0.0000)
   7 Li     0.090073    1.637116   17.280394    ( 0.0000,  0.0000,  0.0000)
   8 Li     0.000000    3.490000   10.000000    ( 0.0000,  0.0000,  0.0000)
   9 Li     2.467803    5.235000   10.000000    ( 0.0000,  0.0000,  0.0000)
  10 Li     2.467803    3.490000   12.467803    ( 0.0000,  0.0000,  0.0000)
  11 Li     0.000000    5.235000   12.467803    ( 0.0000,  0.0000,  0.0000)
  12 Li    -0.015278    3.474521   14.898967    ( 0.0000,  0.0000,  0.0000)
  13 Li     2.470757    5.229053   14.942222    ( 0.0000,  0.0000,  0.0000)
  14 Li     2.448116    3.369384   17.338828    ( 0.0000,  0.0000,  0.0000)
  15 Li     0.046751    5.218116   17.289893    ( 0.0000,  0.0000,  0.0000)
  16 Li     0.000000    6.980000   10.000000    ( 0.0000,  0.0000,  0.0000)
  17 Li     2.467803    8.725000   10.000000    ( 0.0000,  0.0000,  0.0000)
  18 Li     2.467803    6.980000   12.467803    ( 0.0000,  0.0000,  0.0000)
  19 Li     0.000000    8.725000   12.467803    ( 0.0000,  0.0000,  0.0000)
  20 Li    -0.014387    7.010118   14.936982    ( 0.0000,  0.0000,  0.0000)
  21 Li     2.470925    8.652507   14.746958    ( 0.0000,  0.0000,  0.0000)
  22 Li     2.455468    7.073025   17.317523    ( 0.0000,  0.0000,  0.0000)
  23 Li     0.094465    8.856475   17.381614    ( 0.0000,  0.0000,  0.0000)
  24 Li     4.935605    0.000000   10.000000    ( 0.0000,  0.0000,  0.0000)
  25 Li     7.403408    1.745000   10.000000    ( 0.0000,  0.0000,  0.0000)
  26 Li     7.403408    0.000000   12.467803    ( 0.0000,  0.0000,  0.0000)
  27 Li     4.935605    1.745000   12.467803    ( 0.0000,  0.0000,  0.0000)
  28 Li     4.931144    0.000445   14.849077    ( 0.0000,  0.0000,  0.0000)
  29 Li     7.410966    1.742274   14.864220    ( 0.0000,  0.0000,  0.0000)
  30 Li     7.377546    0.000297   17.223564    ( 0.0000,  0.0000,  0.0000)
  31 Li     4.831075    1.636047   17.368707    ( 0.0000,  0.0000,  0.0000)
  32 Li     4.935605    3.490000   10.000000    ( 0.0000,  0.0000,  0.0000)
  33 Li     7.403408    5.235000   10.000000    ( 0.0000,  0.0000,  0.0000)
  34 Li     7.403408    3.490000   12.467803    ( 0.0000,  0.0000,  0.0000)
  35 Li     4.935605    5.235000   12.467803    ( 0.0000,  0.0000,  0.0000)
  36 Li     4.951974    3.459932   14.919967    ( 0.0000,  0.0000,  0.0000)
  37 Li     7.399192    5.235639   14.868076    ( 0.0000,  0.0000,  0.0000)
  38 Li     7.352145    3.463231   17.230060    ( 0.0000,  0.0000,  0.0000)
  39 Li     4.879249    5.229840   17.273033    ( 0.0000,  0.0000,  0.0000)
  40 Li     4.935605    6.980000   10.000000    ( 0.0000,  0.0000,  0.0000)
  41 Li     7.403408    8.725000   10.000000    ( 0.0000,  0.0000,  0.0000)
  42 Li     7.403408    6.980000   12.467803    ( 0.0000,  0.0000,  0.0000)
  43 Li     4.935605    8.725000   12.467803    ( 0.0000,  0.0000,  0.0000)
  44 Li     4.949470    7.009433   14.922170    ( 0.0000,  0.0000,  0.0000)
  45 Li     7.411339    8.727094   14.861239    ( 0.0000,  0.0000,  0.0000)
  46 Li     7.352005    7.006495   17.231184    ( 0.0000,  0.0000,  0.0000)
  47 Li     4.828863    8.840791   17.367640    ( 0.0000,  0.0000,  0.0000)
  48 Li     9.871211    0.000000   10.000000    ( 0.0000,  0.0000,  0.0000)
  49 Li    12.339013    1.745000   10.000000    ( 0.0000,  0.0000,  0.0000)
  50 Li    12.339013    0.000000   12.467803    ( 0.0000,  0.0000,  0.0000)
  51 Li     9.871211    1.745000   12.467803    ( 0.0000,  0.0000,  0.0000)
  52 Li     9.868620    0.000665   14.867916    ( 0.0000,  0.0000,  0.0000)
  53 Li    12.335324    1.742317   14.861941    ( 0.0000,  0.0000,  0.0000)
  54 Li    12.381210    0.020175   17.254581    ( 0.0000,  0.0000,  0.0000)
  55 Li     9.876335    1.745757   17.213998    ( 0.0000,  0.0000,  0.0000)
  56 Li     9.871211    3.490000   10.000000    ( 0.0000,  0.0000,  0.0000)
  57 Li    12.339013    5.235000   10.000000    ( 0.0000,  0.0000,  0.0000)
  58 Li    12.339013    3.490000   12.467803    ( 0.0000,  0.0000,  0.0000)
  59 Li     9.871211    5.235000   12.467803    ( 0.0000,  0.0000,  0.0000)
  60 Li     9.869005    3.492637   14.855264    ( 0.0000,  0.0000,  0.0000)
  61 Li    12.340484    5.229511   14.881070    ( 0.0000,  0.0000,  0.0000)
  62 Li    12.406146    3.442579   17.257552    ( 0.0000,  0.0000,  0.0000)
  63 Li     9.881758    5.229954   17.221871    ( 0.0000,  0.0000,  0.0000)
  64 Li     9.871211    6.980000   10.000000    ( 0.0000,  0.0000,  0.0000)
  65 Li    12.339013    8.725000   10.000000    ( 0.0000,  0.0000,  0.0000)
  66 Li    12.339013    6.980000   12.467803    ( 0.0000,  0.0000,  0.0000)
  67 Li     9.871211    8.725000   12.467803    ( 0.0000,  0.0000,  0.0000)
  68 Li     9.871372    6.976803   14.856500    ( 0.0000,  0.0000,  0.0000)
[...]
 46 Li    0.00400   -0.00523   -0.00432
 47 Li    0.01261   -0.02396   -0.01412
 48 Li   -0.00236   -0.00254    0.08976
 49 Li   -0.00641    0.00787    0.08305
 50 Li    0.00098   -0.00296   -0.07368
 51 Li   -0.00003    0.00253   -0.07332
 52 Li   -0.00013    0.00116   -0.00937
 53 Li    0.00263   -0.00354    0.00772
 54 Li   -0.02778   -0.01521   -0.01271
 55 Li   -0.00507    0.00368   -0.00680
 56 Li   -0.00236    0.01345    0.07008
 57 Li   -0.02154    0.00103    0.07900
 58 Li   -0.00201    0.00389   -0.06069
 59 Li   -0.00208    0.00008   -0.07210
 60 Li    0.00144    0.00202   -0.00431
 61 Li   -0.00080    0.00292   -0.00197
 62 Li   -0.02038    0.02061   -0.01859
 63 Li   -0.00206    0.00321   -0.00418
 64 Li   -0.00305   -0.01080    0.06576
 65 Li   -0.00872   -0.00892    0.08202
 66 Li   -0.00053   -0.00036   -0.04649
 67 Li   -0.00163   -0.00234   -0.07297
 68 Li    0.00031   -0.00285   -0.00297
 69 Li   -0.00035    0.00168   -0.00872
 70 Li   -0.00447   -0.00352   -0.00262
 71 Li   -0.00266   -0.00581   -0.00304
 72 Li    0.03066    0.02624    0.02103

System changes: positions 

Initializing position-dependent things.

Density initialized from wave functions
       .-----------------------------------.  
      /|                                   |  
     / |                                   |  
    /  |                                   |  
   /   |                                   |  
  /    |                                   |  
 *     |                                   |  
 |     |                                   |  
 |     |                                   |  
 |     |                                   |  
 |     |                                   |  
 |     |                                   |  
 |     |                                   |  
 |    Li          Li                       |  
 |     |   Li                 Li           |  
 |     |               Li          Li      |  
 |  LiLii       Li          Li             |  
 |     | Li Li   Li  Li Li       Li Li   Li|  
 |Li   |  Li  Li          Li Li            |  
 |     Li          Li Li       Li Li       |  
 |    Li       Li Li       Li Li       Li  |  
 |     |Li Li       Li Li       Li Li      |  
 |  Li |     Li Li       Li Li             |  
 |     | Li Li       Li Li       Li Li     |  
 |Li Li|      Li Li       Li Li            |  
 |     Li Li       Li Li       Li Li       |  
 | Li  |       Li          Li              |  
 |     |Li          Li          Li         |  
 Li    |     Li          Li                |  
 |     |                                   |  
 |     |                                   |  
 |     |                                   |  
 |     |                                   |  
 |     |                                   |  
 |     .-----------------------------------.  
 |    /                                   /   
 |   /                                   /    
 |  /                                   /     
 | /                                   /      
 |/                                   /       
 *-----------------------------------*        

Atomic positions and initial magnetic moments

Positions:
   0 Li     0.000000    0.000000   10.000000    ( 0.0000,  0.0000,  0.0000)
   1 Li     2.467803    1.745000   10.000000    ( 0.0000,  0.0000,  0.0000)
   2 Li     2.467803    0.000000   12.467803    ( 0.0000,  0.0000,  0.0000)
   3 Li     0.000000    1.745000   12.467803    ( 0.0000,  0.0000,  0.0000)
   4 Li     0.000076   -0.014206   14.821421    ( 0.0000,  0.0000,  0.0000)
   5 Li     2.464874    1.825607   14.732232    ( 0.0000,  0.0000,  0.0000)
   6 Li     2.462786    0.008443   16.766070    ( 0.0000,  0.0000,  0.0000)
   7 Li     0.084727    1.643450   17.277903    ( 0.0000,  0.0000,  0.0000)
   8 Li     0.000000    3.490000   10.000000    ( 0.0000,  0.0000,  0.0000)
   9 Li     2.467803    5.235000   10.000000    ( 0.0000,  0.0000,  0.0000)
  10 Li     2.467803    3.490000   12.467803    ( 0.0000,  0.0000,  0.0000)
  11 Li     0.000000    5.235000   12.467803    ( 0.0000,  0.0000,  0.0000)
  12 Li    -0.014685    3.474604   14.897234    ( 0.0000,  0.0000,  0.0000)
  13 Li     2.470185    5.228772   14.938137    ( 0.0000,  0.0000,  0.0000)
  14 Li     2.448530    3.365971   17.338135    ( 0.0000,  0.0000,  0.0000)
  15 Li     0.047759    5.219444   17.290943    ( 0.0000,  0.0000,  0.0000)
  16 Li     0.000000    6.980000   10.000000    ( 0.0000,  0.0000,  0.0000)
  17 Li     2.467803    8.725000   10.000000    ( 0.0000,  0.0000,  0.0000)
  18 Li     2.467803    6.980000   12.467803    ( 0.0000,  0.0000,  0.0000)
  19 Li     0.000000    8.725000   12.467803    ( 0.0000,  0.0000,  0.0000)
  20 Li    -0.013008    7.010233   14.934325    ( 0.0000,  0.0000,  0.0000)
  21 Li     2.471271    8.650410   14.746513    ( 0.0000,  0.0000,  0.0000)
  22 Li     2.454103    7.071963   17.315761    ( 0.0000,  0.0000,  0.0000)
  23 Li     0.092603    8.854467   17.377099    ( 0.0000,  0.0000,  0.0000)
  24 Li     4.935605    0.000000   10.000000    ( 0.0000,  0.0000,  0.0000)
  25 Li     7.403408    1.745000   10.000000    ( 0.0000,  0.0000,  0.0000)
  26 Li     7.403408    0.000000   12.467803    ( 0.0000,  0.0000,  0.0000)
  27 Li     4.935605    1.745000   12.467803    ( 0.0000,  0.0000,  0.0000)
  28 Li     4.933379    0.000515   14.851245    ( 0.0000,  0.0000,  0.0000)
  29 Li     7.411065    1.741640   14.862649    ( 0.0000,  0.0000,  0.0000)
  30 Li     7.380380    0.000475   17.221248    ( 0.0000,  0.0000,  0.0000)
  31 Li     4.830841    1.640735   17.367582    ( 0.0000,  0.0000,  0.0000)
  32 Li     4.935605    3.490000   10.000000    ( 0.0000,  0.0000,  0.0000)
  33 Li     7.403408    5.235000   10.000000    ( 0.0000,  0.0000,  0.0000)
  34 Li     7.403408    3.490000   12.467803    ( 0.0000,  0.0000,  0.0000)
  35 Li     4.935605    5.235000   12.467803    ( 0.0000,  0.0000,  0.0000)
  36 Li     4.950624    3.459910   14.918134    ( 0.0000,  0.0000,  0.0000)
  37 Li     7.399573    5.235770   14.867834    ( 0.0000,  0.0000,  0.0000)
  38 Li     7.352890    3.463950   17.229801    ( 0.0000,  0.0000,  0.0000)
  39 Li     4.878502    5.230031   17.274224    ( 0.0000,  0.0000,  0.0000)
  40 Li     4.935605    6.980000   10.000000    ( 0.0000,  0.0000,  0.0000)
  41 Li     7.403408    8.725000   10.000000    ( 0.0000,  0.0000,  0.0000)
  42 Li     7.403408    6.980000   12.467803    ( 0.0000,  0.0000,  0.0000)
  43 Li     4.935605    8.725000   12.467803    ( 0.0000,  0.0000,  0.0000)
  44 Li     4.948184    7.009237   14.921405    ( 0.0000,  0.0000,  0.0000)
  45 Li     7.411775    8.727542   14.859552    ( 0.0000,  0.0000,  0.0000)
  46 Li     7.352682    7.005632   17.230636    ( 0.0000,  0.0000,  0.0000)
  47 Li     4.830487    8.836811   17.365116    ( 0.0000,  0.0000,  0.0000)
  48 Li     9.871211    0.000000   10.000000    ( 0.0000,  0.0000,  0.0000)
  49 Li    12.339013    1.745000   10.000000    ( 0.0000,  0.0000,  0.0000)
  50 Li    12.339013    0.000000   12.467803    ( 0.0000,  0.0000,  0.0000)
  51 Li     9.871211    1.745000   12.467803    ( 0.0000,  0.0000,  0.0000)
  52 Li     9.868557    0.000895   14.866323    ( 0.0000,  0.0000,  0.0000)
  53 Li    12.335896    1.741607   14.863413    ( 0.0000,  0.0000,  0.0000)
  54 Li    12.376829    0.017843   17.252737    ( 0.0000,  0.0000,  0.0000)
  55 Li     9.875544    1.746200   17.213055    ( 0.0000,  0.0000,  0.0000)
  56 Li     9.871211    3.490000   10.000000    ( 0.0000,  0.0000,  0.0000)
  57 Li    12.339013    5.235000   10.000000    ( 0.0000,  0.0000,  0.0000)
  58 Li    12.339013    3.490000   12.467803    ( 0.0000,  0.0000,  0.0000)
  59 Li     9.871211    5.235000   12.467803    ( 0.0000,  0.0000,  0.0000)
  60 Li     9.869217    3.492995   14.854540    ( 0.0000,  0.0000,  0.0000)
  61 Li    12.340169    5.229801   14.881178    ( 0.0000,  0.0000,  0.0000)
  62 Li    12.403061    3.445511   17.254829    ( 0.0000,  0.0000,  0.0000)
  63 Li     9.881698    5.230365   17.221312    ( 0.0000,  0.0000,  0.0000)
  64 Li     9.871211    6.980000   10.000000    ( 0.0000,  0.0000,  0.0000)
  65 Li    12.339013    8.725000   10.000000    ( 0.0000,  0.0000,  0.0000)
  66 Li    12.339013    6.980000   12.467803    ( 0.0000,  0.0000,  0.0000)
  67 Li     9.871211    8.725000   12.467803    ( 0.0000,  0.0000,  0.0000)
  68 Li     9.871385    6.976258   14.856050    ( 0.0000,  0.0000,  0.0000)
  69 Li    12.328475    8.734259   14.872659    ( 0.0000,  0.0000,  0.0000)
  70 Li    12.398365    7.006741   17.240150    ( 0.0000,  0.0000,  0.0000)
  71 Li     9.881290    8.729007   17.215034    ( 0.0000,  0.0000,  0.0000)
  72 Li     2.056819    0.305859   19.345887    ( 0.0000,  0.0000,  0.0000)

Unit cell:
           periodic     x           y           z      points  spacing
  1. axis:    yes   14.806816    0.000000    0.000000    76     0.1948
  2. axis:    yes    0.000000   10.470000    0.000000    52     0.2013
  3. axis:    no     0.000000    0.000000   27.403408   136     0.2015

  Lengths:  14.806816  10.470000  27.403408
  Angles:   90.000000  90.000000  90.000000

Effective grid spacing dv^(1/3) = 0.1992

     iter     time        total  log10-change:
                         energy   eigst   dens
iter:   1 05:59:33  -127.094007        c
iter:   2 05:59:44  -127.094201        c -3.14
iter:   3 05:59:56  -127.094418c       c -3.29
iter:   4 06:00:07  -127.094688c       c -3.55
iter:   5 06:00:18  -127.094610c       c -3.75
iter:   6 06:00:29  -127.094579c       c -4.03c

Converged after 6 iterations.

Dipole moment: (-16.666217, -11.524965, 0.299204) |e|*Ang

Energy contributions relative to reference atoms: (reference = -14803.510878)

Kinetic:       +134.627099
Potential:     -115.739008
External:        +0.000000
XC:            -144.025145
Entropy (-ST):   -2.104770
Local:           -0.905140
SIC:             +0.000000
--------------------------
Free energy:   -128.146964
Extrapolated:  -127.094579

 Band  Eigenvalues  Occupancy
    0     -6.37712    2.00000
    1     -5.86613    2.00000
    2     -5.84985    2.00000
    3     -5.79152    2.00000
    4     -5.33779    2.00000
    5     -5.33151    2.00000
    6     -5.27041    2.00000
    7     -5.24804    2.00000
    8     -4.83342    2.00000
    9     -4.82697    1.99999
   10     -4.81230    1.99999
   11     -4.80769    1.99999
   12     -4.76975    1.99999
   13     -4.74166    1.99999
   14     -4.68344    1.99999
   15     -4.31607    1.99984
   16     -4.30457    1.99983
   17     -4.26607    1.99978
   18     -4.24630    1.99975
   19     -4.23232    1.99973
   20     -4.21827    1.99970
   21     -4.15857    1.99955
   22     -4.11212    1.99939
   23     -3.72533    1.99197
   24     -3.66638    1.98813
   25     -3.64840    1.98663
   26     -3.63238    1.98514
   27     -3.42498    1.94204
   28     -3.25801    1.83344
   29     -3.25369    1.82900
   30     -3.25223    1.82747
   31     -3.24538    1.82014
   32     -3.16907    1.71769
   33     -3.15862    1.70036
   34     -3.13752    1.66273
   35     -3.13178    1.65188
   36     -2.85416    0.85420
   37     -2.73970    0.51585
   38     -2.67310    0.36462
   39     -2.66154    0.34221
   40     -2.65464    0.32936
   41     -2.64525    0.31249
   42     -2.47595    0.11303
   43     -2.47257    0.11065
   44     -2.35010    0.05047
   45     -2.32811    0.04373
   46     -2.21650    0.02102
   47     -2.07485    0.00823

Fermi level: -2.89821

Gap: 0.278 eV
Transition (v -> c):
  (s=0, k=0, n=35, [0.00, 0.00, 0.00]) -> (s=0, k=0, n=36, [0.00, 0.00, 0.00])
No difference between direct/indirect transitions

Forces in eV/Ang:
  0 Li   -0.00044    0.00077    0.09319
  1 Li    0.00129   -0.00580    0.10340
  2 Li   -0.00037   -0.00530   -0.06246
  3 Li   -0.01287    0.02423   -0.08412
  4 Li   -0.01754    0.00219   -0.00081
  5 Li   -0.00025    0.01944   -0.01373
  6 Li    0.01677   -0.02168   -0.03951
  7 Li   -0.01883    0.02183   -0.00702
  8 Li   -0.01146   -0.00743    0.09494
  9 Li    0.00387   -0.00252    0.10135
 10 Li    0.00041    0.06849   -0.13717
 11 Li   -0.00108    0.00787   -0.01092
 12 Li    0.00175    0.00301   -0.00797
 13 Li   -0.00374   -0.00303   -0.01933
 14 Li    0.00016   -0.01475   -0.00803
 15 Li    0.00528    0.00559    0.00304
 16 Li   -0.01496    0.00653    0.09454
 17 Li    0.00154    0.00846    0.10517
 18 Li   -0.00059   -0.06116   -0.12068
 19 Li   -0.01277   -0.03379   -0.08828
 20 Li    0.00619   -0.00020   -0.01436
 21 Li    0.00076   -0.02772   -0.02425
 22 Li   -0.00598   -0.00705   -0.01361
 23 Li   -0.00579   -0.00546   -0.02720
 24 Li    0.00125    0.00040    0.09064
 25 Li    0.00604    0.00836    0.08199
 26 Li   -0.00499    0.00015   -0.07316
 27 Li    0.01517    0.02038   -0.07834
 28 Li    0.01792    0.00060    0.00395
 29 Li    0.00091   -0.00078   -0.00908
 30 Li    0.01200    0.00128   -0.01325
 31 Li    0.00198    0.01944   -0.00589
 32 Li    0.01309   -0.00537    0.09042
 33 Li    0.01857    0.00224    0.07098
 34 Li    0.00193    0.00075   -0.06232
 35 Li    0.00235    0.00041   -0.00039
 36 Li   -0.00573    0.00136   -0.00793
 37 Li    0.00052    0.00028   -0.00210
 38 Li    0.00331    0.00458   -0.00311
 39 Li   -0.00515   -0.00026    0.00601
 40 Li    0.01719    0.00492    0.09153
 41 Li    0.00809   -0.01065    0.07949
 42 Li    0.00185   -0.00086   -0.06236
 43 Li    0.01585   -0.02108   -0.07756
 44 Li   -0.00581   -0.00168   -0.00346
 45 Li    0.00296    0.00024   -0.00915
 46 Li    0.00390   -0.00502   -0.00469
 47 Li    0.01349   -0.02228   -0.01318
 48 Li   -0.00233   -0.00257    0.08962
 49 Li   -0.00631    0.00774    0.08295
 50 Li    0.00085   -0.00261   -0.07387
 51 Li    0.00002    0.00265   -0.07370
 52 Li    0.00001    0.00091   -0.00831
 53 Li    0.00196   -0.00266    0.00615
 54 Li   -0.02548   -0.01372   -0.01156
 55 Li   -0.00461    0.00400   -0.00681
 56 Li   -0.00237    0.01334    0.07025
 57 Li   -0.02146    0.00107    0.07905
 58 Li   -0.00203    0.00369   -0.06020
 59 Li   -0.00214    0.00013   -0.07247
 60 Li    0.00137    0.00173   -0.00382
 61 Li   -0.00018    0.00327   -0.00310
 62 Li   -0.01931    0.01998   -0.01736
 63 Li   -0.00264    0.00324   -0.00422
 64 Li   -0.00303   -0.01065    0.06584
 65 Li   -0.00866   -0.00883    0.08194
 66 Li   -0.00050   -0.00047   -0.04668
 67 Li   -0.00161   -0.00251   -0.07333
 68 Li    0.00046   -0.00229   -0.00279
 69 Li   -0.00074    0.00026   -0.00815
 70 Li   -0.00416   -0.00306   -0.00306
 71 Li   -0.00328   -0.00629   -0.00353
 72 Li    0.03195    0.02513   -0.00366

Timing:                                       incl.     excl.
--------------------------------------------------------------------
Basic WFS set positions:                      0.070     0.029   0.0% |
 Redistribute:                                0.041     0.041   0.0% |
Basis functions set positions:               14.075    14.075   0.3% |
Forces:                                     217.374     4.952   0.1% |
 LCAO forces:                               212.421     0.207   0.0% |
  Atomic Hamiltonian force:                   0.781     0.781   0.0% |
  Initial:                                    0.040     0.000   0.0% |
   Get density matrix:                        0.040     0.040   0.0% |
  Paw correction:                             0.862     0.862   0.0% |
  Potential:                                198.967   198.967   3.6% ||
  TCI derivative:                            11.563    11.563   0.2% |
  Wait for sum:                               0.001     0.001   0.0% |
LCAO WFS Initialize:                         70.400     0.231   0.0% |
 Density initialized from wave functions:    47.343    13.704   0.2% |
  Calculate density matrix:                   0.246     0.246   0.0% |
  Construct density:                         33.393    33.393   0.6% |
  Symmetrize density:                         0.001     0.001   0.0% |
 Hamiltonian:                                22.826     0.001   0.0% |
  Atomic:                                     5.575     0.025   0.0% |
   XC Correction:                             5.551     5.551   0.1% |
  Calculate atomic Hamiltonians:              0.335     0.335   0.0% |
  Communicate:                                0.001     0.001   0.0% |
  Hartree integrate/restrict:                 0.742     0.742   0.0% |
  Initialize Hamiltonian:                     0.152     0.152   0.0% |
  Poisson:                                    7.327     3.388   0.1% |
   Communicate from 1D:                       0.353     0.353   0.0% |
   Communicate from 2D:                       0.316     0.316   0.0% |
   Communicate to 1D:                         0.224     0.224   0.0% |
   Communicate to 2D:                         0.617     0.617   0.0% |
   FFT 1D:                                    1.056     1.056   0.0% |
   FFT 2D:                                    1.373     1.373   0.0% |
  XC 3D grid:                                 6.706     6.706   0.1% |
  vbar:                                       1.987     1.987   0.0% |
P tci:                                        3.657     3.657   0.1% |
Redistribute:                                 0.008     0.008   0.0% |
SCF-cycle:                                  641.331     0.128   0.0% |
 Density:                                   226.504     0.002   0.0% |
  Atomic density matrices:                    0.168     0.168   0.0% |
  Mix:                                        9.851     9.851   0.2% |
  Multipole moments:                          0.042     0.042   0.0% |
  Normalize:                                  0.022     0.022   0.0% |
  Pseudo density:                           216.418     0.162   0.0% |
   Calculate density matrix:                  0.026     0.026   0.0% |
   Construct density:                       216.221   216.221   3.9% |-|
   Symmetrize density:                        0.010     0.010   0.0% |
 Hamiltonian:                               104.727     0.008   0.0% |
  Atomic:                                    37.194     0.166   0.0% |
   XC Correction:                            37.028    37.028   0.7% |
  Calculate atomic Hamiltonians:              2.140     2.140   0.0% |
  Communicate:                                0.001     0.001   0.0% |
  Hartree integrate/restrict:                 1.170     1.170   0.0% |
  Poisson:                                   28.105     1.890   0.0% |
   Communicate from 1D:                       2.497     2.497   0.0% |
   Communicate from 2D:                       2.067     2.067   0.0% |
   Communicate to 1D:                         1.533     1.533   0.0% |
   Communicate to 2D:                         3.735     3.735   0.1% |
   FFT 1D:                                    7.134     7.134   0.1% |
   FFT 2D:                                    9.249     9.249   0.2% |
  XC 3D grid:                                34.763    34.763   0.6% |
  vbar:                                       1.347     1.347   0.0% |
 LCAO eigensolver:                          309.972     0.090   0.0% |
  Calculate projections:                      0.089     0.089   0.0% |
  DenseAtomicCorrection:                      1.182     1.182   0.0% |
  Distribute overlap matrix:                  0.010     0.010   0.0% |
  Orbital Layouts:                            1.925     1.925   0.0% |
  Potential matrix:                         306.676   306.676   5.5% |-|
ST tci:                                       2.387     2.387   0.0% |
Set symmetry:                                 0.001     0.001   0.0% |
TCI: Evaluate splines:                        0.010     0.010   0.0% |
mktci:                                        1.286     1.286   0.0% |
Other:                                     4611.874  4611.874  82.9% |--------------------------------|
--------------------------------------------------------------------
Total:                                               5562.472 100.0%

Memory usage: 3.67 GiB
Date: Wed Nov 26 06:16:31 2025
