
  ___ ___ ___ _ _ _  
 |   |   |_  | | | | 
 | | | | | . | | | | 
 |__ |  _|___|_____|  25.7.0
 |___|_|             

User:   tew@Mathuss-MacBook-Air-357.local
Date:   Wed Nov 26 04:43:48 2025
Arch:   arm64
Pid:    88448
CWD:    /Users/tew/Documents/Project/GitHub/chem-com
Python: 3.13.5
gpaw:   /Users/tew/Documents/Project/GitHub/chem-com/.venv/lib/python3.13/site-packages/gpaw
_gpaw:  /Users/tew/Documents/Project/GitHub/chem-com/.venv/lib/python3.13/site-packages/
        _gpaw.cpython-313-darwin.so
ase:    /Users/tew/Documents/Project/GitHub/chem-com/.venv/lib/python3.13/site-packages/ase (version 3.26.0)
numpy:  /Users/tew/Documents/Project/GitHub/chem-com/.venv/lib/python3.13/site-packages/numpy (version 2.3.5)
scipy:  /Users/tew/Documents/Project/GitHub/chem-com/.venv/lib/python3.13/site-packages/scipy (version 1.16.3)
libxc:  2.x.y
units:  Angstrom and eV
cores: 1
OpenMP: False
OMP_NUM_THREADS: 1

Input parameters:
  basis: dzp
  convergence: {density: 0.0001,
                eigenstates: 5e-06}
  kpts: [1 1 1]
  mode: {interpolation: 3,
         name: lcao}
  occupations: {fixmagmom: False,
                name: fermi-dirac,
                width: 0.15}
  xc: PBE

System changes: positions, numbers, cell, pbc, initial_charges, initial_magmoms 

Initialize ...

species:
  Li:
    name: Lithium
    id: 830b4218f175192f93f959cfc0aad614
    Z: 3.0
    valence: 1
    core: 2
    charge: 0.0
    file: /Users/tew/Documents/Project/GitHub/chem-com/.venv/lib/python3.13/site-packages/gpaw_data/setups/Li.PBE.gz
    compensation charges: {type: gauss,
                           rc: 0.33,
                           lmax: 2}
    cutoffs: {filter: 1.91,
              core: 2.55}
    projectors:
      #              energy  rcut
      - 2s(1.00)    -2.874   1.058
      - 2p(0.00)    -1.090   1.058
      -  s          24.337   1.058
  
    # LCAO basis set for Li:
    #   Name: dzp
    #   File: /Users/tew/Documents/Project/GitHub/chem-com/.venv/lib/python3.13/site-packages/gpaw_data/setups/Li.dzp.basis.gz
    #   Number of radial functions: 3
    #   Number of spherical harmonics: 5
    #     l=0, rc=10.8906 Bohr: 2s-sz confined orbital
    #     l=0, rc=6.6719 Bohr: 2s-dz split-valence wave
    #     l=1, rc=10.8906 Bohr: p-type Gaussian polarization
    #   Number of RI-basis functions 0

Reference energy: -14803.510878  # eV

Spin-paired calculation

Convergence criteria:
 Maximum [total energy] change in last 3 cyles: 0.0005 eV / valence electron
 Maximum integral of absolute [dens]ity change: 0.0001 electrons / valence electron
 Maximum integral of absolute [eigenst]ate change: 5e-06 eV^2 / valence electron
 Maximum number of scf [iter]ations: 333
 (Square brackets indicate name in SCF output, whereas a 'c' in
 the SCF output indicates the quantity has converged.)

Symmetries present (total): 1

  ( 1  0  0)
  ( 0  1  0)
  ( 0  0  1)

1 k-point (Gamma)
1 k-point in the irreducible part of the Brillouin zone
       k-points in crystal coordinates                weights
   0:     0.00000000    0.00000000    0.00000000          1/1

Wave functions: LCAO
  Diagonalizer: Serial LAPACK
  Atomic Correction: dense with blas
  Data-type: float
 

Occupation numbers: Fermi-Dirac:
  width: 0.1500  # eV
 

Eigensolver
   LCAO using direct dense diagonalizer 

Densities:
  Coarse grid: 76*52*136 grid
  Fine grid: 152*104*272 grid
  Total Charge: 0.000000 

Density mixing:
  Method: separate
  Backend: pulay
  Linear mixing parameter: 0.05
  old densities: 5
  Damping of long wavelength oscillations: 50 

Hamiltonian:
  XC and Coulomb potentials evaluated on a 152*104*272 grid
  Using the PBE Exchange-Correlation functional
  Interpolation: tri-quintic (5. degree polynomial)
  Poisson solver: FastPoissonSolver using
    Stencil: 6*3+1=19 point O(h^6) finite-difference Laplacian
    FFT axes: [np.int64(0), np.int64(1)]
    FST axes: [np.int64(2)]
 

XC parameters: PBE with 2 nearest neighbor stencil

Memory estimate:
  Process memory now: 3762.67 MiB
  Calculator: 680.35 MiB
    Density: 353.33 MiB
      Arrays: 106.19 MiB
      Localized functions: 206.43 MiB
      Mixer: 40.70 MiB
    Hamiltonian: 85.76 MiB
      Arrays: 69.44 MiB
      XC: 0.00 MiB
      Poisson: 0.00 MiB
      vbar: 16.32 MiB
    Wavefunctions: 241.26 MiB
      C [qnM]: 0.13 MiB
      S, T [2 x qmm]: 2.03 MiB
      P [aqMi]: 0.13 MiB
      BasisFunctions: 238.97 MiB
      Eigensolver: 0.00 MiB

Total number of cores used: 1

Number of atoms: 73
Number of atomic orbitals: 365
Number of bands in calculation: 48
Number of valence electrons: 73
Bands to converge: occupied

... initialized

Initializing position-dependent things.

Density initialized from atomic densities
       .-----------------------------------.  
      /|                                   |  
     / |                                   |  
    /  |                                   |  
   /   |                                   |  
  /    |                                   |  
 *     |                                   |  
 |     |                                   |  
 |     |                                   |  
 |     |                                   |  
 |     |                                   |  
 |     |                                   |  
 |     |                                   |  
 |    Li                                   |  
 |     |          Li          Li           |  
 | Li  |   Li          Li          Li      |  
 |  Li Li       Li          Li      Li     |  
 |     | Li Li       Li Li       Li      Li|  
 |Li   Li Li  Li Li       Li LiLi Li       |  
 |     |           Li Li                   |  
 |    Li       Li Li       Li Li       Li  |  
 |     |Li Li       Li Li       Li Li      |  
 |  Li |     Li Li       Li Li             |  
 |     | Li Li       Li Li       Li Li     |  
 |Li Li|      Li Li       Li Li            |  
 |     Li Li       Li Li       Li Li       |  
 | Li  |       Li          Li              |  
 |     |Li          Li          Li         |  
 Li    |     Li          Li                |  
 |     |                                   |  
 |     |                                   |  
 |     |                                   |  
 |     |                                   |  
 |     |                                   |  
 |     .-----------------------------------.  
 |    /                                   /   
 |   /                                   /    
 |  /                                   /     
 | /                                   /      
 |/                                   /       
 *-----------------------------------*        

Atomic positions and initial magnetic moments

Positions:
   0 Li     0.000000    0.000000   10.000000    ( 0.0000,  0.0000,  0.0000)
   1 Li     2.467803    1.745000   10.000000    ( 0.0000,  0.0000,  0.0000)
   2 Li     2.467803    0.000000   12.467803    ( 0.0000,  0.0000,  0.0000)
   3 Li     0.000000    1.745000   12.467803    ( 0.0000,  0.0000,  0.0000)
   4 Li     0.001408   -0.071156   14.737993    ( 0.0000,  0.0000,  0.0000)
   5 Li     2.453996    1.761037   14.820106    ( 0.0000,  0.0000,  0.0000)
   6 Li     2.372542    0.113986   17.282368    ( 0.0000,  0.0000,  0.0000)
   7 Li     0.019380    1.720262   16.823233    ( 0.0000,  0.0000,  0.0000)
   8 Li     0.000000    3.490000   10.000000    ( 0.0000,  0.0000,  0.0000)
   9 Li     2.467803    5.235000   10.000000    ( 0.0000,  0.0000,  0.0000)
  10 Li     2.467803    3.490000   12.467803    ( 0.0000,  0.0000,  0.0000)
  11 Li     0.000000    5.235000   12.467803    ( 0.0000,  0.0000,  0.0000)
  12 Li    -0.003208    3.555514   14.755445    ( 0.0000,  0.0000,  0.0000)
  13 Li     2.485633    5.206357   14.937520    ( 0.0000,  0.0000,  0.0000)
  14 Li     2.373004    3.357861   17.387270    ( 0.0000,  0.0000,  0.0000)
  15 Li     0.009116    5.142372   17.319841    ( 0.0000,  0.0000,  0.0000)
  16 Li     0.000000    6.980000   10.000000    ( 0.0000,  0.0000,  0.0000)
  17 Li     2.467803    8.725000   10.000000    ( 0.0000,  0.0000,  0.0000)
  18 Li     2.467803    6.980000   12.467803    ( 0.0000,  0.0000,  0.0000)
  19 Li     0.000000    8.725000   12.467803    ( 0.0000,  0.0000,  0.0000)
  20 Li    -0.003208    6.987239   14.950626    ( 0.0000,  0.0000,  0.0000)
  21 Li     2.485198    8.738449   14.896126    ( 0.0000,  0.0000,  0.0000)
  22 Li     2.421119    7.000464   17.286921    ( 0.0000,  0.0000,  0.0000)
  23 Li     0.019380    8.840829   17.338896    ( 0.0000,  0.0000,  0.0000)
  24 Li     4.935605    0.000000   10.000000    ( 0.0000,  0.0000,  0.0000)
  25 Li     7.403408    1.745000   10.000000    ( 0.0000,  0.0000,  0.0000)
  26 Li     7.403408    0.000000   12.467803    ( 0.0000,  0.0000,  0.0000)
  27 Li     4.935605    1.745000   12.467803    ( 0.0000,  0.0000,  0.0000)
  28 Li     4.942238    0.001922   14.858411    ( 0.0000,  0.0000,  0.0000)
  29 Li     7.404901    1.745195   14.869359    ( 0.0000,  0.0000,  0.0000)
  30 Li     7.397542    0.000567   17.214821    ( 0.0000,  0.0000,  0.0000)
  31 Li     4.884662    1.722365   17.257294    ( 0.0000,  0.0000,  0.0000)
  32 Li     4.935605    3.490000   10.000000    ( 0.0000,  0.0000,  0.0000)
  33 Li     7.403408    5.235000   10.000000    ( 0.0000,  0.0000,  0.0000)
  34 Li     7.403408    3.490000   12.467803    ( 0.0000,  0.0000,  0.0000)
  35 Li     4.935605    5.235000   12.467803    ( 0.0000,  0.0000,  0.0000)
  36 Li     4.947284    3.481907   14.873154    ( 0.0000,  0.0000,  0.0000)
  37 Li     7.402458    5.237309   14.856817    ( 0.0000,  0.0000,  0.0000)
  38 Li     7.392978    3.484071   17.216477    ( 0.0000,  0.0000,  0.0000)
  39 Li     4.873734    5.207681   17.240245    ( 0.0000,  0.0000,  0.0000)
  40 Li     4.935605    6.980000   10.000000    ( 0.0000,  0.0000,  0.0000)
  41 Li     7.403408    8.725000   10.000000    ( 0.0000,  0.0000,  0.0000)
  42 Li     7.403408    6.980000   12.467803    ( 0.0000,  0.0000,  0.0000)
  43 Li     4.935605    8.725000   12.467803    ( 0.0000,  0.0000,  0.0000)
  44 Li     4.934240    6.986483   14.877655    ( 0.0000,  0.0000,  0.0000)
  45 Li     7.404901    8.722847   14.855272    ( 0.0000,  0.0000,  0.0000)
  46 Li     7.392978    6.985531   17.223774    ( 0.0000,  0.0000,  0.0000)
  47 Li     4.863508    8.775642   17.260007    ( 0.0000,  0.0000,  0.0000)
  48 Li     9.871211    0.000000   10.000000    ( 0.0000,  0.0000,  0.0000)
  49 Li    12.339013    1.745000   10.000000    ( 0.0000,  0.0000,  0.0000)
  50 Li    12.339013    0.000000   12.467803    ( 0.0000,  0.0000,  0.0000)
  51 Li     9.871211    1.745000   12.467803    ( 0.0000,  0.0000,  0.0000)
  52 Li     9.862754    0.001922   14.863147    ( 0.0000,  0.0000,  0.0000)
  53 Li    12.351223    1.745261   14.845973    ( 0.0000,  0.0000,  0.0000)
  54 Li    12.439471    0.113986   17.370308    ( 0.0000,  0.0000,  0.0000)
  55 Li     9.902550    1.745373   17.226288    ( 0.0000,  0.0000,  0.0000)
  56 Li     9.871211    3.490000   10.000000    ( 0.0000,  0.0000,  0.0000)
  57 Li    12.339013    5.235000   10.000000    ( 0.0000,  0.0000,  0.0000)
  58 Li    12.339013    3.490000   12.467803    ( 0.0000,  0.0000,  0.0000)
  59 Li     9.871211    5.235000   12.467803    ( 0.0000,  0.0000,  0.0000)
  60 Li     9.862648    3.488337   14.859937    ( 0.0000,  0.0000,  0.0000)
  61 Li    12.322282    5.206357   14.924245    ( 0.0000,  0.0000,  0.0000)
  62 Li    12.443849    3.371042   17.371503    ( 0.0000,  0.0000,  0.0000)
  63 Li     9.924066    5.207681   17.230409    ( 0.0000,  0.0000,  0.0000)
  64 Li     9.871211    6.980000   10.000000    ( 0.0000,  0.0000,  0.0000)
  65 Li    12.339013    8.725000   10.000000    ( 0.0000,  0.0000,  0.0000)
  66 Li    12.339013    6.980000   12.467803    ( 0.0000,  0.0000,  0.0000)
  67 Li     9.871211    8.725000   12.467803    ( 0.0000,  0.0000,  0.0000)
  68 Li     9.875692    6.980053   14.864438    ( 0.0000,  0.0000,  0.0000)
  69 Li    12.320021    8.754225   14.921993    ( 0.0000,  0.0000,  0.0000)
  70 Li    12.395734    6.987284   17.271153    ( 0.0000,  0.0000,  0.0000)
  71 Li     9.923703    8.752634   17.229001    ( 0.0000,  0.0000,  0.0000)
  72 Li     0.411481    1.454823   19.305822    ( 0.0000,  0.0000,  0.0000)

Unit cell:
           periodic     x           y           z      points  spacing
  1. axis:    yes   14.806816    0.000000    0.000000    76     0.1948
  2. axis:    yes    0.000000   10.470000    0.000000    52     0.2013
  3. axis:    no     0.000000    0.000000   27.403408   136     0.2015

  Lengths:  14.806816  10.470000  27.403408
  Angles:   90.000000  90.000000  90.000000

Effective grid spacing dv^(1/3) = 0.1992

     iter     time        total  log10-change:
                         energy   eigst   dens
iter:   1 05:03:05  -134.722346        c
iter:   2 05:03:16  -131.064269        c -0.63
iter:   3 05:03:26  -128.320077        c -0.77
iter:   4 05:03:37  -127.898981        c -0.98
iter:   5 05:03:49  -127.218451        c -1.08
iter:   6 05:04:00  -127.248925        c -1.42
iter:   7 05:04:12  -127.125949        c -1.46
iter:   8 05:04:23  -127.090727        c -1.71
iter:   9 05:04:34  -127.082189        c -1.96
iter:  10 05:04:46  -127.079480c       c -2.10
iter:  11 05:04:57  -127.077929c       c -2.27
iter:  12 05:05:09  -127.075750c       c -2.37
iter:  13 05:05:20  -127.074630c       c -2.62
iter:  14 05:05:31  -127.073540c       c -2.70
iter:  15 05:05:42  -127.073896c       c -2.79
iter:  16 05:05:54  -127.074417c       c -2.89
iter:  17 05:06:05  -127.074572c       c -2.95
iter:  18 05:06:17  -127.074662c       c -3.01
iter:  19 05:06:30  -127.074426c       c -3.17
iter:  20 05:06:41  -127.074445c       c -3.33
iter:  21 05:06:51  -127.074753c       c -3.45
iter:  22 05:07:04  -127.074890c       c -3.67
iter:  23 05:07:14  -127.074920c       c -3.82
iter:  24 05:07:25  -127.074908c       c -3.94
iter:  25 05:07:36  -127.074866c       c -4.02c

Converged after 25 iterations.

Dipole moment: (-18.251681, -10.556827, 0.281299) |e|*Ang

Energy contributions relative to reference atoms: (reference = -14803.510878)

Kinetic:       +134.868646
Potential:     -115.890219
External:        +0.000000
XC:            -144.077706
Entropy (-ST):   -2.105486
Local:           -0.922844
SIC:             +0.000000
--------------------------
Free energy:   -128.127609
Extrapolated:  -127.074866

 Band  Eigenvalues  Occupancy
    0     -6.38246    2.00000
    1     -5.87107    2.00000
    2     -5.85557    2.00000
    3     -5.79768    2.00000
    4     -5.34335    2.00000
    5     -5.33649    2.00000
    6     -5.27651    2.00000
    7     -5.25415    2.00000
    8     -4.83871    1.99999
    9     -4.83172    1.99999
   10     -4.81836    1.99999
   11     -4.81310    1.99999
   12     -4.77732    1.99999
   13     -4.74733    1.99999
   14     -4.68902    1.99999
   15     -4.32164    1.99984
   16     -4.31009    1.99983
   17     -4.27252    1.99978
   18     -4.25228    1.99975
   19     -4.23913    1.99973
   20     -4.22376    1.99970
   21     -4.16390    1.99955
   22     -4.11888    1.99939
   23     -3.73135    1.99195
   24     -3.67349    1.98819
   25     -3.65371    1.98653
   26     -3.63980    1.98523
   27     -3.43023    1.94160
   28     -3.26400    1.83300
   29     -3.25902    1.82785
   30     -3.25815    1.82694
   31     -3.25023    1.81841
   32     -3.17467    1.71634
   33     -3.16620    1.70232
   34     -3.14499    1.66469
   35     -3.13824    1.65194
   36     -2.85981    0.85168
   37     -2.74929    0.52397
   38     -2.68055    0.36666
   39     -2.66804    0.34235
   40     -2.66028    0.32792
   41     -2.64947    0.30864
   42     -2.48301    0.11348
   43     -2.47900    0.11065
   44     -2.35363    0.04952
   45     -2.33361    0.04347
   46     -2.22308    0.02104
   47     -2.07932    0.00812

Fermi level: -2.90464

Gap: 0.278 eV
Transition (v -> c):
  (s=0, k=0, n=35, [0.00, 0.00, 0.00]) -> (s=0, k=0, n=36, [0.00, 0.00, 0.00])
No difference between direct/indirect transitions

Forces in eV/Ang:
  0 Li   -0.00090    0.00803    0.10265
  1 Li    0.00078    0.00123    0.09432
  2 Li    0.01007   -0.02292   -0.08312
  3 Li   -0.00136    0.00707   -0.06987
  4 Li   -0.00171   -0.02268   -0.00257
  5 Li    0.03569   -0.00176    0.01016
  6 Li    0.04351   -0.05467   -0.01679
  7 Li   -0.07126    0.06334   -0.24848
  8 Li   -0.00113   -0.01035    0.10379
  9 Li    0.01472   -0.00652    0.09573
 10 Li    0.01001    0.03305   -0.08649
 11 Li   -0.00121    0.05824   -0.10882
 12 Li   -0.00452    0.02155   -0.00672
 13 Li   -0.01738   -0.00210   -0.01881
 14 Li    0.00919    0.01885   -0.03426
 15 Li    0.01123    0.00080   -0.00925
 16 Li   -0.00478    0.00223    0.10098
 17 Li    0.01255    0.00547    0.09592
 18 Li   -0.00065   -0.00781   -0.00914
 19 Li   -0.00235   -0.06731   -0.12662
 20 Li    0.00209   -0.00011   -0.03723
 21 Li   -0.01113    0.00594   -0.00420
 22 Li   -0.00675   -0.01298    0.00875
 23 Li   -0.00551    0.03442   -0.00080
 24 Li    0.00714   -0.00650    0.08360
 25 Li    0.00188    0.00239    0.08856
 26 Li   -0.00150   -0.00116   -0.07468
 27 Li    0.00137    0.00467   -0.07472
 28 Li   -0.00883    0.00869    0.01581
 29 Li    0.00077   -0.00122   -0.01322
 30 Li    0.00608   -0.00103   -0.00683
 31 Li    0.03877    0.01822   -0.01860
 32 Li    0.00827    0.00556    0.08215
 33 Li    0.00355    0.01316    0.06435
 34 Li   -0.00005    0.00040   -0.07359
 35 Li    0.00403    0.00071   -0.04823
 36 Li   -0.00216   -0.00900   -0.00540
 37 Li    0.00076    0.00670   -0.00447
 38 Li    0.00136    0.00295   -0.00174
 39 Li    0.00688    0.00766   -0.00390
 40 Li    0.02212    0.00095    0.07794
 41 Li    0.00273   -0.01567    0.06824
 42 Li    0.00029    0.00059   -0.07322
 43 Li    0.00540   -0.00572   -0.06503
 44 Li    0.00666   -0.00137    0.00752
 45 Li   -0.00031   -0.00609   -0.00574
 46 Li    0.00000   -0.00225   -0.00543
 47 Li    0.02605   -0.02304   -0.02417
 48 Li   -0.00720   -0.00912    0.08346
 49 Li   -0.00099    0.00159    0.09062
 50 Li   -0.01106   -0.02122   -0.07809
 51 Li    0.00436    0.00063   -0.07082
 52 Li    0.00088    0.00897   -0.00523
 53 Li   -0.02356    0.00091    0.02344
 54 Li    0.00850   -0.03796   -0.00699
 55 Li   -0.02866   -0.00080   -0.01975
 56 Li   -0.00799    0.00953    0.08051
 57 Li   -0.01740   -0.00292    0.09166
 58 Li   -0.01130    0.02097   -0.07760
 59 Li   -0.00376    0.00096   -0.06331
 60 Li   -0.00116   -0.00814   -0.00502
 61 Li    0.01596    0.00045   -0.00658
 62 Li   -0.00451    0.02835   -0.01777
 63 Li   -0.00577    0.00931   -0.00460
 64 Li   -0.01850   -0.00036    0.07115
 65 Li   -0.01464    0.00142    0.09031
 66 Li    0.00135    0.00069    0.00121
 67 Li   -0.00383   -0.00163   -0.06411
 68 Li   -0.00610   -0.00054    0.00653
 69 Li    0.01555    0.00277   -0.01452
 70 Li    0.00175   -0.00249    0.01235
 71 Li   -0.00651   -0.00690   -0.00181
 72 Li   -0.02248   -0.03485    0.15745

System changes: positions 

Initializing position-dependent things.

Density initialized from wave functions
       .-----------------------------------.  
      /|                                   |  
     / |                                   |  
    /  |                                   |  
   /   |                                   |  
  /    |                                   |  
 *     |                                   |  
 |     |                                   |  
 |     |                                   |  
 |     |                                   |  
 |     |                                   |  
 |     |                                   |  
 |     |                                   |  
 |    Li                                   |  
 |     |          Li          Li           |  
 | Li  |   Li          Li          Li      |  
 |  Li Li       Li          Li      Li     |  
 |     | Li Li       Li Li       Li      Li|  
 |Li   Li Li  Li Li       Li LiLi Li       |  
 |     |           Li Li                   |  
 |    Li       Li Li       Li Li       Li  |  
 |     |Li Li       Li Li       Li Li      |  
 |  Li |     Li Li       Li Li             |  
 |     | Li Li       Li Li       Li Li     |  
 |Li Li|      Li Li       Li Li            |  
 |     Li Li       Li Li       Li Li       |  
 | Li  |       Li          Li              |  
 |     |Li          Li          Li         |  
 Li    |     Li          Li                |  
 |     |                                   |  
 |     |                                   |  
 |     |                                   |  
 |     |                                   |  
 |     |                                   |  
 |     .-----------------------------------.  
 |    /                                   /   
 |   /                                   /    
 |  /                                   /     
 | /                                   /      
 |/                                   /       
 *-----------------------------------*        

Atomic positions and initial magnetic moments

Positions:
   0 Li     0.000000    0.000000   10.000000    ( 0.0000,  0.0000,  0.0000)
   1 Li     2.467803    1.745000   10.000000    ( 0.0000,  0.0000,  0.0000)
   2 Li     2.467803    0.000000   12.467803    ( 0.0000,  0.0000,  0.0000)
   3 Li     0.000000    1.745000   12.467803    ( 0.0000,  0.0000,  0.0000)
   4 Li     0.001392   -0.071370   14.737985    ( 0.0000,  0.0000,  0.0000)
   5 Li     2.454356    1.761033   14.820188    ( 0.0000,  0.0000,  0.0000)
   6 Li     2.372993    0.113419   17.282097    ( 0.0000,  0.0000,  0.0000)
   7 Li     0.018685    1.720875   16.820851    ( 0.0000,  0.0000,  0.0000)
   8 Li     0.000000    3.490000   10.000000    ( 0.0000,  0.0000,  0.0000)
   9 Li     2.467803    5.235000   10.000000    ( 0.0000,  0.0000,  0.0000)
  10 Li     2.467803    3.490000   12.467803    ( 0.0000,  0.0000,  0.0000)
  11 Li     0.000000    5.235000   12.467803    ( 0.0000,  0.0000,  0.0000)
  12 Li    -0.003256    3.555712   14.755410    ( 0.0000,  0.0000,  0.0000)
  13 Li     2.485456    5.206341   14.937334    ( 0.0000,  0.0000,  0.0000)
  14 Li     2.373112    3.358053   17.386917    ( 0.0000,  0.0000,  0.0000)
  15 Li     0.009237    5.142397   17.319742    ( 0.0000,  0.0000,  0.0000)
  16 Li     0.000000    6.980000   10.000000    ( 0.0000,  0.0000,  0.0000)
  17 Li     2.467803    8.725000   10.000000    ( 0.0000,  0.0000,  0.0000)
  18 Li     2.467803    6.980000   12.467803    ( 0.0000,  0.0000,  0.0000)
  19 Li     0.000000    8.725000   12.467803    ( 0.0000,  0.0000,  0.0000)
  20 Li    -0.003190    6.987243   14.950252    ( 0.0000,  0.0000,  0.0000)
  21 Li     2.485083    8.738490   14.896051    ( 0.0000,  0.0000,  0.0000)
  22 Li     2.421059    7.000351   17.287015    ( 0.0000,  0.0000,  0.0000)
  23 Li     0.019342    8.841177   17.338899    ( 0.0000,  0.0000,  0.0000)
  24 Li     4.935605    0.000000   10.000000    ( 0.0000,  0.0000,  0.0000)
  25 Li     7.403408    1.745000   10.000000    ( 0.0000,  0.0000,  0.0000)
  26 Li     7.403408    0.000000   12.467803    ( 0.0000,  0.0000,  0.0000)
  27 Li     4.935605    1.745000   12.467803    ( 0.0000,  0.0000,  0.0000)
  28 Li     4.942147    0.002008   14.858566    ( 0.0000,  0.0000,  0.0000)
  29 Li     7.404910    1.745182   14.869226    ( 0.0000,  0.0000,  0.0000)
  30 Li     7.397598    0.000557   17.214755    ( 0.0000,  0.0000,  0.0000)
  31 Li     4.885037    1.722527   17.257133    ( 0.0000,  0.0000,  0.0000)
  32 Li     4.935605    3.490000   10.000000    ( 0.0000,  0.0000,  0.0000)
  33 Li     7.403408    5.235000   10.000000    ( 0.0000,  0.0000,  0.0000)
  34 Li     7.403408    3.490000   12.467803    ( 0.0000,  0.0000,  0.0000)
  35 Li     4.935605    5.235000   12.467803    ( 0.0000,  0.0000,  0.0000)
  36 Li     4.947263    3.481812   14.873111    ( 0.0000,  0.0000,  0.0000)
  37 Li     7.402465    5.237376   14.856775    ( 0.0000,  0.0000,  0.0000)
  38 Li     7.392982    3.484096   17.216463    ( 0.0000,  0.0000,  0.0000)
  39 Li     4.873805    5.207763   17.240213    ( 0.0000,  0.0000,  0.0000)
  40 Li     4.935605    6.980000   10.000000    ( 0.0000,  0.0000,  0.0000)
  41 Li     7.403408    8.725000   10.000000    ( 0.0000,  0.0000,  0.0000)
  42 Li     7.403408    6.980000   12.467803    ( 0.0000,  0.0000,  0.0000)
  43 Li     4.935605    8.725000   12.467803    ( 0.0000,  0.0000,  0.0000)
  44 Li     4.934310    6.986475   14.877741    ( 0.0000,  0.0000,  0.0000)
  45 Li     7.404899    8.722787   14.855216    ( 0.0000,  0.0000,  0.0000)
  46 Li     7.392969    6.985513   17.223721    ( 0.0000,  0.0000,  0.0000)
  47 Li     4.863760    8.775427   17.259790    ( 0.0000,  0.0000,  0.0000)
  48 Li     9.871211    0.000000   10.000000    ( 0.0000,  0.0000,  0.0000)
  49 Li    12.339013    1.745000   10.000000    ( 0.0000,  0.0000,  0.0000)
  50 Li    12.339013    0.000000   12.467803    ( 0.0000,  0.0000,  0.0000)
  51 Li     9.871211    1.745000   12.467803    ( 0.0000,  0.0000,  0.0000)
  52 Li     9.862764    0.002011   14.863096    ( 0.0000,  0.0000,  0.0000)
  53 Li    12.350983    1.745270   14.846210    ( 0.0000,  0.0000,  0.0000)
  54 Li    12.439544    0.113586   17.370213    ( 0.0000,  0.0000,  0.0000)
  55 Li     9.902257    1.745365   17.226087    ( 0.0000,  0.0000,  0.0000)
  56 Li     9.871211    3.490000   10.000000    ( 0.0000,  0.0000,  0.0000)
  57 Li    12.339013    5.235000   10.000000    ( 0.0000,  0.0000,  0.0000)
  58 Li    12.339013    3.490000   12.467803    ( 0.0000,  0.0000,  0.0000)
  59 Li     9.871211    5.235000   12.467803    ( 0.0000,  0.0000,  0.0000)
  60 Li     9.862637    3.488257   14.859886    ( 0.0000,  0.0000,  0.0000)
  61 Li    12.322446    5.206367   14.924170    ( 0.0000,  0.0000,  0.0000)
  62 Li    12.443797    3.371341   17.371300    ( 0.0000,  0.0000,  0.0000)
  63 Li     9.923999    5.207779   17.230361    ( 0.0000,  0.0000,  0.0000)
  64 Li     9.871211    6.980000   10.000000    ( 0.0000,  0.0000,  0.0000)
  65 Li    12.339013    8.725000   10.000000    ( 0.0000,  0.0000,  0.0000)
  66 Li    12.339013    6.980000   12.467803    ( 0.0000,  0.0000,  0.0000)
  67 Li     9.871211    8.725000   12.467803    ( 0.0000,  0.0000,  0.0000)
  68 Li     9.875630    6.980047   14.864502    ( 0.0000,  0.0000,  0.0000)
  69 Li    12.320179    8.754248   14.921837    ( 0.0000,  0.0000,  0.0000)
  70 Li    12.395752    6.987263   17.271270    ( 0.0000,  0.0000,  0.0000)
  71 Li     9.923629    8.752560   17.228980    ( 0.0000,  0.0000,  0.0000)
  72 Li     0.411622    1.454215   19.307400    ( 0.0000,  0.0000,  0.0000)

Unit cell:
           periodic     x           y           z      points  spacing
  1. axis:    yes   14.806816    0.000000    0.000000    76     0.1948
  2. axis:    yes    0.000000   10.470000    0.000000    52     0.2013
  3. axis:    no     0.000000    0.000000   27.403408   136     0.2015

  Lengths:  14.806816  10.470000  27.403408
  Angles:   90.000000  90.000000  90.000000

Effective grid spacing dv^(1/3) = 0.1992

     iter     time        total  log10-change:
                         energy   eigst   dens
iter:   1 05:14:03  -127.076035        c
iter:   2 05:14:14  -127.076012        c -3.70
iter:   3 05:14:25  -127.076029c       c -3.97
iter:   4 05:14:37  -127.076056c       c -4.21c

Converged after 4 iterations.

Dipole moment: (-18.238736, -10.546802, 0.282307) |e|*Ang

Energy contributions relative to reference atoms: (reference = -14803.510878)

Kinetic:       +134.844547
Potential:     -115.890137
External:        +0.000000
XC:            -144.072505
Entropy (-ST):   -2.105447
Local:           -0.905237
SIC:             +0.000000
--------------------------
Free energy:   -128.128780
Extrapolated:  -127.076056

 Band  Eigenvalues  Occupancy
    0     -6.38203    2.00000
    1     -5.87065    2.00000
    2     -5.85514    2.00000
    3     -5.79720    2.00000
    4     -5.34292    2.00000
    5     -5.33607    2.00000
    6     -5.27602    2.00000
    7     -5.25366    2.00000
    8     -4.83827    1.99999
    9     -4.83131    1.99999
   10     -4.81792    1.99999
   11     -4.81267    1.99999
   12     -4.77679    1.99999
   13     -4.74686    1.99999
   14     -4.68853    1.99999
   15     -4.32119    1.99984
   16     -4.30966    1.99983
   17     -4.27202    1.99978
   18     -4.25179    1.99975
   19     -4.23861    1.99973
   20     -4.22329    1.99970
   21     -4.16342    1.99955
   22     -4.11832    1.99939
   23     -3.73085    1.99195
   24     -3.67296    1.98818
   25     -3.65323    1.98653
   26     -3.63922    1.98523
   27     -3.42977    1.94162
   28     -3.26356    1.83307
   29     -3.25858    1.82793
   30     -3.25772    1.82702
   31     -3.24981    1.81851
   32     -3.17417    1.71636
   33     -3.16560    1.70218
   34     -3.14441    1.66457
   35     -3.13771    1.65190
   36     -2.85932    0.85175
   37     -2.74864    0.52363
   38     -2.68004    0.36666
   39     -2.66751    0.34232
   40     -2.65979    0.32796
   41     -2.64906    0.30881
   42     -2.48244    0.11344
   43     -2.47846    0.11063
   44     -2.35327    0.04957
   45     -2.33319    0.04350
   46     -2.22256    0.02104
   47     -2.07890    0.00813

Fermi level: -2.90413

Gap: 0.278 eV
Transition (v -> c):
  (s=0, k=0, n=35, [0.00, 0.00, 0.00]) -> (s=0, k=0, n=36, [0.00, 0.00, 0.00])
No difference between direct/indirect transitions

Forces in eV/Ang:
  0 Li   -0.00090    0.00819    0.10251
  1 Li    0.00078    0.00119    0.09414
  2 Li    0.01017   -0.02290   -0.08274
  3 Li   -0.00135    0.00704   -0.06884
  4 Li   -0.00163   -0.02291   -0.00429
  5 Li    0.03532   -0.00177    0.00891
  6 Li    0.04227   -0.05323   -0.01581
  7 Li   -0.06924    0.06183   -0.23846
  8 Li   -0.00114   -0.01053    0.10371
  9 Li    0.01478   -0.00657    0.09594
 10 Li    0.01012    0.03305   -0.08623
 11 Li   -0.00123    0.05832   -0.10893
 12 Li   -0.00443    0.02214   -0.00846
 13 Li   -0.01730   -0.00217   -0.01883
 14 Li    0.00881    0.01813   -0.03367
 15 Li    0.01106    0.00114   -0.00900
 16 Li   -0.00479    0.00224    0.10125
 17 Li    0.01261    0.00557    0.09606
 18 Li   -0.00053   -0.00781   -0.00926
 19 Li   -0.00238   -0.06739   -0.12659
 20 Li    0.00211    0.00001   -0.03691
 21 Li   -0.01105    0.00577   -0.00450
 22 Li   -0.00672   -0.01274    0.00892
 23 Li   -0.00529    0.03380   -0.00049
 24 Li    0.00708   -0.00648    0.08359
 25 Li    0.00184    0.00239    0.08866
 26 Li   -0.00148   -0.00111   -0.07454
 27 Li    0.00155    0.00464   -0.07464
 28 Li   -0.00883    0.00858    0.01539
 29 Li    0.00081   -0.00121   -0.01328
 30 Li    0.00597   -0.00112   -0.00683
 31 Li    0.03848    0.01805   -0.01834
 32 Li    0.00824    0.00553    0.08219
 33 Li    0.00356    0.01316    0.06435
 34 Li   -0.00005    0.00034   -0.07344
 35 Li    0.00409    0.00078   -0.04806
 36 Li   -0.00220   -0.00882   -0.00557
 37 Li    0.00077    0.00650   -0.00471
 38 Li    0.00142    0.00307   -0.00178
 39 Li    0.00677    0.00753   -0.00372
 40 Li    0.02221    0.00096    0.07809
 41 Li    0.00273   -0.01567    0.06824
 42 Li    0.00027    0.00059   -0.07301
 43 Li    0.00549   -0.00577   -0.06478
 44 Li    0.00637   -0.00139    0.00700
 45 Li   -0.00024   -0.00589   -0.00595
 46 Li    0.00013   -0.00227   -0.00526
 47 Li    0.02588   -0.02297   -0.02389
 48 Li   -0.00714   -0.00911    0.08350
 49 Li   -0.00097    0.00158    0.09048
 50 Li   -0.01118   -0.02121   -0.07780
 51 Li    0.00415    0.00062   -0.07076
 52 Li    0.00085    0.00873   -0.00550
 53 Li   -0.02345    0.00086    0.02223
 54 Li    0.00831   -0.03721   -0.00666
 55 Li   -0.02809   -0.00079   -0.01943
 56 Li   -0.00795    0.00952    0.08054
 57 Li   -0.01747   -0.00297    0.09187
 58 Li   -0.01144    0.02100   -0.07736
 59 Li   -0.00376    0.00099   -0.06303
 60 Li   -0.00122   -0.00794   -0.00529
 61 Li    0.01594    0.00034   -0.00665
 62 Li   -0.00481    0.02804   -0.01739
 63 Li   -0.00570    0.00922   -0.00441
 64 Li   -0.01856   -0.00037    0.07119
 65 Li   -0.01468    0.00149    0.09047
 66 Li    0.00122    0.00066    0.00115
 67 Li   -0.00385   -0.00165   -0.06382
 68 Li   -0.00588   -0.00050    0.00605
 69 Li    0.01548    0.00279   -0.01454
 70 Li    0.00189   -0.00240    0.01254
 71 Li   -0.00638   -0.00687   -0.00168
 72 Li   -0.02260   -0.03461    0.14966

System changes: positions 

Initializing position-dependent things.

Density initialized from wave functions
       .-----------------------------------.  
      /|                                   |  
     / |                                   |  
    /  |                                   |  
   /   |                                   |  
  /    |                                   |  
 *     |                                   |  
 |     |                                   |  
 |     |                                   |  
 |     |                                   |  
 |     |                                   |  
 |     |                                   |  
 |     |                                   |  
 |    Li                                   |  
 |     |          Li          Li           |  
 | Li  |   Li          Li          Li      |  
 |  Li Li       Li          Li      Li     |  
 |     | Li Li       Li Li       Li      Li|  
 |Li   Li Li  Li Li       Li LiLi Li       |  
 |     |           Li Li                   |  
 |    Li       Li Li       Li Li       Li  |  
 |     |Li Li       Li Li       Li Li      |  
 |  Li |     Li Li       Li Li             |  
 |     | Li Li       Li Li       Li Li     |  
 |Li Li|      Li Li       Li Li            |  
 |     Li Li       Li Li       Li Li       |  
 | Li  |       Li          Li              |  
 |     |Li          Li          Li         |  
 Li    |     Li          Li                |  
 |     |                                   |  
 |     |                                   |  
 |     |                                   |  
 |     |                                   |  
 |     |                                   |  
 |     .-----------------------------------.  
 |    /                                   /   
 |   /                                   /    
 |  /                                   /     
 | /                                   /      
 |/                                   /       
 *-----------------------------------*        

Atomic positions and initial magnetic moments

Positions:
   0 Li     0.000000    0.000000   10.000000    ( 0.0000,  0.0000,  0.0000)
   1 Li     2.467803    1.745000   10.000000    ( 0.0000,  0.0000,  0.0000)
   2 Li     2.467803    0.000000   12.467803    ( 0.0000,  0.0000,  0.0000)
   3 Li     0.000000    1.745000   12.467803    ( 0.0000,  0.0000,  0.0000)
   4 Li     0.001361   -0.071802   14.737950    ( 0.0000,  0.0000,  0.0000)
   5 Li     2.455071    1.761024   14.820339    ( 0.0000,  0.0000,  0.0000)
   6 Li     2.373884    0.112300   17.281568    ( 0.0000,  0.0000,  0.0000)
   7 Li     0.017312    1.722089   16.816182    ( 0.0000,  0.0000,  0.0000)
   8 Li     0.000000    3.490000   10.000000    ( 0.0000,  0.0000,  0.0000)
   9 Li     2.467803    5.235000   10.000000    ( 0.0000,  0.0000,  0.0000)
  10 Li     2.467803    3.490000   12.467803    ( 0.0000,  0.0000,  0.0000)
  11 Li     0.000000    5.235000   12.467803    ( 0.0000,  0.0000,  0.0000)
  12 Li    -0.003352    3.556115   14.755319    ( 0.0000,  0.0000,  0.0000)
  13 Li     2.485102    5.206308   14.936961    ( 0.0000,  0.0000,  0.0000)
  14 Li     2.373324    3.358430   17.386216    ( 0.0000,  0.0000,  0.0000)
  15 Li     0.009476    5.142449   17.319546    ( 0.0000,  0.0000,  0.0000)
  16 Li     0.000000    6.980000   10.000000    ( 0.0000,  0.0000,  0.0000)
  17 Li     2.467803    8.725000   10.000000    ( 0.0000,  0.0000,  0.0000)
  18 Li     2.467803    6.980000   12.467803    ( 0.0000,  0.0000,  0.0000)
  19 Li     0.000000    8.725000   12.467803    ( 0.0000,  0.0000,  0.0000)
  20 Li    -0.003154    6.987252   14.949505    ( 0.0000,  0.0000,  0.0000)
  21 Li     2.484855    8.738570   14.895898    ( 0.0000,  0.0000,  0.0000)
  22 Li     2.420940    7.000125   17.287206    ( 0.0000,  0.0000,  0.0000)
  23 Li     0.019268    8.841868   17.338907    ( 0.0000,  0.0000,  0.0000)
  24 Li     4.935605    0.000000   10.000000    ( 0.0000,  0.0000,  0.0000)
  25 Li     7.403408    1.745000   10.000000    ( 0.0000,  0.0000,  0.0000)
  26 Li     7.403408    0.000000   12.467803    ( 0.0000,  0.0000,  0.0000)
  27 Li     4.935605    1.745000   12.467803    ( 0.0000,  0.0000,  0.0000)
  28 Li     4.941964    0.002180   14.858873    ( 0.0000,  0.0000,  0.0000)
  29 Li     7.404929    1.745157   14.868959    ( 0.0000,  0.0000,  0.0000)
  30 Li     7.397708    0.000535   17.214623    ( 0.0000,  0.0000,  0.0000)
  31 Li     4.885788    1.722850   17.256812    ( 0.0000,  0.0000,  0.0000)
  32 Li     4.935605    3.490000   10.000000    ( 0.0000,  0.0000,  0.0000)
  33 Li     7.403408    5.235000   10.000000    ( 0.0000,  0.0000,  0.0000)
  34 Li     7.403408    3.490000   12.467803    ( 0.0000,  0.0000,  0.0000)
  35 Li     4.935605    5.235000   12.467803    ( 0.0000,  0.0000,  0.0000)
  36 Li     4.947222    3.481624   14.873022    ( 0.0000,  0.0000,  0.0000)
  37 Li     7.402479    5.237507   14.856688    ( 0.0000,  0.0000,  0.0000)
  38 Li     7.392992    3.484147   17.216433    ( 0.0000,  0.0000,  0.0000)
  39 Li     4.873944    5.207924   17.240151    ( 0.0000,  0.0000,  0.0000)
  40 Li     4.935605    6.980000   10.000000    ( 0.0000,  0.0000,  0.0000)
  41 Li     7.403408    8.725000   10.000000    ( 0.0000,  0.0000,  0.0000)
  42 Li     7.403408    6.980000   12.467803    ( 0.0000,  0.0000,  0.0000)
  43 Li     4.935605    8.725000   12.467803    ( 0.0000,  0.0000,  0.0000)
  44 Li     4.934447    6.986457   14.877905    ( 0.0000,  0.0000,  0.0000)
  45 Li     7.404896    8.722669   14.855102    ( 0.0000,  0.0000,  0.0000)
  46 Li     7.392952    6.985477   17.223618    ( 0.0000,  0.0000,  0.0000)
  47 Li     4.864265    8.774996   17.259357    ( 0.0000,  0.0000,  0.0000)
  48 Li     9.871211    0.000000   10.000000    ( 0.0000,  0.0000,  0.0000)
  49 Li    12.339013    1.745000   10.000000    ( 0.0000,  0.0000,  0.0000)
  50 Li    12.339013    0.000000   12.467803    ( 0.0000,  0.0000,  0.0000)
  51 Li     9.871211    1.745000   12.467803    ( 0.0000,  0.0000,  0.0000)
  52 Li     9.862784    0.002187   14.862991    ( 0.0000,  0.0000,  0.0000)
  53 Li    12.350505    1.745286   14.846673    ( 0.0000,  0.0000,  0.0000)
  54 Li    12.439689    0.112794   17.370027    ( 0.0000,  0.0000,  0.0000)
  55 Li     9.901678    1.745349   17.225690    ( 0.0000,  0.0000,  0.0000)
  56 Li     9.871211    3.490000   10.000000    ( 0.0000,  0.0000,  0.0000)
  57 Li    12.339013    5.235000   10.000000    ( 0.0000,  0.0000,  0.0000)
  58 Li    12.339013    3.490000   12.467803    ( 0.0000,  0.0000,  0.0000)
  59 Li     9.871211    5.235000   12.467803    ( 0.0000,  0.0000,  0.0000)
  60 Li     9.862616    3.488097   14.859781    ( 0.0000,  0.0000,  0.0000)
  61 Li    12.322774    5.206384   14.924018    ( 0.0000,  0.0000,  0.0000)
  62 Li    12.443688    3.371935   17.370900    ( 0.0000,  0.0000,  0.0000)
  63 Li     9.923866    5.207975   17.230267    ( 0.0000,  0.0000,  0.0000)
  64 Li     9.871211    6.980000   10.000000    ( 0.0000,  0.0000,  0.0000)
  65 Li    12.339013    8.725000   10.000000    ( 0.0000,  0.0000,  0.0000)
  66 Li    12.339013    6.980000   12.467803    ( 0.0000,  0.0000,  0.0000)
  67 Li     9.871211    8.725000   12.467803    ( 0.0000,  0.0000,  0.0000)
  68 Li     9.875508    6.980036   14.864624    ( 0.0000,  0.0000,  0.0000)
  69 Li    12.320493    8.754295   14.921526    ( 0.0000,  0.0000,  0.0000)
  70 Li    12.395791    6.987224   17.271506    ( 0.0000,  0.0000,  0.0000)
  71 Li     9.923482    8.752413   17.228939    ( 0.0000,  0.0000,  0.0000)
  72 Li     0.411885    1.453014   19.310475    ( 0.0000,  0.0000,  0.0000)

Unit cell:
           periodic     x           y           z      points  spacing
  1. axis:    yes   14.806816    0.000000    0.000000    76     0.1948
  2. axis:    yes    0.000000   10.470000    0.000000    52     0.2013
  3. axis:    no     0.000000    0.000000   27.403408   136     0.2015

  Lengths:  14.806816  10.470000  27.403408
  Angles:   90.000000  90.000000  90.000000

Effective grid spacing dv^(1/3) = 0.1992

     iter     time        total  log10-change:
                         energy   eigst   dens
iter:   1 05:21:41  -127.077819        c
iter:   2 05:21:53  -127.077981        c -3.41
iter:   3 05:22:06  -127.078122c       c -3.61
iter:   4 05:22:19  -127.078274c       c -3.95
iter:   5 05:22:31  -127.078238c       c -4.19c

Converged after 5 iterations.

Dipole moment: (-18.212850, -10.526717, 0.283630) |e|*Ang

Energy contributions relative to reference atoms: (reference = -14803.510878)

Kinetic:       +134.827643
Potential:     -115.879185
External:        +0.000000
XC:            -144.068527
Entropy (-ST):   -2.105446
Local:           -0.905445
SIC:             +0.000000
--------------------------
Free energy:   -128.130961
Extrapolated:  -127.078238

 Band  Eigenvalues  Occupancy
    0     -6.38161    2.00000
    1     -5.87028    2.00000
    2     -5.85468    2.00000
    3     -5.79674    2.00000
    4     -5.34250    2.00000
    5     -5.33568    2.00000
    6     -5.27557    2.00000
    7     -5.25321    2.00000
    8     -4.83787    1.99999
    9     -4.83093    1.99999
   10     -4.81745    1.99999
   11     -4.81223    1.99999
   12     -4.77623    1.99999
   13     -4.74644    1.99999
   14     -4.68813    1.99999
   15     -4.32076    1.99984
   16     -4.30923    1.99983
   17     -4.27153    1.99978
   18     -4.25134    1.99975
   19     -4.23810    1.99973
   20     -4.22289    1.99970
   21     -4.16306    1.99955
   22     -4.11780    1.99939
   23     -3.73040    1.99195
   24     -3.67245    1.98818
   25     -3.65284    1.98654
   26     -3.63865    1.98522
   27     -3.42939    1.94166
   28     -3.26309    1.83309
   29     -3.25815    1.82798
   30     -3.25730    1.82709
   31     -3.24938    1.81856
   32     -3.17379    1.71653
   33     -3.16500    1.70198
   34     -3.14384    1.66441
   35     -3.13723    1.65191
   36     -2.85889    0.85191
   37     -2.74793    0.52304
   38     -2.67953    0.36662
   39     -2.66699    0.34225
   40     -2.65935    0.32804
   41     -2.64877    0.30915
   42     -2.48191    0.11340
   43     -2.47796    0.11062
   44     -2.35302    0.04965
   45     -2.33280    0.04352
   46     -2.22205    0.02104
   47     -2.07861    0.00814

Fermi level: -2.90364

Gap: 0.278 eV
Transition (v -> c):
  (s=0, k=0, n=35, [0.00, 0.00, 0.00]) -> (s=0, k=0, n=36, [0.00, 0.00, 0.00])
No difference between direct/indirect transitions

Forces in eV/Ang:
  0 Li   -0.00088    0.00810    0.10264
  1 Li    0.00080    0.00120    0.09427
  2 Li    0.01026   -0.02284   -0.08286
  3 Li   -0.00135    0.00703   -0.06841
  4 Li   -0.00138   -0.02348   -0.00593
  5 Li    0.03465   -0.00184    0.00819
  6 Li    0.03994   -0.05039   -0.01515
  7 Li   -0.06451    0.05857   -0.21999
  8 Li   -0.00112   -0.01046    0.10384
  9 Li    0.01473   -0.00656    0.09594
 10 Li    0.01018    0.03295   -0.08643
 11 Li   -0.00121    0.05834   -0.10952
 12 Li   -0.00419    0.02361   -0.01079
 13 Li   -0.01667   -0.00199   -0.01837
 14 Li    0.00821    0.01691   -0.03319
 15 Li    0.01076    0.00154   -0.00928
 16 Li   -0.00475    0.00225    0.10109
 17 Li    0.01255    0.00556    0.09610
 18 Li   -0.00049   -0.00777   -0.00941
 19 Li   -0.00235   -0.06739   -0.12719
 20 Li    0.00211    0.00023   -0.03568
 21 Li   -0.01051    0.00514   -0.00444
 22 Li   -0.00657   -0.01217    0.00846
 23 Li   -0.00478    0.03254   -0.00090
 24 Li    0.00705   -0.00644    0.08363
 25 Li    0.00183    0.00240    0.08865
 26 Li   -0.00155   -0.00118   -0.07458
 27 Li    0.00160    0.00454   -0.07469
 28 Li   -0.00843    0.00816    0.01474
 29 Li    0.00076   -0.00117   -0.01299
 30 Li    0.00587   -0.00131   -0.00695
 31 Li    0.03770    0.01771   -0.01791
 32 Li    0.00822    0.00550    0.08222
 33 Li    0.00354    0.01309    0.06447
 34 Li   -0.00008    0.00042   -0.07351
 35 Li    0.00409    0.00077   -0.04793
 36 Li   -0.00200   -0.00820   -0.00559
 37 Li    0.00071    0.00620   -0.00463
 38 Li    0.00159    0.00334   -0.00202
 39 Li    0.00662    0.00724   -0.00385
 40 Li    0.02217    0.00095    0.07814
 41 Li    0.00273   -0.01561    0.06838
 42 Li    0.00029    0.00058   -0.07307
 43 Li    0.00552   -0.00567   -0.06447
 44 Li    0.00603   -0.00149    0.00639
 45 Li   -0.00027   -0.00563   -0.00582
 46 Li    0.00032   -0.00231   -0.00534
 47 Li    0.02557   -0.02283   -0.02357
 48 Li   -0.00714   -0.00906    0.08354
 49 Li   -0.00099    0.00157    0.09059
 50 Li   -0.01126   -0.02103   -0.07786
 51 Li    0.00413    0.00062   -0.07092
 52 Li    0.00076    0.00817   -0.00552
 53 Li   -0.02376    0.00077    0.02069
 54 Li    0.00762   -0.03581   -0.00651
 55 Li   -0.02702   -0.00081   -0.01903
 56 Li   -0.00796    0.00948    0.08059
 57 Li   -0.01741   -0.00296    0.09189
 58 Li   -0.01153    0.02086   -0.07738
 59 Li   -0.00377    0.00099   -0.06290
 60 Li   -0.00130   -0.00741   -0.00530
 61 Li    0.01534    0.00045   -0.00641
 62 Li   -0.00553    0.02761   -0.01699
 63 Li   -0.00566    0.00901   -0.00451
 64 Li   -0.01853   -0.00037    0.07126
 65 Li   -0.01461    0.00149    0.09050
 66 Li    0.00118    0.00064    0.00104
 67 Li   -0.00386   -0.00165   -0.06368
 68 Li   -0.00552   -0.00045    0.00571
 69 Li    0.01486    0.00249   -0.01398
 70 Li    0.00205   -0.00216    0.01208
 71 Li   -0.00621   -0.00675   -0.00183
 72 Li   -0.02336   -0.03382    0.13617

System changes: positions 

Initializing position-dependent things.

Density initialized from wave functions
       .-----------------------------------.  
      /|                                   |  
     / |                                   |  
    /  |                                   |  
   /   |                                   |  
  /    |                                   |  
 *     |                                   |  
 |     |                                   |  
 |     |                                   |  
 |     |                                   |  
 |     |                                   |  
 |     |                                   |  
 |     |                                   |  
 |    Li                                   |  
 |     |          Li          Li           |  
 | Li  |   Li          Li          Li      |  
 |  Li Li       Li          Li      Li     |  
 |     | Li Li       Li Li       Li      Li|  
 |Li   Li Li  Li Li       Li LiLi          |  
 |     |           Li Li          Li       |  
 |    Li       Li Li       Li Li       Li  |  
 |     |Li Li       Li Li       Li Li      |  
 |  Li |     Li Li       Li Li             |  
 |     | Li Li       Li Li       Li Li     |  
 |Li Li|      Li Li       Li Li            |  
 |     Li Li       Li Li       Li Li       |  
 | Li  |       Li          Li              |  
 |     |Li          Li          Li         |  
 Li    |     Li          Li                |  
 |     |                                   |  
 |     |                                   |  
 |     |                                   |  
 |     |                                   |  
 |     |                                   |  
 |     .-----------------------------------.  
 |    /                                   /   
 |   /                                   /    
 |  /                                   /     
 | /                                   /      
 |/                                   /       
 *-----------------------------------*        

Atomic positions and initial magnetic moments

Positions:
   0 Li     0.000000    0.000000   10.000000    ( 0.0000,  0.0000,  0.0000)
   1 Li     2.467803    1.745000   10.000000    ( 0.0000,  0.0000,  0.0000)
   2 Li     2.467803    0.000000   12.467803    ( 0.0000,  0.0000,  0.0000)
   3 Li     0.000000    1.745000   12.467803    ( 0.0000,  0.0000,  0.0000)
   4 Li     0.001318   -0.072464   14.737867    ( 0.0000,  0.0000,  0.0000)
   5 Li     2.456139    1.761008   14.820554    ( 0.0000,  0.0000,  0.0000)
   6 Li     2.375192    0.110655   17.280796    ( 0.0000,  0.0000,  0.0000)
   7 Li     0.015307    1.723874   16.809407    ( 0.0000,  0.0000,  0.0000)
   8 Li     0.000000    3.490000   10.000000    ( 0.0000,  0.0000,  0.0000)
   9 Li     2.467803    5.235000   10.000000    ( 0.0000,  0.0000,  0.0000)
  10 Li     2.467803    3.490000   12.467803    ( 0.0000,  0.0000,  0.0000)
  11 Li     0.000000    5.235000   12.467803    ( 0.0000,  0.0000,  0.0000)
  12 Li    -0.003491    3.556746   14.755141    ( 0.0000,  0.0000,  0.0000)
  13 Li     2.484578    5.206260   14.936404    ( 0.0000,  0.0000,  0.0000)
  14 Li     2.373633    3.358978   17.385170    ( 0.0000,  0.0000,  0.0000)
  15 Li     0.009831    5.142533   17.319249    ( 0.0000,  0.0000,  0.0000)
  16 Li     0.000000    6.980000   10.000000    ( 0.0000,  0.0000,  0.0000)
  17 Li     2.467803    8.725000   10.000000    ( 0.0000,  0.0000,  0.0000)
  18 Li     2.467803    6.980000   12.467803    ( 0.0000,  0.0000,  0.0000)
  19 Li     0.000000    8.725000   12.467803    ( 0.0000,  0.0000,  0.0000)
  20 Li    -0.003098    6.987268   14.948395    ( 0.0000,  0.0000,  0.0000)
  21 Li     2.484518    8.738685   14.895671    ( 0.0000,  0.0000,  0.0000)
  22 Li     2.420761    6.999791   17.287489    ( 0.0000,  0.0000,  0.0000)
  23 Li     0.019161    8.842891   17.338914    ( 0.0000,  0.0000,  0.0000)
  24 Li     4.935605    0.000000   10.000000    ( 0.0000,  0.0000,  0.0000)
  25 Li     7.403408    1.745000   10.000000    ( 0.0000,  0.0000,  0.0000)
  26 Li     7.403408    0.000000   12.467803    ( 0.0000,  0.0000,  0.0000)
  27 Li     4.935605    1.745000   12.467803    ( 0.0000,  0.0000,  0.0000)
  28 Li     4.941694    0.002434   14.859327    ( 0.0000,  0.0000,  0.0000)
  29 Li     7.404956    1.745119   14.868560    ( 0.0000,  0.0000,  0.0000)
  30 Li     7.397874    0.000499   17.214422    ( 0.0000,  0.0000,  0.0000)
  31 Li     4.886910    1.723336   17.256332    ( 0.0000,  0.0000,  0.0000)
  32 Li     4.935605    3.490000   10.000000    ( 0.0000,  0.0000,  0.0000)
  33 Li     7.403408    5.235000   10.000000    ( 0.0000,  0.0000,  0.0000)
  34 Li     7.403408    3.490000   12.467803    ( 0.0000,  0.0000,  0.0000)
  35 Li     4.935605    5.235000   12.467803    ( 0.0000,  0.0000,  0.0000)
  36 Li     4.947163    3.481350   14.872886    ( 0.0000,  0.0000,  0.0000)
  37 Li     7.402499    5.237700   14.856556    ( 0.0000,  0.0000,  0.0000)
  38 Li     7.393010    3.484228   17.216386    ( 0.0000,  0.0000,  0.0000)
  39 Li     4.874152    5.208163   17.240055    ( 0.0000,  0.0000,  0.0000)
  40 Li     4.935605    6.980000   10.000000    ( 0.0000,  0.0000,  0.0000)
  41 Li     7.403408    8.725000   10.000000    ( 0.0000,  0.0000,  0.0000)
  42 Li     7.403408    6.980000   12.467803    ( 0.0000,  0.0000,  0.0000)
  43 Li     4.935605    8.725000   12.467803    ( 0.0000,  0.0000,  0.0000)
  44 Li     4.934648    6.986429   14.878142    ( 0.0000,  0.0000,  0.0000)
  45 Li     7.404892    8.722495   14.854930    ( 0.0000,  0.0000,  0.0000)
  46 Li     7.392931    6.985422   17.223461    ( 0.0000,  0.0000,  0.0000)
  47 Li     4.865022    8.774346   17.258706    ( 0.0000,  0.0000,  0.0000)
  48 Li     9.871211    0.000000   10.000000    ( 0.0000,  0.0000,  0.0000)
  49 Li    12.339013    1.745000   10.000000    ( 0.0000,  0.0000,  0.0000)
  50 Li    12.339013    0.000000   12.467803    ( 0.0000,  0.0000,  0.0000)
  51 Li     9.871211    1.745000   12.467803    ( 0.0000,  0.0000,  0.0000)
  52 Li     9.862812    0.002445   14.862831    ( 0.0000,  0.0000,  0.0000)
  53 Li    12.349782    1.745310   14.847345    ( 0.0000,  0.0000,  0.0000)
  54 Li    12.439900    0.111623   17.369754    ( 0.0000,  0.0000,  0.0000)
  55 Li     9.900822    1.745325   17.225098    ( 0.0000,  0.0000,  0.0000)
  56 Li     9.871211    3.490000   10.000000    ( 0.0000,  0.0000,  0.0000)
  57 Li    12.339013    5.235000   10.000000    ( 0.0000,  0.0000,  0.0000)
  58 Li    12.339013    3.490000   12.467803    ( 0.0000,  0.0000,  0.0000)
  59 Li     9.871211    5.235000   12.467803    ( 0.0000,  0.0000,  0.0000)
  60 Li     9.862583    3.487865   14.859620    ( 0.0000,  0.0000,  0.0000)
  61 Li    12.323260    5.206411   14.923794    ( 0.0000,  0.0000,  0.0000)
  62 Li    12.443514    3.372823   17.370306    ( 0.0000,  0.0000,  0.0000)
  63 Li     9.923667    5.208265   17.230126    ( 0.0000,  0.0000,  0.0000)
  64 Li     9.871211    6.980000   10.000000    ( 0.0000,  0.0000,  0.0000)
  65 Li    12.339013    8.725000   10.000000    ( 0.0000,  0.0000,  0.0000)
  66 Li    12.339013    6.980000   12.467803    ( 0.0000,  0.0000,  0.0000)
  67 Li     9.871211    8.725000   12.467803    ( 0.0000,  0.0000,  0.0000)
  68 Li     9.875330    6.980019   14.864802    ( 0.0000,  0.0000,  0.0000)
  69 Li    12.320959    8.754362   14.921064    ( 0.0000,  0.0000,  0.0000)
  70 Li    12.395851    6.987166   17.271858    ( 0.0000,  0.0000,  0.0000)
  71 Li     9.923263    8.752192   17.228877    ( 0.0000,  0.0000,  0.0000)
  72 Li     0.412229    1.451244   19.314909    ( 0.0000,  0.0000,  0.0000)

Unit cell:
           periodic     x           y           z      points  spacing
  1. axis:    yes   14.806816    0.000000    0.000000    76     0.1948
  2. axis:    yes    0.000000   10.470000    0.000000    52     0.2013
  3. axis:    no     0.000000    0.000000   27.403408   136     0.2015

  Lengths:  14.806816  10.470000  27.403408
  Angles:   90.000000  90.000000  90.000000

Effective grid spacing dv^(1/3) = 0.1992

     iter     time        total  log10-change:
                         energy   eigst   dens
iter:   1 05:30:02  -127.080807        c
iter:   2 05:30:12  -127.080929        c -3.32
iter:   3 05:30:22  -127.081062c       c -3.48
iter:   4 05:30:32  -127.081235c       c -3.78
iter:   5 05:30:43  -127.081167c       c -3.98
iter:   6 05:30:53  -127.081182c       c -4.24c

Converged after 6 iterations.

Dipole moment: (-18.174851, -10.496551, 0.285614) |e|*Ang

Energy contributions relative to reference atoms: (reference = -14803.510878)

Kinetic:       +134.797475
Potential:     -115.858363
External:        +0.000000
XC:            -144.062288
Entropy (-ST):   -2.105361
Local:           -0.905326
SIC:             +0.000000
--------------------------
Free energy:   -128.133863
Extrapolated:  -127.081182

 Band  Eigenvalues  Occupancy
    0     -6.38110    2.00000
    1     -5.86984    2.00000
    2     -5.85411    2.00000
    3     -5.79613    2.00000
    4     -5.34198    2.00000
    5     -5.33519    2.00000
    6     -5.27496    2.00000
    7     -5.25261    2.00000
    8     -4.83739    1.99999
    9     -4.83050    1.99999
   10     -4.81686    1.99999
   11     -4.81168    1.99999
   12     -4.77545    1.99999
   13     -4.74588    1.99999
   14     -4.68758    1.99999
   15     -4.32024    1.99984
   16     -4.30870    1.99983
   17     -4.27087    1.99978
   18     -4.25073    1.99975
   19     -4.23742    1.99973
   20     -4.22235    1.99970
   21     -4.16257    1.99955
   22     -4.11708    1.99939
   23     -3.72975    1.99195
   24     -3.67177    1.98818
   25     -3.65233    1.98656
   26     -3.63785    1.98520
   27     -3.42886    1.94170
   28     -3.26252    1.83318
   29     -3.25762    1.82811
   30     -3.25678    1.82723
   31     -3.24885    1.81871
   32     -3.17327    1.71675
   33     -3.16417    1.70169
   34     -3.14304    1.66413
   35     -3.13657    1.65190
   36     -2.85830    0.85212
   37     -2.74693    0.52214
   38     -2.67885    0.36656
   39     -2.66629    0.34216
   40     -2.65876    0.32816
   41     -2.64840    0.30965
   42     -2.48115    0.11333
   43     -2.47725    0.11058
   44     -2.35273    0.04976
   45     -2.33226    0.04355
   46     -2.22134    0.02103
   47     -2.07817    0.00815

Fermi level: -2.90299

Gap: 0.278 eV
Transition (v -> c):
  (s=0, k=0, n=35, [0.00, 0.00, 0.00]) -> (s=0, k=0, n=36, [0.00, 0.00, 0.00])
No difference between direct/indirect transitions

Forces in eV/Ang:
  0 Li   -0.00088    0.00802    0.10257
  1 Li    0.00079    0.00120    0.09420
  2 Li    0.01033   -0.02284   -0.08290
  3 Li   -0.00136    0.00704   -0.06750
  4 Li   -0.00100   -0.02446   -0.00868
  5 Li    0.03342   -0.00189    0.00692
  6 Li    0.03651   -0.04625   -0.01420
  7 Li   -0.05714    0.05350   -0.19190
  8 Li   -0.00112   -0.01040    0.10383
  9 Li    0.01461   -0.00655    0.09593
 10 Li    0.01023    0.03289   -0.08660
 11 Li   -0.00118    0.05839   -0.11040
 12 Li   -0.00380    0.02593   -0.01461
 13 Li   -0.01577   -0.00164   -0.01771
 14 Li    0.00743    0.01536   -0.03249
 15 Li    0.01024    0.00226   -0.00984
 16 Li   -0.00473    0.00227    0.10092
 17 Li    0.01240    0.00556    0.09606
 18 Li   -0.00045   -0.00772   -0.00964
 19 Li   -0.00231   -0.06744   -0.12804
 20 Li    0.00217    0.00057   -0.03371
 21 Li   -0.00978    0.00410   -0.00441
 22 Li   -0.00627   -0.01135    0.00777
 23 Li   -0.00403    0.03036   -0.00161
 24 Li    0.00696   -0.00633    0.08355
 25 Li    0.00181    0.00241    0.08853
 26 Li   -0.00161   -0.00125   -0.07467
 27 Li    0.00165    0.00439   -0.07466
 28 Li   -0.00781    0.00750    0.01371
 29 Li    0.00065   -0.00110   -0.01255
 30 Li    0.00570   -0.00165   -0.00692
 31 Li    0.03651    0.01721   -0.01706
 32 Li    0.00814    0.00542    0.08214
 33 Li    0.00352    0.01298    0.06454
 34 Li   -0.00012    0.00050   -0.07363
 35 Li    0.00400    0.00085   -0.04775
 36 Li   -0.00171   -0.00722   -0.00567
 37 Li    0.00060    0.00575   -0.00441
 38 Li    0.00183    0.00379   -0.00220
 39 Li    0.00645    0.00694   -0.00384
 40 Li    0.02205    0.00093    0.07821
 41 Li    0.00273   -0.01552    0.06849
 42 Li    0.00028    0.00056   -0.07324
 43 Li    0.00546   -0.00561   -0.06403
 44 Li    0.00535   -0.00165    0.00549
 45 Li   -0.00032   -0.00521   -0.00551
 46 Li    0.00058   -0.00236   -0.00524
 47 Li    0.02514   -0.02274   -0.02283
 48 Li   -0.00705   -0.00894    0.08345
 49 Li   -0.00098    0.00157    0.09053
 50 Li   -0.01135   -0.02081   -0.07789
 51 Li    0.00413    0.00061   -0.07107
 52 Li    0.00061    0.00730   -0.00559
 53 Li   -0.02400    0.00067    0.01832
 54 Li    0.00639   -0.03383   -0.00640
 55 Li   -0.02537   -0.00083   -0.01820
 56 Li   -0.00789    0.00936    0.08052
 57 Li   -0.01727   -0.00296    0.09187
 58 Li   -0.01161    0.02073   -0.07732
 59 Li   -0.00368    0.00105   -0.06276
 60 Li   -0.00139   -0.00660   -0.00533
 61 Li    0.01448    0.00069   -0.00611
 62 Li   -0.00673    0.02718   -0.01647
 63 Li   -0.00565    0.00878   -0.00448
 64 Li   -0.01841   -0.00037    0.07132
 65 Li   -0.01445    0.00150    0.09045
 66 Li    0.00116    0.00059    0.00084
 67 Li   -0.00378   -0.00170   -0.06351
 68 Li   -0.00487   -0.00037    0.00524
 69 Li    0.01397    0.00198   -0.01319
 70 Li    0.00228   -0.00182    0.01146
 71 Li   -0.00603   -0.00668   -0.00190
 72 Li   -0.02463   -0.03261    0.11599

System changes: positions 

Initializing position-dependent things.

Density initialized from wave functions
       .-----------------------------------.  
      /|                                   |  
     / |                                   |  
    /  |                                   |  
   /   |                                   |  
  /    |                                   |  
 *     |                                   |  
 |     |                                   |  
 |     |                                   |  
 |     |                                   |  
 |     |                                   |  
 |     |                                   |  
 |     |                                   |  
 |    Li                                   |  
 |     |          Li          Li           |  
 | Li  |   Li          Li          Li      |  
 |  Li Li       Li          Li      Li     |  
 |     | Li Li       Li Li       Li      Li|  
 |Li   Li Li  Li Li       Li LiLi          |  
 |     |           Li Li          Li       |  
 |    Li       Li Li       Li Li       Li  |  
 |     |Li Li       Li Li       Li Li      |  
 |  Li |     Li Li       Li Li             |  
 |     | Li Li       Li Li       Li Li     |  
 |Li Li|      Li Li       Li Li            |  
 |     Li Li       Li Li       Li Li       |  
 | Li  |       Li          Li              |  
 |     |Li          Li          Li         |  
 Li    |     Li          Li                |  
 |     |                                   |  
 |     |                                   |  
 |     |                                   |  
 |     |                                   |  
 |     |                                   |  
 |     .-----------------------------------.  
 |    /                                   /   
 |   /                                   /    
 |  /                                   /     
 | /                                   /      
 |/                                   /       
 *-----------------------------------*        

Atomic positions and initial magnetic moments

Positions:
   0 Li     0.000000    0.000000   10.000000    ( 0.0000,  0.0000,  0.0000)
   1 Li     2.467803    1.745000   10.000000    ( 0.0000,  0.0000,  0.0000)
   2 Li     2.467803    0.000000   12.467803    ( 0.0000,  0.0000,  0.0000)
   3 Li     0.000000    1.745000   12.467803    ( 0.0000,  0.0000,  0.0000)
   4 Li     0.001266   -0.073377   14.737693    ( 0.0000,  0.0000,  0.0000)
   5 Li     2.457556    1.760982   14.820820    ( 0.0000,  0.0000,  0.0000)
   6 Li     2.376885    0.108524   17.279796    ( 0.0000,  0.0000,  0.0000)
   7 Li     0.012741    1.726190   16.800809    ( 0.0000,  0.0000,  0.0000)
   8 Li     0.000000    3.490000   10.000000    ( 0.0000,  0.0000,  0.0000)
   9 Li     2.467803    5.235000   10.000000    ( 0.0000,  0.0000,  0.0000)
  10 Li     2.467803    3.490000   12.467803    ( 0.0000,  0.0000,  0.0000)
  11 Li     0.000000    5.235000   12.467803    ( 0.0000,  0.0000,  0.0000)
  12 Li    -0.003672    3.557646   14.754816    ( 0.0000,  0.0000,  0.0000)
  13 Li     2.483888    5.206199   14.935663    ( 0.0000,  0.0000,  0.0000)
  14 Li     2.374030    3.359683   17.383775    ( 0.0000,  0.0000,  0.0000)
  15 Li     0.010298    5.142657   17.318841    ( 0.0000,  0.0000,  0.0000)
  16 Li     0.000000    6.980000   10.000000    ( 0.0000,  0.0000,  0.0000)
  17 Li     2.467803    8.725000   10.000000    ( 0.0000,  0.0000,  0.0000)
  18 Li     2.467803    6.980000   12.467803    ( 0.0000,  0.0000,  0.0000)
  19 Li     0.000000    8.725000   12.467803    ( 0.0000,  0.0000,  0.0000)
  20 Li    -0.003022    6.987296   14.946936    ( 0.0000,  0.0000,  0.0000)
  21 Li     2.484079    8.738824   14.895372    ( 0.0000,  0.0000,  0.0000)
  22 Li     2.420523    6.999353   17.287856    ( 0.0000,  0.0000,  0.0000)
  23 Li     0.019028    8.844227   17.338910    ( 0.0000,  0.0000,  0.0000)
  24 Li     4.935605    0.000000   10.000000    ( 0.0000,  0.0000,  0.0000)
  25 Li     7.403408    1.745000   10.000000    ( 0.0000,  0.0000,  0.0000)
  26 Li     7.403408    0.000000   12.467803    ( 0.0000,  0.0000,  0.0000)
  27 Li     4.935605    1.745000   12.467803    ( 0.0000,  0.0000,  0.0000)
  28 Li     4.941341    0.002764   14.859919    ( 0.0000,  0.0000,  0.0000)
  29 Li     7.404991    1.745070   14.868029    ( 0.0000,  0.0000,  0.0000)
  30 Li     7.398095    0.000445   17.214150    ( 0.0000,  0.0000,  0.0000)
  31 Li     4.888403    1.723986   17.255695    ( 0.0000,  0.0000,  0.0000)
  32 Li     4.935605    3.490000   10.000000    ( 0.0000,  0.0000,  0.0000)
  33 Li     7.403408    5.235000   10.000000    ( 0.0000,  0.0000,  0.0000)
  34 Li     7.403408    3.490000   12.467803    ( 0.0000,  0.0000,  0.0000)
  35 Li     4.935605    5.235000   12.467803    ( 0.0000,  0.0000,  0.0000)
  36 Li     4.947087    3.481001   14.872697    ( 0.0000,  0.0000,  0.0000)
  37 Li     7.402524    5.237951   14.856380    ( 0.0000,  0.0000,  0.0000)
  38 Li     7.393042    3.484348   17.216316    ( 0.0000,  0.0000,  0.0000)
  39 Li     4.874427    5.208477   17.239924    ( 0.0000,  0.0000,  0.0000)
  40 Li     4.935605    6.980000   10.000000    ( 0.0000,  0.0000,  0.0000)
  41 Li     7.403408    8.725000   10.000000    ( 0.0000,  0.0000,  0.0000)
  42 Li     7.403408    6.980000   12.467803    ( 0.0000,  0.0000,  0.0000)
  43 Li     4.935605    8.725000   12.467803    ( 0.0000,  0.0000,  0.0000)
  44 Li     4.934906    6.986386   14.878440    ( 0.0000,  0.0000,  0.0000)
  45 Li     7.404885    8.722268   14.854703    ( 0.0000,  0.0000,  0.0000)
  46 Li     7.392910    6.985345   17.223251    ( 0.0000,  0.0000,  0.0000)
  47 Li     4.866037    8.773468   17.257834    ( 0.0000,  0.0000,  0.0000)
  48 Li     9.871211    0.000000   10.000000    ( 0.0000,  0.0000,  0.0000)
  49 Li    12.339013    1.745000   10.000000    ( 0.0000,  0.0000,  0.0000)
  50 Li    12.339013    0.000000   12.467803    ( 0.0000,  0.0000,  0.0000)
  51 Li     9.871211    1.745000   12.467803    ( 0.0000,  0.0000,  0.0000)
  52 Li     9.862848    0.002776   14.862612    ( 0.0000,  0.0000,  0.0000)
  53 Li    12.348803    1.745340   14.848203    ( 0.0000,  0.0000,  0.0000)
  54 Li    12.440163    0.110088   17.369395    ( 0.0000,  0.0000,  0.0000)
  55 Li     9.899701    1.745292   17.224316    ( 0.0000,  0.0000,  0.0000)
  56 Li     9.871211    3.490000   10.000000    ( 0.0000,  0.0000,  0.0000)
  57 Li    12.339013    5.235000   10.000000    ( 0.0000,  0.0000,  0.0000)
  58 Li    12.339013    3.490000   12.467803    ( 0.0000,  0.0000,  0.0000)
  59 Li     9.871211    5.235000   12.467803    ( 0.0000,  0.0000,  0.0000)
  60 Li     9.862535    3.487567   14.859403    ( 0.0000,  0.0000,  0.0000)
  61 Li    12.323898    5.206451   14.923499    ( 0.0000,  0.0000,  0.0000)
  62 Li    12.443257    3.374008   17.369522    ( 0.0000,  0.0000,  0.0000)
  63 Li     9.923401    5.208651   17.229937    ( 0.0000,  0.0000,  0.0000)
  64 Li     9.871211    6.980000   10.000000    ( 0.0000,  0.0000,  0.0000)
  65 Li    12.339013    8.725000   10.000000    ( 0.0000,  0.0000,  0.0000)
  66 Li    12.339013    6.980000   12.467803    ( 0.0000,  0.0000,  0.0000)
  67 Li     9.871211    8.725000   12.467803    ( 0.0000,  0.0000,  0.0000)
  68 Li     9.875103    6.979999   14.865031    ( 0.0000,  0.0000,  0.0000)
  69 Li    12.321570    8.754444   14.920458    ( 0.0000,  0.0000,  0.0000)
  70 Li    12.395937    6.987095   17.272323    ( 0.0000,  0.0000,  0.0000)
  71 Li     9.922975    8.751898   17.228792    ( 0.0000,  0.0000,  0.0000)
  72 Li     0.412587    1.448937   19.320483    ( 0.0000,  0.0000,  0.0000)

Unit cell:
           periodic     x           y           z      points  spacing
  1. axis:    yes   14.806816    0.000000    0.000000    76     0.1948
  2. axis:    yes    0.000000   10.470000    0.000000    52     0.2013
  3. axis:    no     0.000000    0.000000   27.403408   136     0.2015

  Lengths:  14.806816  10.470000  27.403408
  Angles:   90.000000  90.000000  90.000000

Effective grid spacing dv^(1/3) = 0.1992

     iter     time        total  log10-change:
                         energy   eigst   dens
iter:   1 05:38:51  -127.083875        c
iter:   2 05:39:03  -127.084090        c -3.22
iter:   3 05:39:16  -127.084289c       c -3.39
iter:   4 05:39:27  -127.084562c       c -3.67
iter:   5 05:39:38  -127.084482c       c -3.85
iter:   6 05:39:49  -127.084465c       c -4.12c

Converged after 6 iterations.

Dipole moment: (-18.127151, -10.455951, 0.288121) |e|*Ang

Energy contributions relative to reference atoms: (reference = -14803.510878)

Kinetic:       +134.765296
Potential:     -115.836190
External:        +0.000000
XC:            -144.055459
Entropy (-ST):   -2.105294
Local:           -0.905466
SIC:             +0.000000
--------------------------
Free energy:   -128.137112
Extrapolated:  -127.084465

 Band  Eigenvalues  Occupancy
    0     -6.38033    2.00000
    1     -5.86914    2.00000
    2     -5.85328    2.00000
    3     -5.79525    2.00000
    4     -5.34119    2.00000
    5     -5.33446    2.00000
    6     -5.27409    2.00000
    7     -5.25174    2.00000
    8     -4.83663    1.99999
    9     -4.82981    1.99999
   10     -4.81599    1.99999
   11     -4.81087    1.99999
   12     -4.77436    1.99999
   13     -4.74507    1.99999
   14     -4.68679    1.99999
   15     -4.31944    1.99984
   16     -4.30791    1.99983
   17     -4.26994    1.99978
   18     -4.24987    1.99975
   19     -4.23644    1.99973
   20     -4.22156    1.99970
   21     -4.16185    1.99955
   22     -4.11607    1.99939
   23     -3.72886    1.99196
   24     -3.67080    1.98818
   25     -3.65156    1.98657
   26     -3.63676    1.98519
   27     -3.42808    1.94176
   28     -3.26168    1.83326
   29     -3.25683    1.82825
   30     -3.25599    1.82737
   31     -3.24807    1.81886
   32     -3.17251    1.71703
   33     -3.16304    1.70134
   34     -3.14194    1.66381
   35     -3.13563    1.65189
   36     -2.85745    0.85238
   37     -2.74558    0.52105
   38     -2.67787    0.36645
   39     -2.66529    0.34203
   40     -2.65792    0.32831
   41     -2.64783    0.31028
   42     -2.48012    0.11326
   43     -2.47629    0.11056
   44     -2.35225    0.04991
   45     -2.33147    0.04359
   46     -2.22037    0.02103
   47     -2.07755    0.00817

Fermi level: -2.90206

Gap: 0.278 eV
Transition (v -> c):
  (s=0, k=0, n=35, [0.00, 0.00, 0.00]) -> (s=0, k=0, n=36, [0.00, 0.00, 0.00])
No difference between direct/indirect transitions

Forces in eV/Ang:
  0 Li   -0.00085    0.00798    0.10260
  1 Li    0.00083    0.00118    0.09421
  2 Li    0.01043   -0.02275   -0.08291
  3 Li   -0.00133    0.00700   -0.06628
  4 Li   -0.00057   -0.02525   -0.01172
  5 Li    0.03174   -0.00198    0.00537
  6 Li    0.03234   -0.04106   -0.01298
  7 Li   -0.04853    0.04728   -0.15884
  8 Li   -0.00109   -0.01040    0.10390
  9 Li    0.01456   -0.00658    0.09598
 10 Li    0.01031    0.03272   -0.08681
 11 Li   -0.00113    0.05851   -0.11149
 12 Li   -0.00336    0.02840   -0.01891
 13 Li   -0.01467   -0.00134   -0.01686
 14 Li    0.00645    0.01325   -0.03164
 15 Li    0.00956    0.00301   -0.01049
 16 Li   -0.00467    0.00229    0.10081
 17 Li    0.01232    0.00560    0.09611
 18 Li   -0.00041   -0.00765   -0.00997
 19 Li   -0.00226   -0.06748   -0.12908
 20 Li    0.00218    0.00099   -0.03138
 21 Li   -0.00885    0.00295   -0.00437
 22 Li   -0.00596   -0.01024    0.00698
 23 Li   -0.00311    0.02782   -0.00240
 24 Li    0.00685   -0.00623    0.08355
 25 Li    0.00176    0.00243    0.08852
 26 Li   -0.00168   -0.00132   -0.07483
 27 Li    0.00174    0.00419   -0.07474
 28 Li   -0.00712    0.00672    0.01246
 29 Li    0.00055   -0.00102   -0.01196
 30 Li    0.00547   -0.00200   -0.00707
 31 Li    0.03489    0.01653   -0.01617
 32 Li    0.00805    0.00533    0.08215
 33 Li    0.00347    0.01286    0.06468
 34 Li   -0.00017    0.00058   -0.07382
 35 Li    0.00396    0.00089   -0.04758
 36 Li   -0.00142   -0.00606   -0.00571
 37 Li    0.00048    0.00514   -0.00424
 38 Li    0.00213    0.00427   -0.00259
 39 Li    0.00611    0.00642   -0.00395
 40 Li    0.02199    0.00092    0.07832
 41 Li    0.00270   -0.01541    0.06867
 42 Li    0.00028    0.00054   -0.07343
 43 Li    0.00545   -0.00548   -0.06351
 44 Li    0.00456   -0.00184    0.00431
 45 Li   -0.00036   -0.00466   -0.00523
 46 Li    0.00095   -0.00243   -0.00523
 47 Li    0.02441   -0.02244   -0.02205
 48 Li   -0.00699   -0.00883    0.08348
 49 Li   -0.00097    0.00155    0.09056
 50 Li   -0.01143   -0.02052   -0.07787
 51 Li    0.00402    0.00060   -0.07137
 52 Li    0.00047    0.00620   -0.00565
 53 Li   -0.02407    0.00053    0.01543
 54 Li    0.00506   -0.03115   -0.00628
 55 Li   -0.02321   -0.00085   -0.01731
 56 Li   -0.00786    0.00925    0.08056
 57 Li   -0.01718   -0.00299    0.09194
 58 Li   -0.01173    0.02053   -0.07724
 59 Li   -0.00364    0.00107   -0.06257
 60 Li   -0.00150   -0.00559   -0.00535
 61 Li    0.01346    0.00087   -0.00570
 62 Li   -0.00801    0.02638   -0.01588
 63 Li   -0.00552    0.00840   -0.00453
 64 Li   -0.01837   -0.00036    0.07142
 65 Li   -0.01433    0.00155    0.09051
 66 Li    0.00113    0.00055    0.00059
 67 Li   -0.00375   -0.00171   -0.06329
 68 Li   -0.00409   -0.00026    0.00456
 69 Li    0.01290    0.00148   -0.01218
 70 Li    0.00261   -0.00135    0.01073
 71 Li   -0.00565   -0.00647   -0.00207
 72 Li   -0.02601   -0.03125    0.09185

System changes: positions 

Initializing position-dependent things.

Density initialized from wave functions
       .-----------------------------------.  
      /|                                   |  
     / |                                   |  
    /  |                                   |  
   /   |                                   |  
  /    |                                   |  
 *     |                                   |  
 |     |                                   |  
 |     |                                   |  
 |     |                                   |  
 |     |                                   |  
 |     |                                   |  
 |     |                                   |  
 |    Li                                   |  
 |     |          Li          Li           |  
 | Li  |   Li          Li          Li      |  
 |  Li Li       Li          Li      Li     |  
 |     | Li Li       Li Li       Li      Li|  
 |Li   |  Li  Li Li       Li LiLi          |  
 |     Li          Li Li          Li       |  
 |    Li       Li Li       Li Li       Li  |  
 |     |Li Li       Li Li       Li Li      |  
 |  Li |     Li Li       Li Li             |  
 |     | Li Li       Li Li       Li Li     |  
 |Li Li|      Li Li       Li Li            |  
 |     Li Li       Li Li       Li Li       |  
 | Li  |       Li          Li              |  
 |     |Li          Li          Li         |  
 Li    |     Li          Li                |  
 |     |                                   |  
 |     |                                   |  
 |     |                                   |  
 |     |                                   |  
 |     |                                   |  
 |     .-----------------------------------.  
 |    /                                   /   
 |   /                                   /    
 |  /                                   /     
 | /                                   /      
 |/                                   /       
 *-----------------------------------*        

Atomic positions and initial magnetic moments

Positions:
   0 Li     0.000000    0.000000   10.000000    ( 0.0000,  0.0000,  0.0000)
   1 Li     2.467803    1.745000   10.000000    ( 0.0000,  0.0000,  0.0000)
   2 Li     2.467803    0.000000   12.467803    ( 0.0000,  0.0000,  0.0000)
   3 Li     0.000000    1.745000   12.467803    ( 0.0000,  0.0000,  0.0000)
   4 Li     0.001212   -0.074573   14.737375    ( 0.0000,  0.0000,  0.0000)
   5 Li     2.459321    1.760942   14.821122    ( 0.0000,  0.0000,  0.0000)
   6 Li     2.378928    0.105951   17.278588    ( 0.0000,  0.0000,  0.0000)
   7 Li     0.009698    1.728984   16.790729    ( 0.0000,  0.0000,  0.0000)
   8 Li     0.000000    3.490000   10.000000    ( 0.0000,  0.0000,  0.0000)
   9 Li     2.467803    5.235000   10.000000    ( 0.0000,  0.0000,  0.0000)
  10 Li     2.467803    3.490000   12.467803    ( 0.0000,  0.0000,  0.0000)
  11 Li     0.000000    5.235000   12.467803    ( 0.0000,  0.0000,  0.0000)
  12 Li    -0.003889    3.558874   14.754265    ( 0.0000,  0.0000,  0.0000)
  13 Li     2.483039    5.206130   14.934740    ( 0.0000,  0.0000,  0.0000)
  14 Li     2.374502    3.360522   17.382024    ( 0.0000,  0.0000,  0.0000)
  15 Li     0.010874    5.142833   17.318305    ( 0.0000,  0.0000,  0.0000)
  16 Li     0.000000    6.980000   10.000000    ( 0.0000,  0.0000,  0.0000)
  17 Li     2.467803    8.725000   10.000000    ( 0.0000,  0.0000,  0.0000)
  18 Li     2.467803    6.980000   12.467803    ( 0.0000,  0.0000,  0.0000)
  19 Li     0.000000    8.725000   12.467803    ( 0.0000,  0.0000,  0.0000)
  20 Li    -0.002922    6.987341   14.945140    ( 0.0000,  0.0000,  0.0000)
  21 Li     2.483545    8.738976   14.895003    ( 0.0000,  0.0000,  0.0000)
  22 Li     2.420225    6.998817   17.288300    ( 0.0000,  0.0000,  0.0000)
  23 Li     0.018878    8.845862   17.338879    ( 0.0000,  0.0000,  0.0000)
  24 Li     4.935605    0.000000   10.000000    ( 0.0000,  0.0000,  0.0000)
  25 Li     7.403408    1.745000   10.000000    ( 0.0000,  0.0000,  0.0000)
  26 Li     7.403408    0.000000   12.467803    ( 0.0000,  0.0000,  0.0000)
  27 Li     4.935605    1.745000   12.467803    ( 0.0000,  0.0000,  0.0000)
  28 Li     4.940911    0.003164   14.860642    ( 0.0000,  0.0000,  0.0000)
  29 Li     7.405032    1.745010   14.867367    ( 0.0000,  0.0000,  0.0000)
  30 Li     7.398374    0.000365   17.213798    ( 0.0000,  0.0000,  0.0000)
  31 Li     4.890270    1.724805   17.254899    ( 0.0000,  0.0000,  0.0000)
  32 Li     4.935605    3.490000   10.000000    ( 0.0000,  0.0000,  0.0000)
  33 Li     7.403408    5.235000   10.000000    ( 0.0000,  0.0000,  0.0000)
  34 Li     7.403408    3.490000   12.467803    ( 0.0000,  0.0000,  0.0000)
  35 Li     4.935605    5.235000   12.467803    ( 0.0000,  0.0000,  0.0000)
  36 Li     4.946999    3.480588   14.872451    ( 0.0000,  0.0000,  0.0000)
  37 Li     7.402553    5.238256   14.856159    ( 0.0000,  0.0000,  0.0000)
  38 Li     7.393094    3.484517   17.216216    ( 0.0000,  0.0000,  0.0000)
  39 Li     4.874771    5.208863   17.239753    ( 0.0000,  0.0000,  0.0000)
  40 Li     4.935605    6.980000   10.000000    ( 0.0000,  0.0000,  0.0000)
  41 Li     7.403408    8.725000   10.000000    ( 0.0000,  0.0000,  0.0000)
  42 Li     7.403408    6.980000   12.467803    ( 0.0000,  0.0000,  0.0000)
  43 Li     4.935605    8.725000   12.467803    ( 0.0000,  0.0000,  0.0000)
  44 Li     4.935211    6.986324   14.878785    ( 0.0000,  0.0000,  0.0000)
  45 Li     7.404875    8.721994   14.854419    ( 0.0000,  0.0000,  0.0000)
  46 Li     7.392897    6.985243   17.222984    ( 0.0000,  0.0000,  0.0000)
  47 Li     4.867319    8.772348   17.256735    ( 0.0000,  0.0000,  0.0000)
  48 Li     9.871211    0.000000   10.000000    ( 0.0000,  0.0000,  0.0000)
  49 Li    12.339013    1.745000   10.000000    ( 0.0000,  0.0000,  0.0000)
  50 Li    12.339013    0.000000   12.467803    ( 0.0000,  0.0000,  0.0000)
  51 Li     9.871211    1.745000   12.467803    ( 0.0000,  0.0000,  0.0000)
  52 Li     9.862888    0.003169   14.862330    ( 0.0000,  0.0000,  0.0000)
  53 Li    12.347549    1.745375   14.849216    ( 0.0000,  0.0000,  0.0000)
  54 Li    12.440467    0.108208   17.368951    ( 0.0000,  0.0000,  0.0000)
  55 Li     9.898331    1.745249   17.223343    ( 0.0000,  0.0000,  0.0000)
  56 Li     9.871211    3.490000   10.000000    ( 0.0000,  0.0000,  0.0000)
  57 Li    12.339013    5.235000   10.000000    ( 0.0000,  0.0000,  0.0000)
  58 Li    12.339013    3.490000   12.467803    ( 0.0000,  0.0000,  0.0000)
  59 Li     9.871211    5.235000   12.467803    ( 0.0000,  0.0000,  0.0000)
  60 Li     9.862471    3.487214   14.859124    ( 0.0000,  0.0000,  0.0000)
  61 Li    12.324683    5.206504   14.923136    ( 0.0000,  0.0000,  0.0000)
  62 Li    12.442892    3.375496   17.368546    ( 0.0000,  0.0000,  0.0000)
  63 Li     9.923068    5.209132   17.229695    ( 0.0000,  0.0000,  0.0000)
  64 Li     9.871211    6.980000   10.000000    ( 0.0000,  0.0000,  0.0000)
  65 Li    12.339013    8.725000   10.000000    ( 0.0000,  0.0000,  0.0000)
  66 Li    12.339013    6.980000   12.467803    ( 0.0000,  0.0000,  0.0000)
[...]
 47 Li    0.02237   -0.02144   -0.01973
 48 Li   -0.00676   -0.00858    0.08344
 49 Li   -0.00098    0.00152    0.09048
 50 Li   -0.01168   -0.01983   -0.07787
 51 Li    0.00378    0.00057   -0.07217
 52 Li    0.00009    0.00326   -0.00569
 53 Li   -0.02375    0.00017    0.00812
 54 Li    0.00151   -0.02404   -0.00603
 55 Li   -0.01751   -0.00091   -0.01481
 56 Li   -0.00771    0.00902    0.08054
 57 Li   -0.01695   -0.00301    0.09197
 58 Li   -0.01206    0.02006   -0.07702
 59 Li   -0.00354    0.00123   -0.06220
 60 Li   -0.00176   -0.00286   -0.00530
 61 Li    0.01054    0.00147   -0.00462
 62 Li   -0.01120    0.02411   -0.01431
 63 Li   -0.00514    0.00743   -0.00461
 64 Li   -0.01819   -0.00037    0.07161
 65 Li   -0.01400    0.00161    0.09052
 66 Li    0.00104    0.00042   -0.00017
 67 Li   -0.00365   -0.00184   -0.06284
 68 Li   -0.00203    0.00000    0.00280
 69 Li    0.00991    0.00009   -0.00947
 70 Li    0.00339   -0.00015    0.00876
 71 Li   -0.00465   -0.00593   -0.00246
 72 Li   -0.02937   -0.02801    0.03515

System changes: positions 

Initializing position-dependent things.

Density initialized from wave functions
       .-----------------------------------.  
      /|                                   |  
     / |                                   |  
    /  |                                   |  
   /   |                                   |  
  /    |                                   |  
 *     |                                   |  
 |     |                                   |  
 |     |                                   |  
 |     |                                   |  
 |     |                                   |  
 |     |                                   |  
 |     |                                   |  
 |    Li                                   |  
 |     |          Li          Li           |  
 | Li  |   Li          Li          Li      |  
 |  Li Li       Li          Li      Li     |  
 |     | Li Li       Li Li       Li      Li|  
 |Li   |  Li  Li Li       Li LiLi          |  
 |     Li          Li Li          Li       |  
 |    Li       Li Li       Li Li       Li  |  
 |     |Li Li       Li Li       Li Li      |  
 |  Li |     Li Li       Li Li             |  
 |     | Li Li       Li Li       Li Li     |  
 |Li Li|      Li Li       Li Li            |  
 |     Li Li       Li Li       Li Li       |  
 | Li  |       Li          Li              |  
 |     |Li          Li          Li         |  
 Li    |     Li          Li                |  
 |     |                                   |  
 |     |                                   |  
 |     |                                   |  
 |     |                                   |  
 |     |                                   |  
 |     .-----------------------------------.  
 |    /                                   /   
 |   /                                   /    
 |  /                                   /     
 | /                                   /      
 |/                                   /       
 *-----------------------------------*        

Atomic positions and initial magnetic moments

Positions:
   0 Li     0.000000    0.000000   10.000000    ( 0.0000,  0.0000,  0.0000)
   1 Li     2.467803    1.745000   10.000000    ( 0.0000,  0.0000,  0.0000)
   2 Li     2.467803    0.000000   12.467803    ( 0.0000,  0.0000,  0.0000)
   3 Li     0.000000    1.745000   12.467803    ( 0.0000,  0.0000,  0.0000)
   4 Li     0.001128   -0.078014   14.735989    ( 0.0000,  0.0000,  0.0000)
   5 Li     2.463908    1.760795   14.821741    ( 0.0000,  0.0000,  0.0000)
   6 Li     2.383900    0.099700   17.275612    ( 0.0000,  0.0000,  0.0000)
   7 Li     0.002618    1.735764   16.767929    ( 0.0000,  0.0000,  0.0000)
   8 Li     0.000000    3.490000   10.000000    ( 0.0000,  0.0000,  0.0000)
   9 Li     2.467803    5.235000   10.000000    ( 0.0000,  0.0000,  0.0000)
  10 Li     2.467803    3.490000   12.467803    ( 0.0000,  0.0000,  0.0000)
  11 Li     0.000000    5.235000   12.467803    ( 0.0000,  0.0000,  0.0000)
  12 Li    -0.004414    3.562686   14.752001    ( 0.0000,  0.0000,  0.0000)
  13 Li     2.480883    5.205983   14.932324    ( 0.0000,  0.0000,  0.0000)
  14 Li     2.375630    3.362501   17.377339    ( 0.0000,  0.0000,  0.0000)
  15 Li     0.012336    5.143416   17.316730    ( 0.0000,  0.0000,  0.0000)
  16 Li     0.000000    6.980000   10.000000    ( 0.0000,  0.0000,  0.0000)
  17 Li     2.467803    8.725000   10.000000    ( 0.0000,  0.0000,  0.0000)
  18 Li     2.467803    6.980000   12.467803    ( 0.0000,  0.0000,  0.0000)
  19 Li     0.000000    8.725000   12.467803    ( 0.0000,  0.0000,  0.0000)
  20 Li    -0.002641    6.987526   14.940562    ( 0.0000,  0.0000,  0.0000)
  21 Li     2.482231    8.739234   14.894048    ( 0.0000,  0.0000,  0.0000)
  22 Li     2.419442    6.997486   17.289383    ( 0.0000,  0.0000,  0.0000)
  23 Li     0.018581    8.849955   17.338645    ( 0.0000,  0.0000,  0.0000)
  24 Li     4.935605    0.000000   10.000000    ( 0.0000,  0.0000,  0.0000)
  25 Li     7.403408    1.745000   10.000000    ( 0.0000,  0.0000,  0.0000)
  26 Li     7.403408    0.000000   12.467803    ( 0.0000,  0.0000,  0.0000)
  27 Li     4.935605    1.745000   12.467803    ( 0.0000,  0.0000,  0.0000)
  28 Li     4.939845    0.004138   14.862443    ( 0.0000,  0.0000,  0.0000)
  29 Li     7.405127    1.744857   14.865636    ( 0.0000,  0.0000,  0.0000)
  30 Li     7.399117    0.000086   17.212803    ( 0.0000,  0.0000,  0.0000)
  31 Li     4.895189    1.726997   17.252812    ( 0.0000,  0.0000,  0.0000)
  32 Li     4.935605    3.490000   10.000000    ( 0.0000,  0.0000,  0.0000)
  33 Li     7.403408    5.235000   10.000000    ( 0.0000,  0.0000,  0.0000)
  34 Li     7.403408    3.490000   12.467803    ( 0.0000,  0.0000,  0.0000)
  35 Li     4.935605    5.235000   12.467803    ( 0.0000,  0.0000,  0.0000)
  36 Li     4.946806    3.479651   14.871742    ( 0.0000,  0.0000,  0.0000)
  37 Li     7.402620    5.239002   14.855571    ( 0.0000,  0.0000,  0.0000)
  38 Li     7.393307    3.485073   17.215877    ( 0.0000,  0.0000,  0.0000)
  39 Li     4.875668    5.209841   17.239253    ( 0.0000,  0.0000,  0.0000)
  40 Li     4.935605    6.980000   10.000000    ( 0.0000,  0.0000,  0.0000)
  41 Li     7.403408    8.725000   10.000000    ( 0.0000,  0.0000,  0.0000)
  42 Li     7.403408    6.980000   12.467803    ( 0.0000,  0.0000,  0.0000)
  43 Li     4.935605    8.725000   12.467803    ( 0.0000,  0.0000,  0.0000)
  44 Li     4.935920    6.986112   14.879527    ( 0.0000,  0.0000,  0.0000)
  45 Li     7.404839    8.721321   14.853679    ( 0.0000,  0.0000,  0.0000)
  46 Li     7.392940    6.984941   17.222246    ( 0.0000,  0.0000,  0.0000)
  47 Li     4.870767    8.769268   17.253785    ( 0.0000,  0.0000,  0.0000)
  48 Li     9.871211    0.000000   10.000000    ( 0.0000,  0.0000,  0.0000)
  49 Li    12.339013    1.745000   10.000000    ( 0.0000,  0.0000,  0.0000)
  50 Li    12.339013    0.000000   12.467803    ( 0.0000,  0.0000,  0.0000)
  51 Li     9.871211    1.745000   12.467803    ( 0.0000,  0.0000,  0.0000)
  52 Li     9.862972    0.004072   14.861538    ( 0.0000,  0.0000,  0.0000)
  53 Li    12.344083    1.745449   14.851540    ( 0.0000,  0.0000,  0.0000)
  54 Li    12.441099    0.103479   17.367790    ( 0.0000,  0.0000,  0.0000)
  55 Li     9.894904    1.745126   17.220809    ( 0.0000,  0.0000,  0.0000)
  56 Li     9.871211    3.490000   10.000000    ( 0.0000,  0.0000,  0.0000)
  57 Li    12.339013    5.235000   10.000000    ( 0.0000,  0.0000,  0.0000)
  58 Li    12.339013    3.490000   12.467803    ( 0.0000,  0.0000,  0.0000)
  59 Li     9.871211    5.235000   12.467803    ( 0.0000,  0.0000,  0.0000)
  60 Li     9.862272    3.486407   14.858350    ( 0.0000,  0.0000,  0.0000)
  61 Li    12.326669    5.206680   14.922217    ( 0.0000,  0.0000,  0.0000)
  62 Li    12.441679    3.379457   17.365987    ( 0.0000,  0.0000,  0.0000)
  63 Li     9.922183    5.210395   17.229023    ( 0.0000,  0.0000,  0.0000)
  64 Li     9.871211    6.980000   10.000000    ( 0.0000,  0.0000,  0.0000)
  65 Li    12.339013    8.725000   10.000000    ( 0.0000,  0.0000,  0.0000)
  66 Li    12.339013    6.980000   12.467803    ( 0.0000,  0.0000,  0.0000)
  67 Li     9.871211    8.725000   12.467803    ( 0.0000,  0.0000,  0.0000)
  68 Li     9.874224    6.979929   14.865955    ( 0.0000,  0.0000,  0.0000)
  69 Li    12.324205    8.754711   14.917846    ( 0.0000,  0.0000,  0.0000)
  70 Li    12.396432    6.986860   17.274383    ( 0.0000,  0.0000,  0.0000)
  71 Li     9.921713    8.750548   17.228354    ( 0.0000,  0.0000,  0.0000)
  72 Li     0.412829    1.438988   19.340907    ( 0.0000,  0.0000,  0.0000)

Unit cell:
           periodic     x           y           z      points  spacing
  1. axis:    yes   14.806816    0.000000    0.000000    76     0.1948
  2. axis:    yes    0.000000   10.470000    0.000000    52     0.2013
  3. axis:    no     0.000000    0.000000   27.403408   136     0.2015

  Lengths:  14.806816  10.470000  27.403408
  Angles:   90.000000  90.000000  90.000000

Effective grid spacing dv^(1/3) = 0.1992

     iter     time        total  log10-change:
                         energy   eigst   dens
iter:   1 06:07:33  -127.092553        c
iter:   2 06:07:43  -127.092736        c -3.07
iter:   3 06:07:53  -127.092968c       c -3.23
iter:   4 06:08:04  -127.093267c       c -3.49
iter:   5 06:08:14  -127.093191c       c -3.70
iter:   6 06:08:24  -127.093154c       c -3.97
iter:   7 06:08:34  -127.093157c       c -4.06c

Converged after 7 iterations.

Dipole moment: (-17.947343, -10.266780, 0.297484) |e|*Ang

Energy contributions relative to reference atoms: (reference = -14803.510878)

Kinetic:       +134.659247
Potential:     -115.760058
External:        +0.000000
XC:            -144.034740
Entropy (-ST):   -2.104633
Local:           -0.905291
SIC:             +0.000000
--------------------------
Free energy:   -128.145474
Extrapolated:  -127.093157

 Band  Eigenvalues  Occupancy
    0     -6.37785    2.00000
    1     -5.86694    2.00000
    2     -5.85056    2.00000
    3     -5.79219    2.00000
    4     -5.33860    2.00000
    5     -5.33219    2.00000
    6     -5.27108    2.00000
    7     -5.24872    2.00000
    8     -4.83425    2.00000
    9     -4.82774    1.99999
   10     -4.81314    1.99999
   11     -4.80830    1.99999
   12     -4.77041    1.99999
   13     -4.74231    1.99999
   14     -4.68409    1.99999
   15     -4.31688    1.99984
   16     -4.30535    1.99983
   17     -4.26669    1.99978
   18     -4.24692    1.99975
   19     -4.23303    1.99973
   20     -4.21889    1.99970
   21     -4.15935    1.99955
   22     -4.11259    1.99939
   23     -3.72566    1.99196
   24     -3.66737    1.98816
   25     -3.64891    1.98662
   26     -3.63296    1.98513
   27     -3.42532    1.94192
   28     -3.25898    1.83377
   29     -3.25454    1.82920
   30     -3.25330    1.82791
   31     -3.24570    1.81976
   32     -3.16994    1.71803
   33     -3.15921    1.70026
   34     -3.13812    1.66264
   35     -3.13238    1.65178
   36     -2.85440    0.85284
   37     -2.74071    0.51677
   38     -2.67425    0.36561
   39     -2.66181    0.34148
   40     -2.65508    0.32895
   41     -2.64608    0.31280
   42     -2.47655    0.11299
   43     -2.47300    0.11049
   44     -2.35098    0.05054
   45     -2.32852    0.04366
   46     -2.21713    0.02102
   47     -2.07535    0.00822

Fermi level: -2.89887

Gap: 0.278 eV
Transition (v -> c):
  (s=0, k=0, n=35, [0.00, 0.00, 0.00]) -> (s=0, k=0, n=36, [0.00, 0.00, 0.00])
No difference between direct/indirect transitions

Forces in eV/Ang:
  0 Li   -0.00084    0.00764    0.10250
  1 Li    0.00090    0.00114    0.09405
  2 Li    0.01073   -0.02254   -0.08314
  3 Li   -0.00140    0.00687   -0.06159
  4 Li    0.00109   -0.02586   -0.02102
  5 Li    0.02312   -0.00224   -0.00052
  6 Li    0.01700   -0.02044   -0.00834
  7 Li   -0.01652    0.02333   -0.04019
  8 Li   -0.00109   -0.01023    0.10405
  9 Li    0.01421   -0.00657    0.09589
 10 Li    0.01053    0.03208   -0.08786
 11 Li   -0.00109    0.05971   -0.11742
 12 Li   -0.00155    0.03552   -0.03327
 13 Li   -0.00958    0.00036   -0.01295
 14 Li    0.00332    0.00541   -0.02793
 15 Li    0.00626    0.00558   -0.01338
 16 Li   -0.00457    0.00240    0.10007
 17 Li    0.01181    0.00566    0.09599
 18 Li   -0.00041   -0.00739   -0.01160
 19 Li   -0.00221   -0.06814   -0.13447
 20 Li    0.00208    0.00262   -0.02111
 21 Li   -0.00475   -0.00199   -0.00403
 22 Li   -0.00431   -0.00554    0.00339
 23 Li    0.00047    0.01709   -0.00591
 24 Li    0.00652   -0.00580    0.08330
 25 Li    0.00170    0.00250    0.08816
 26 Li   -0.00185   -0.00173   -0.07565
 27 Li    0.00222    0.00335   -0.07498
 28 Li   -0.00384    0.00322    0.00704
 29 Li    0.00010   -0.00063   -0.00912
 30 Li    0.00452   -0.00340   -0.00729
 31 Li    0.02747    0.01330   -0.01194
 32 Li    0.00781    0.00501    0.08191
 33 Li    0.00341    0.01241    0.06502
 34 Li   -0.00023    0.00104   -0.07473
 35 Li    0.00385    0.00111   -0.04717
 36 Li    0.00007   -0.00102   -0.00580
 37 Li    0.00009    0.00267   -0.00342
 38 Li    0.00354    0.00621   -0.00399
 39 Li    0.00483    0.00435   -0.00425
 40 Li    0.02172    0.00082    0.07854
 41 Li    0.00275   -0.01505    0.06922
 42 Li    0.00044    0.00042   -0.07452
 43 Li    0.00547   -0.00496   -0.06149
 44 Li    0.00128   -0.00273   -0.00053
 45 Li   -0.00049   -0.00245   -0.00382
 46 Li    0.00258   -0.00276   -0.00493
 47 Li    0.02096   -0.02070   -0.01810
 48 Li   -0.00668   -0.00839    0.08330
 49 Li   -0.00104    0.00150    0.09043
 50 Li   -0.01183   -0.01940   -0.07789
 51 Li    0.00369    0.00056   -0.07260
 52 Li   -0.00014    0.00144   -0.00566
 53 Li   -0.02302   -0.00002    0.00388
 54 Li   -0.00072   -0.01969   -0.00599
 55 Li   -0.01403   -0.00094   -0.01319
 56 Li   -0.00769    0.00882    0.08042
 57 Li   -0.01681   -0.00302    0.09193
 58 Li   -0.01224    0.01978   -0.07690
 59 Li   -0.00344    0.00134   -0.06206
 60 Li   -0.00187   -0.00120   -0.00520
 61 Li    0.00857    0.00205   -0.00403
 62 Li   -0.01294    0.02267   -0.01338
 63 Li   -0.00492    0.00690   -0.00463
 64 Li   -0.01810   -0.00036    0.07167
 65 Li   -0.01382    0.00164    0.09046
 66 Li    0.00103    0.00033   -0.00060
 67 Li   -0.00355   -0.00193   -0.06266
 68 Li   -0.00072    0.00017    0.00179
 69 Li    0.00795   -0.00085   -0.00781
 70 Li    0.00380    0.00055    0.00742
 71 Li   -0.00409   -0.00560   -0.00269
 72 Li   -0.03112   -0.02623    0.00539

Timing:                                       incl.     excl.
--------------------------------------------------------------------
Basic WFS set positions:                      0.044     0.016   0.0% |
 Redistribute:                                0.028     0.028   0.0% |
Basis functions set positions:               11.775    11.775   0.2% |
Forces:                                     213.604     5.035   0.1% |
 LCAO forces:                               208.569     0.220   0.0% |
  Atomic Hamiltonian force:                   0.851     0.851   0.0% |
  Initial:                                    0.030     0.000   0.0% |
   Get density matrix:                        0.030     0.030   0.0% |
  Paw correction:                             0.919     0.919   0.0% |
  Potential:                                195.019   195.019   3.5% ||
  TCI derivative:                            11.530    11.530   0.2% |
  Wait for sum:                               0.000     0.000   0.0% |
LCAO WFS Initialize:                         63.802     0.371   0.0% |
 Density initialized from wave functions:    43.896    11.567   0.2% |
  Calculate density matrix:                   0.163     0.163   0.0% |
  Construct density:                         32.165    32.165   0.6% |
  Symmetrize density:                         0.001     0.001   0.0% |
 Hamiltonian:                                19.535     0.002   0.0% |
  Atomic:                                     5.370     0.021   0.0% |
   XC Correction:                             5.349     5.349   0.1% |
  Calculate atomic Hamiltonians:              0.301     0.301   0.0% |
  Communicate:                                0.000     0.000   0.0% |
  Hartree integrate/restrict:                 0.505     0.505   0.0% |
  Initialize Hamiltonian:                     0.000     0.000   0.0% |
  Poisson:                                    6.532     2.763   0.0% |
   Communicate from 1D:                       0.310     0.310   0.0% |
   Communicate from 2D:                       0.295     0.295   0.0% |
   Communicate to 1D:                         0.223     0.223   0.0% |
   Communicate to 2D:                         0.567     0.567   0.0% |
   FFT 1D:                                    1.030     1.030   0.0% |
   FFT 2D:                                    1.343     1.343   0.0% |
  XC 3D grid:                                 5.273     5.273   0.1% |
  vbar:                                       1.552     1.552   0.0% |
P tci:                                        4.895     4.895   0.1% |
Redistribute:                                 0.005     0.005   0.0% |
SCF-cycle:                                  683.801     0.091   0.0% |
 Density:                                   246.019     0.003   0.0% |
  Atomic density matrices:                    0.174     0.174   0.0% |
  Mix:                                        9.894     9.894   0.2% |
  Multipole moments:                          0.043     0.043   0.0% |
  Normalize:                                  0.020     0.020   0.0% |
  Pseudo density:                           235.886     0.164   0.0% |
   Calculate density matrix:                  0.023     0.023   0.0% |
   Construct density:                       235.692   235.692   4.2% |-|
   Symmetrize density:                        0.007     0.007   0.0% |
 Hamiltonian:                               108.297     0.007   0.0% |
  Atomic:                                    38.899     0.171   0.0% |
   XC Correction:                            38.729    38.729   0.7% |
  Calculate atomic Hamiltonians:              2.231     2.231   0.0% |
  Communicate:                                0.001     0.001   0.0% |
  Hartree integrate/restrict:                 1.062     1.062   0.0% |
  Poisson:                                   28.487     1.670   0.0% |
   Communicate from 1D:                       2.537     2.537   0.0% |
   Communicate from 2D:                       2.144     2.144   0.0% |
   Communicate to 1D:                         1.598     1.598   0.0% |
   Communicate to 2D:                         3.767     3.767   0.1% |
   FFT 1D:                                    7.459     7.459   0.1% |
   FFT 2D:                                    9.313     9.313   0.2% |
  XC 3D grid:                                36.318    36.318   0.7% |
  vbar:                                       1.291     1.291   0.0% |
 LCAO eigensolver:                          329.394     0.042   0.0% |
  Calculate projections:                      0.093     0.093   0.0% |
  DenseAtomicCorrection:                      1.165     1.165   0.0% |
  Distribute overlap matrix:                  0.006     0.006   0.0% |
  Orbital Layouts:                            2.368     2.368   0.0% |
  Potential matrix:                         325.720   325.720   5.9% |-|
ST tci:                                       2.307     2.307   0.0% |
Set symmetry:                                 0.001     0.001   0.0% |
TCI: Evaluate splines:                        0.007     0.007   0.0% |
mktci:                                        1.046     1.046   0.0% |
Other:                                     4581.187  4581.187  82.4% |--------------------------------|
--------------------------------------------------------------------
Total:                                               5562.472 100.0%

Memory usage: 3.67 GiB
Date: Wed Nov 26 06:16:31 2025
