
  ___ ___ ___ _ _ _  
 |   |   |_  | | | | 
 | | | | | . | | | | 
 |__ |  _|___|_____|  25.7.0
 |___|_|             

User:   tew@Mathuss-MacBook-Air-357.local
Date:   Wed Nov 26 04:43:48 2025
Arch:   arm64
Pid:    88448
CWD:    /Users/tew/Documents/Project/GitHub/chem-com
Python: 3.13.5
gpaw:   /Users/tew/Documents/Project/GitHub/chem-com/.venv/lib/python3.13/site-packages/gpaw
_gpaw:  /Users/tew/Documents/Project/GitHub/chem-com/.venv/lib/python3.13/site-packages/
        _gpaw.cpython-313-darwin.so
ase:    /Users/tew/Documents/Project/GitHub/chem-com/.venv/lib/python3.13/site-packages/ase (version 3.26.0)
numpy:  /Users/tew/Documents/Project/GitHub/chem-com/.venv/lib/python3.13/site-packages/numpy (version 2.3.5)
scipy:  /Users/tew/Documents/Project/GitHub/chem-com/.venv/lib/python3.13/site-packages/scipy (version 1.16.3)
libxc:  2.x.y
units:  Angstrom and eV
cores: 1
OpenMP: False
OMP_NUM_THREADS: 1

Input parameters:
  basis: dzp
  convergence: {density: 0.0001,
                eigenstates: 5e-06}
  kpts: [1 1 1]
  mode: {interpolation: 3,
         name: lcao}
  occupations: {fixmagmom: False,
                name: fermi-dirac,
                width: 0.15}
  xc: PBE

System changes: positions, numbers, cell, pbc, initial_charges, initial_magmoms 

Initialize ...

species:
  Li:
    name: Lithium
    id: 830b4218f175192f93f959cfc0aad614
    Z: 3.0
    valence: 1
    core: 2
    charge: 0.0
    file: /Users/tew/Documents/Project/GitHub/chem-com/.venv/lib/python3.13/site-packages/gpaw_data/setups/Li.PBE.gz
    compensation charges: {type: gauss,
                           rc: 0.33,
                           lmax: 2}
    cutoffs: {filter: 1.91,
              core: 2.55}
    projectors:
      #              energy  rcut
      - 2s(1.00)    -2.874   1.058
      - 2p(0.00)    -1.090   1.058
      -  s          24.337   1.058
  
    # LCAO basis set for Li:
    #   Name: dzp
    #   File: /Users/tew/Documents/Project/GitHub/chem-com/.venv/lib/python3.13/site-packages/gpaw_data/setups/Li.dzp.basis.gz
    #   Number of radial functions: 3
    #   Number of spherical harmonics: 5
    #     l=0, rc=10.8906 Bohr: 2s-sz confined orbital
    #     l=0, rc=6.6719 Bohr: 2s-dz split-valence wave
    #     l=1, rc=10.8906 Bohr: p-type Gaussian polarization
    #   Number of RI-basis functions 0

Reference energy: -14803.510878  # eV

Spin-paired calculation

Convergence criteria:
 Maximum [total energy] change in last 3 cyles: 0.0005 eV / valence electron
 Maximum integral of absolute [dens]ity change: 0.0001 electrons / valence electron
 Maximum integral of absolute [eigenst]ate change: 5e-06 eV^2 / valence electron
 Maximum number of scf [iter]ations: 333
 (Square brackets indicate name in SCF output, whereas a 'c' in
 the SCF output indicates the quantity has converged.)

Symmetries present (total): 1

  ( 1  0  0)
  ( 0  1  0)
  ( 0  0  1)

1 k-point (Gamma)
1 k-point in the irreducible part of the Brillouin zone
       k-points in crystal coordinates                weights
   0:     0.00000000    0.00000000    0.00000000          1/1

Wave functions: LCAO
  Diagonalizer: Serial LAPACK
  Atomic Correction: dense with blas
  Data-type: float
 

Occupation numbers: Fermi-Dirac:
  width: 0.1500  # eV
 

Eigensolver
   LCAO using direct dense diagonalizer 

Densities:
  Coarse grid: 76*52*136 grid
  Fine grid: 152*104*272 grid
  Total Charge: 0.000000 

Density mixing:
  Method: separate
  Backend: pulay
  Linear mixing parameter: 0.05
  old densities: 5
  Damping of long wavelength oscillations: 50 

Hamiltonian:
  XC and Coulomb potentials evaluated on a 152*104*272 grid
  Using the PBE Exchange-Correlation functional
  Interpolation: tri-quintic (5. degree polynomial)
  Poisson solver: FastPoissonSolver using
    Stencil: 6*3+1=19 point O(h^6) finite-difference Laplacian
    FFT axes: [np.int64(0), np.int64(1)]
    FST axes: [np.int64(2)]
 

XC parameters: PBE with 2 nearest neighbor stencil

Memory estimate:
  Process memory now: 3762.67 MiB
  Calculator: 680.35 MiB
    Density: 353.33 MiB
      Arrays: 106.19 MiB
      Localized functions: 206.43 MiB
      Mixer: 40.70 MiB
    Hamiltonian: 85.76 MiB
      Arrays: 69.44 MiB
      XC: 0.00 MiB
      Poisson: 0.00 MiB
      vbar: 16.32 MiB
    Wavefunctions: 241.26 MiB
      C [qnM]: 0.13 MiB
      S, T [2 x qmm]: 2.03 MiB
      P [aqMi]: 0.13 MiB
      BasisFunctions: 238.97 MiB
      Eigensolver: 0.00 MiB

Total number of cores used: 1

Number of atoms: 73
Number of atomic orbitals: 365
Number of bands in calculation: 48
Number of valence electrons: 73
Bands to converge: occupied

... initialized

Initializing position-dependent things.

Density initialized from atomic densities
       .-----------------------------------.  
      /|                                   |  
     / |                                   |  
    /  |                                   |  
   /   |                                   |  
  /    |                                   |  
 *     |                                   |  
 |     |                                   |  
 |     |                                   |  
 |     |                                   |  
 |     |                                   |  
 |     |                                   |  
 |     |                                   |  
 |    Li          Li                       |  
 |     |   Li                 Li           |  
 |     |               Li          Li      |  
 |  LLiLi       Li          Li             |  
 |     | Li Li   Li  Li Li       Li Li   Li|  
 |Li   |  Li  Li          Li Li            |  
 |     Li          Li Li       Li Li       |  
 |    Li       Li Li       Li Li       Li  |  
 |     |Li Li       Li Li       Li Li      |  
 |  Li |     Li Li       Li Li             |  
 |     | Li Li       Li Li       Li Li     |  
 |Li Li|      Li Li       Li Li            |  
 |     Li Li       Li Li       Li Li       |  
 | Li  |       Li          Li              |  
 |     |Li          Li          Li         |  
 Li    |     Li          Li                |  
 |     |                                   |  
 |     |                                   |  
 |     |                                   |  
 |     |                                   |  
 |     |                                   |  
 |     .-----------------------------------.  
 |    /                                   /   
 |   /                                   /    
 |  /                                   /     
 | /                                   /      
 |/                                   /       
 *-----------------------------------*        

Atomic positions and initial magnetic moments

Positions:
   0 Li     0.000000    0.000000   10.000000    ( 0.0000,  0.0000,  0.0000)
   1 Li     2.467803    1.745000   10.000000    ( 0.0000,  0.0000,  0.0000)
   2 Li     2.467803    0.000000   12.467803    ( 0.0000,  0.0000,  0.0000)
   3 Li     0.000000    1.745000   12.467803    ( 0.0000,  0.0000,  0.0000)
   4 Li     0.005633   -0.028462   14.799723    ( 0.0000,  0.0000,  0.0000)
   5 Li     2.461665    1.806822   14.753133    ( 0.0000,  0.0000,  0.0000)
   6 Li     2.428123    0.045595   16.933300    ( 0.0000,  0.0000,  0.0000)
   7 Li     0.077520    1.651848   17.168439    ( 0.0000,  0.0000,  0.0000)
   8 Li     0.000000    3.490000   10.000000    ( 0.0000,  0.0000,  0.0000)
   9 Li     2.467803    5.235000   10.000000    ( 0.0000,  0.0000,  0.0000)
  10 Li     2.467803    3.490000   12.467803    ( 0.0000,  0.0000,  0.0000)
  11 Li     0.000000    5.235000   12.467803    ( 0.0000,  0.0000,  0.0000)
  12 Li    -0.012834    3.494838   14.864611    ( 0.0000,  0.0000,  0.0000)
  13 Li     2.474934    5.223543   14.944702    ( 0.0000,  0.0000,  0.0000)
  14 Li     2.428857    3.369631   17.351355    ( 0.0000,  0.0000,  0.0000)
  15 Li     0.036465    5.197949   17.296359    ( 0.0000,  0.0000,  0.0000)
  16 Li     0.000000    6.980000   10.000000    ( 0.0000,  0.0000,  0.0000)
  17 Li     2.467803    8.725000   10.000000    ( 0.0000,  0.0000,  0.0000)
  18 Li     2.467803    6.980000   12.467803    ( 0.0000,  0.0000,  0.0000)
  19 Li     0.000000    8.725000   12.467803    ( 0.0000,  0.0000,  0.0000)
  20 Li    -0.012834    7.004263   14.942684    ( 0.0000,  0.0000,  0.0000)
  21 Li     2.474146    8.674972   14.783541    ( 0.0000,  0.0000,  0.0000)
  22 Li     2.448103    7.055699   17.311215    ( 0.0000,  0.0000,  0.0000)
  23 Li     0.077520    8.854589   17.374705    ( 0.0000,  0.0000,  0.0000)
  24 Li     4.935605    0.000000   10.000000    ( 0.0000,  0.0000,  0.0000)
  25 Li     7.403408    1.745000   10.000000    ( 0.0000,  0.0000,  0.0000)
  26 Li     7.403408    0.000000   12.467803    ( 0.0000,  0.0000,  0.0000)
  27 Li     4.935605    1.745000   12.467803    ( 0.0000,  0.0000,  0.0000)
  28 Li     4.932297    0.000769   14.849158    ( 0.0000,  0.0000,  0.0000)
  29 Li     7.409381    1.743669   14.866827    ( 0.0000,  0.0000,  0.0000)
  30 Li     7.379944    0.000227   17.223343    ( 0.0000,  0.0000,  0.0000)
  31 Li     4.844836    1.653325   17.341831    ( 0.0000,  0.0000,  0.0000)
  32 Li     4.935605    3.490000   10.000000    ( 0.0000,  0.0000,  0.0000)
  33 Li     7.403408    5.235000   10.000000    ( 0.0000,  0.0000,  0.0000)
  34 Li     7.403408    3.490000   12.467803    ( 0.0000,  0.0000,  0.0000)
  35 Li     4.935605    5.235000   12.467803    ( 0.0000,  0.0000,  0.0000)
  36 Li     4.952035    3.465516   14.909926    ( 0.0000,  0.0000,  0.0000)
  37 Li     7.399609    5.235924   14.865426    ( 0.0000,  0.0000,  0.0000)
  38 Li     7.361687    3.467859   17.226809    ( 0.0000,  0.0000,  0.0000)
  39 Li     4.878463    5.224073   17.263780    ( 0.0000,  0.0000,  0.0000)
  40 Li     4.935605    6.980000   10.000000    ( 0.0000,  0.0000,  0.0000)
  41 Li     7.403408    8.725000   10.000000    ( 0.0000,  0.0000,  0.0000)
  42 Li     7.403408    6.980000   12.467803    ( 0.0000,  0.0000,  0.0000)
  43 Li     4.935605    8.725000   12.467803    ( 0.0000,  0.0000,  0.0000)
  44 Li     4.946817    7.003840   14.911727    ( 0.0000,  0.0000,  0.0000)
  45 Li     7.409381    8.725548   14.861192    ( 0.0000,  0.0000,  0.0000)
  46 Li     7.361687    7.001982   17.229727    ( 0.0000,  0.0000,  0.0000)
  47 Li     4.836375    8.827878   17.342916    ( 0.0000,  0.0000,  0.0000)
  48 Li     9.871211    0.000000   10.000000    ( 0.0000,  0.0000,  0.0000)
  49 Li    12.339013    1.745000   10.000000    ( 0.0000,  0.0000,  0.0000)
  50 Li    12.339013    0.000000   12.467803    ( 0.0000,  0.0000,  0.0000)
  51 Li     9.871211    1.745000   12.467803    ( 0.0000,  0.0000,  0.0000)
  52 Li     9.867222    0.000769   14.868102    ( 0.0000,  0.0000,  0.0000)
  53 Li    12.338763    1.743718   14.856599    ( 0.0000,  0.0000,  0.0000)
  54 Li    12.399479    0.045595   17.285061    ( 0.0000,  0.0000,  0.0000)
  55 Li     9.883560    1.745355   17.217804    ( 0.0000,  0.0000,  0.0000)
  56 Li     9.871211    3.490000   10.000000    ( 0.0000,  0.0000,  0.0000)
  57 Li    12.339013    5.235000   10.000000    ( 0.0000,  0.0000,  0.0000)
  58 Li    12.339013    3.490000   12.467803    ( 0.0000,  0.0000,  0.0000)
  59 Li     9.871211    5.235000   12.467803    ( 0.0000,  0.0000,  0.0000)
  60 Li     9.867242    3.491237   14.857058    ( 0.0000,  0.0000,  0.0000)
  61 Li    12.336278    5.223543   14.891603    ( 0.0000,  0.0000,  0.0000)
  62 Li    12.418107    3.422354   17.288285    ( 0.0000,  0.0000,  0.0000)
  63 Li     9.892291    5.224073   17.224434    ( 0.0000,  0.0000,  0.0000)
  64 Li     9.871211    6.980000   10.000000    ( 0.0000,  0.0000,  0.0000)
  65 Li    12.339013    8.725000   10.000000    ( 0.0000,  0.0000,  0.0000)
  66 Li    12.339013    6.980000   12.467803    ( 0.0000,  0.0000,  0.0000)
  67 Li     9.871211    8.725000   12.467803    ( 0.0000,  0.0000,  0.0000)
  68 Li     9.872460    6.978119   14.858859    ( 0.0000,  0.0000,  0.0000)
  69 Li    12.326282    8.738076   14.887006    ( 0.0000,  0.0000,  0.0000)
  70 Li    12.398861    7.002976   17.248145    ( 0.0000,  0.0000,  0.0000)
  71 Li     9.892022    8.735848   17.218890    ( 0.0000,  0.0000,  0.0000)
  72 Li     1.645923    0.581929   19.315642    ( 0.0000,  0.0000,  0.0000)

Unit cell:
           periodic     x           y           z      points  spacing
  1. axis:    yes   14.806816    0.000000    0.000000    76     0.1948
  2. axis:    yes    0.000000   10.470000    0.000000    52     0.2013
  3. axis:    no     0.000000    0.000000   27.403408   136     0.2015

  Lengths:  14.806816  10.470000  27.403408
  Angles:   90.000000  90.000000  90.000000

Effective grid spacing dv^(1/3) = 0.1992

     iter     time        total  log10-change:
                         energy   eigst   dens
iter:   1 04:49:03  -134.688757        c
iter:   2 04:49:14  -131.049267        c -0.63
iter:   3 04:49:26  -128.313640        c -0.77
iter:   4 04:49:36  -127.885431        c -0.98
iter:   5 04:49:47  -127.195479        c -1.08
iter:   6 04:49:58  -127.251299        c -1.43
iter:   7 04:50:09  -127.111233        c -1.43
iter:   8 04:50:20  -127.080162        c -1.69
iter:   9 04:50:30  -127.062710        c -1.88
iter:  10 04:50:42  -127.058809c       c -2.06
iter:  11 04:50:53  -127.056677c       c -2.25
iter:  12 04:51:04  -127.055540c       c -2.41
iter:  13 04:51:15  -127.055236c       c -2.53
iter:  14 04:51:27  -127.054977c       c -2.61
iter:  15 04:51:39  -127.054553c       c -2.85
iter:  16 04:51:50  -127.054486c       c -3.03
iter:  17 04:52:01  -127.054392c       c -3.11
iter:  18 04:52:11  -127.054567c       c -3.26
iter:  19 04:52:22  -127.054700c       c -3.52
iter:  20 04:52:32  -127.054784c       c -3.66
iter:  21 04:52:42  -127.054758c       c -3.81
iter:  22 04:52:52  -127.054780c       c -4.03c

Converged after 22 iterations.

Dipole moment: (-16.699707, -11.823408, 0.280427) |e|*Ang

Energy contributions relative to reference atoms: (reference = -14803.510878)

Kinetic:       +135.034789
Potential:     -115.997745
External:        +0.000000
XC:            -144.123802
Entropy (-ST):   -2.107986
Local:           -0.914030
SIC:             +0.000000
--------------------------
Free energy:   -128.108773
Extrapolated:  -127.054780

 Band  Eigenvalues  Occupancy
    0     -6.38112    2.00000
    1     -5.86847    2.00000
    2     -5.85531    2.00000
    3     -5.79617    2.00000
    4     -5.34242    2.00000
    5     -5.33471    2.00000
    6     -5.27462    2.00000
    7     -5.25328    2.00000
    8     -4.83884    1.99999
    9     -4.82803    1.99999
   10     -4.81759    1.99999
   11     -4.81386    1.99999
   12     -4.77493    1.99999
   13     -4.74465    1.99999
   14     -4.68724    1.99999
   15     -4.32446    1.99985
   16     -4.30571    1.99983
   17     -4.27273    1.99978
   18     -4.24935    1.99975
   19     -4.23445    1.99972
   20     -4.22495    1.99970
   21     -4.16019    1.99954
   22     -4.11778    1.99939
   23     -3.73068    1.99195
   24     -3.66979    1.98795
   25     -3.65195    1.98644
   26     -3.63783    1.98511
   27     -3.43245    1.94269
   28     -3.26162    1.83126
   29     -3.25802    1.82752
   30     -3.25643    1.82583
   31     -3.24891    1.81769
   32     -3.17093    1.71134
   33     -3.16539    1.70210
   34     -3.14778    1.67109
   35     -3.13613    1.64919
   36     -2.85978    0.85379
   37     -2.74784    0.52199
   38     -2.67796    0.36287
   39     -2.67250    0.35217
   40     -2.65777    0.32459
   41     -2.65047    0.31156
   42     -2.48284    0.11384
   43     -2.47587    0.10896
   44     -2.35465    0.05007
   45     -2.33269    0.04340
   46     -2.22115    0.02087
   47     -2.08082    0.00824

Fermi level: -2.90396

Gap: 0.276 eV
Transition (v -> c):
  (s=0, k=0, n=35, [0.00, 0.00, 0.00]) -> (s=0, k=0, n=36, [0.00, 0.00, 0.00])
No difference between direct/indirect transitions

Forces in eV/Ang:
  0 Li   -0.00063    0.00218    0.09537
  1 Li    0.00162   -0.00444    0.10092
  2 Li    0.00133   -0.01059   -0.07658
  3 Li   -0.00908    0.02110   -0.08393
  4 Li   -0.01593   -0.00073    0.00841
  5 Li    0.00890    0.00279    0.01169
  6 Li    0.13637   -0.11372   -0.28122
  7 Li   -0.10677    0.09475   -0.07627
  8 Li   -0.00882   -0.00913    0.09768
  9 Li    0.00835   -0.00457    0.10179
 10 Li    0.00290    0.05934   -0.11879
 11 Li   -0.00159    0.01762   -0.02968
 12 Li   -0.00087   -0.00139   -0.00711
 13 Li   -0.00733   -0.00152   -0.03048
 14 Li    0.00682   -0.02697   -0.00947
 15 Li    0.01067    0.02196   -0.00024
 16 Li   -0.01457    0.00683    0.09680
 17 Li    0.00354    0.00909    0.10342
 18 Li    0.00032   -0.04508   -0.08569
 19 Li   -0.00971   -0.04200   -0.09471
 20 Li    0.00839    0.00161   -0.02519
 21 Li    0.00514    0.00039    0.00661
 22 Li   -0.01358   -0.01860   -0.00877
 23 Li   -0.01384   -0.00262   -0.03135
 24 Li    0.00207   -0.00035    0.08886
 25 Li    0.00557    0.00843    0.08363
 26 Li   -0.00604    0.00000   -0.06992
 27 Li    0.01206    0.01737   -0.07845
 28 Li   -0.00330    0.00187    0.03272
 29 Li    0.00055   -0.00522   -0.01143
 30 Li    0.02059    0.00118   -0.01791
 31 Li   -0.00320    0.04083    0.00251
 32 Li    0.01261   -0.00255    0.08732
 33 Li    0.01575    0.00483    0.06750
 34 Li    0.00184    0.00008   -0.06478
 35 Li    0.00258   -0.00005   -0.01012
 36 Li   -0.00764   -0.00227   -0.01270
 37 Li    0.00300    0.00234   -0.00254
 38 Li    0.00433    0.00378   -0.00099
 39 Li   -0.00023    0.00430    0.00296
 40 Li    0.02011    0.00284    0.08871
 41 Li    0.00813   -0.01331    0.07736
 42 Li    0.00191   -0.00002   -0.06451
 43 Li    0.01284   -0.01777   -0.07612
 44 Li   -0.00397   -0.00302   -0.00001
 45 Li    0.00243    0.00197   -0.01157
 46 Li    0.00239   -0.00597   -0.00463
 47 Li    0.02766   -0.03747   -0.02961
 48 Li   -0.00406   -0.00487    0.08876
 49 Li   -0.00520    0.00593    0.08476
 50 Li   -0.00242   -0.00811   -0.07539
 51 Li    0.00184    0.00182   -0.07085
 52 Li   -0.00057    0.00391   -0.01021
 53 Li    0.00790   -0.00415    0.02830
 54 Li   -0.02691   -0.03362   -0.00976
 55 Li   -0.01304    0.00130   -0.01204
 56 Li   -0.00475    0.01379    0.07245
 57 Li   -0.02215    0.00116    0.08217
 58 Li   -0.00397    0.00835   -0.06658
 59 Li   -0.00239   -0.00001   -0.06913
 60 Li    0.00156    0.00016   -0.00633
 61 Li    0.00017    0.00331    0.00051
 62 Li   -0.03540    0.03427   -0.03586
 63 Li   -0.00118    0.00587   -0.00459
 64 Li   -0.00720   -0.00876    0.06498
 65 Li   -0.01045   -0.00706    0.08305
 66 Li   -0.00060    0.00050   -0.03382
 67 Li   -0.00233   -0.00152   -0.06979
 68 Li   -0.00176   -0.00350   -0.00186
 69 Li    0.00399    0.00466   -0.01161
 70 Li   -0.00476   -0.00396   -0.00088
 71 Li   -0.00182   -0.00418   -0.00139
 72 Li    0.01250    0.03875    0.23848

System changes: positions 

Initializing position-dependent things.

Density initialized from wave functions
       .-----------------------------------.  
      /|                                   |  
     / |                                   |  
    /  |                                   |  
   /   |                                   |  
  /    |                                   |  
 *     |                                   |  
 |     |                                   |  
 |     |                                   |  
 |     |                                   |  
 |     |                                   |  
 |     |                                   |  
 |     |                                   |  
 |    Li          Li                       |  
 |     |   Li                 Li           |  
 |     |               Li          Li      |  
 |  LLiLi       Li          Li             |  
 |     | Li Li   Li  Li Li       Li Li   Li|  
 |Li   |  Li  Li          Li Li            |  
 |     Li          Li Li       Li Li       |  
 |    Li       Li Li       Li Li       Li  |  
 |     |Li Li       Li Li       Li Li      |  
 |  Li |     Li Li       Li Li             |  
 |     | Li Li       Li Li       Li Li     |  
 |Li Li|      Li Li       Li Li            |  
 |     Li Li       Li Li       Li Li       |  
 | Li  |       Li          Li              |  
 |     |Li          Li          Li         |  
 Li    |     Li          Li                |  
 |     |                                   |  
 |     |                                   |  
 |     |                                   |  
 |     |                                   |  
 |     |                                   |  
 |     .-----------------------------------.  
 |    /                                   /   
 |   /                                   /    
 |  /                                   /     
 | /                                   /      
 |/                                   /       
 *-----------------------------------*        

Atomic positions and initial magnetic moments

Positions:
   0 Li     0.000000    0.000000   10.000000    ( 0.0000,  0.0000,  0.0000)
   1 Li     2.467803    1.745000   10.000000    ( 0.0000,  0.0000,  0.0000)
   2 Li     2.467803    0.000000   12.467803    ( 0.0000,  0.0000,  0.0000)
   3 Li     0.000000    1.745000   12.467803    ( 0.0000,  0.0000,  0.0000)
   4 Li     0.005473   -0.028479   14.799794    ( 0.0000,  0.0000,  0.0000)
   5 Li     2.461753    1.806841   14.753264    ( 0.0000,  0.0000,  0.0000)
   6 Li     2.429474    0.044472   16.930562    ( 0.0000,  0.0000,  0.0000)
   7 Li     0.076440    1.652810   17.167603    ( 0.0000,  0.0000,  0.0000)
   8 Li     0.000000    3.490000   10.000000    ( 0.0000,  0.0000,  0.0000)
   9 Li     2.467803    5.235000   10.000000    ( 0.0000,  0.0000,  0.0000)
  10 Li     2.467803    3.490000   12.467803    ( 0.0000,  0.0000,  0.0000)
  11 Li     0.000000    5.235000   12.467803    ( 0.0000,  0.0000,  0.0000)
  12 Li    -0.012841    3.494837   14.864517    ( 0.0000,  0.0000,  0.0000)
  13 Li     2.474863    5.223524   14.944396    ( 0.0000,  0.0000,  0.0000)
  14 Li     2.428913    3.369359   17.351268    ( 0.0000,  0.0000,  0.0000)
  15 Li     0.036566    5.198157   17.296362    ( 0.0000,  0.0000,  0.0000)
  16 Li     0.000000    6.980000   10.000000    ( 0.0000,  0.0000,  0.0000)
  17 Li     2.467803    8.725000   10.000000    ( 0.0000,  0.0000,  0.0000)
  18 Li     2.467803    6.980000   12.467803    ( 0.0000,  0.0000,  0.0000)
  19 Li     0.000000    8.725000   12.467803    ( 0.0000,  0.0000,  0.0000)
  20 Li    -0.012748    7.004276   14.942433    ( 0.0000,  0.0000,  0.0000)
  21 Li     2.474200    8.674990   14.783631    ( 0.0000,  0.0000,  0.0000)
  22 Li     2.447961    7.055501   17.311122    ( 0.0000,  0.0000,  0.0000)
  23 Li     0.077369    8.854560   17.374383    ( 0.0000,  0.0000,  0.0000)
  24 Li     4.935605    0.000000   10.000000    ( 0.0000,  0.0000,  0.0000)
  25 Li     7.403408    1.745000   10.000000    ( 0.0000,  0.0000,  0.0000)
  26 Li     7.403408    0.000000   12.467803    ( 0.0000,  0.0000,  0.0000)
  27 Li     4.935605    1.745000   12.467803    ( 0.0000,  0.0000,  0.0000)
  28 Li     4.932266    0.000788   14.849487    ( 0.0000,  0.0000,  0.0000)
  29 Li     7.409385    1.743617   14.866713    ( 0.0000,  0.0000,  0.0000)
  30 Li     7.380154    0.000239   17.223162    ( 0.0000,  0.0000,  0.0000)
  31 Li     4.844813    1.653748   17.341838    ( 0.0000,  0.0000,  0.0000)
  32 Li     4.935605    3.490000   10.000000    ( 0.0000,  0.0000,  0.0000)
  33 Li     7.403408    5.235000   10.000000    ( 0.0000,  0.0000,  0.0000)
  34 Li     7.403408    3.490000   12.467803    ( 0.0000,  0.0000,  0.0000)
  35 Li     4.935605    5.235000   12.467803    ( 0.0000,  0.0000,  0.0000)
  36 Li     4.951957    3.465497   14.909791    ( 0.0000,  0.0000,  0.0000)
  37 Li     7.399640    5.235947   14.865399    ( 0.0000,  0.0000,  0.0000)
  38 Li     7.361737    3.467900   17.226796    ( 0.0000,  0.0000,  0.0000)
  39 Li     4.878460    5.224112   17.263805    ( 0.0000,  0.0000,  0.0000)
  40 Li     4.935605    6.980000   10.000000    ( 0.0000,  0.0000,  0.0000)
  41 Li     7.403408    8.725000   10.000000    ( 0.0000,  0.0000,  0.0000)
  42 Li     7.403408    6.980000   12.467803    ( 0.0000,  0.0000,  0.0000)
  43 Li     4.935605    8.725000   12.467803    ( 0.0000,  0.0000,  0.0000)
  44 Li     4.946775    7.003806   14.911719    ( 0.0000,  0.0000,  0.0000)
  45 Li     7.409404    8.725567   14.861075    ( 0.0000,  0.0000,  0.0000)
  46 Li     7.361718    7.001919   17.229680    ( 0.0000,  0.0000,  0.0000)
  47 Li     4.836657    8.827492   17.342603    ( 0.0000,  0.0000,  0.0000)
  48 Li     9.871211    0.000000   10.000000    ( 0.0000,  0.0000,  0.0000)
  49 Li    12.339013    1.745000   10.000000    ( 0.0000,  0.0000,  0.0000)
  50 Li    12.339013    0.000000   12.467803    ( 0.0000,  0.0000,  0.0000)
  51 Li     9.871211    1.745000   12.467803    ( 0.0000,  0.0000,  0.0000)
  52 Li     9.867215    0.000808   14.867999    ( 0.0000,  0.0000,  0.0000)
  53 Li    12.338845    1.743677   14.856879    ( 0.0000,  0.0000,  0.0000)
  54 Li    12.399219    0.045273   17.284981    ( 0.0000,  0.0000,  0.0000)
  55 Li     9.883434    1.745368   17.217686    ( 0.0000,  0.0000,  0.0000)
  56 Li     9.871211    3.490000   10.000000    ( 0.0000,  0.0000,  0.0000)
  57 Li    12.339013    5.235000   10.000000    ( 0.0000,  0.0000,  0.0000)
  58 Li    12.339013    3.490000   12.467803    ( 0.0000,  0.0000,  0.0000)
  59 Li     9.871211    5.235000   12.467803    ( 0.0000,  0.0000,  0.0000)
  60 Li     9.867257    3.491238   14.856995    ( 0.0000,  0.0000,  0.0000)
  61 Li    12.336277    5.223572   14.891615    ( 0.0000,  0.0000,  0.0000)
  62 Li    12.417759    3.422686   17.287944    ( 0.0000,  0.0000,  0.0000)
  63 Li     9.892286    5.224128   17.224389    ( 0.0000,  0.0000,  0.0000)
  64 Li     9.871211    6.980000   10.000000    ( 0.0000,  0.0000,  0.0000)
  65 Li    12.339013    8.725000   10.000000    ( 0.0000,  0.0000,  0.0000)
  66 Li    12.339013    6.980000   12.467803    ( 0.0000,  0.0000,  0.0000)
  67 Li     9.871211    8.725000   12.467803    ( 0.0000,  0.0000,  0.0000)
  68 Li     9.872443    6.978085   14.858841    ( 0.0000,  0.0000,  0.0000)
  69 Li    12.326321    8.738126   14.886898    ( 0.0000,  0.0000,  0.0000)
  70 Li    12.398813    7.002933   17.248141    ( 0.0000,  0.0000,  0.0000)
  71 Li     9.892010    8.735810   17.218878    ( 0.0000,  0.0000,  0.0000)
  72 Li     1.645785    0.582502   19.318025    ( 0.0000,  0.0000,  0.0000)

Unit cell:
           periodic     x           y           z      points  spacing
  1. axis:    yes   14.806816    0.000000    0.000000    76     0.1948
  2. axis:    yes    0.000000   10.470000    0.000000    52     0.2013
  3. axis:    no     0.000000    0.000000   27.403408   136     0.2015

  Lengths:  14.806816  10.470000  27.403408
  Angles:   90.000000  90.000000  90.000000

Effective grid spacing dv^(1/3) = 0.1992

     iter     time        total  log10-change:
                         energy   eigst   dens
iter:   1 05:09:42  -127.056878        c
iter:   2 05:09:53  -127.056947        c -3.37
iter:   3 05:10:04  -127.056928c       c -3.79
iter:   4 05:10:16  -127.056931c       c -3.97
iter:   5 05:10:28  -127.056910c       c -4.26c

Converged after 5 iterations.

Dipole moment: (-16.681585, -11.802830, 0.281937) |e|*Ang

Energy contributions relative to reference atoms: (reference = -14803.510878)

Kinetic:       +134.982435
Potential:     -115.965425
External:        +0.000000
XC:            -144.114461
Entropy (-ST):   -2.107911
Local:           -0.905504
SIC:             +0.000000
--------------------------
Free energy:   -128.110866
Extrapolated:  -127.056910

 Band  Eigenvalues  Occupancy
    0     -6.38085    2.00000
    1     -5.86818    2.00000
    2     -5.85505    2.00000
    3     -5.79582    2.00000
    4     -5.34214    2.00000
    5     -5.33444    2.00000
    6     -5.27422    2.00000
    7     -5.25296    2.00000
    8     -4.83850    2.00000
    9     -4.82774    1.99999
   10     -4.81735    1.99999
   11     -4.81360    1.99999
   12     -4.77449    1.99999
   13     -4.74432    1.99999
   14     -4.68694    1.99999
   15     -4.32410    1.99985
   16     -4.30544    1.99983
   17     -4.27233    1.99978
   18     -4.24895    1.99975
   19     -4.23411    1.99972
   20     -4.22467    1.99970
   21     -4.15989    1.99954
   22     -4.11744    1.99939
   23     -3.73029    1.99195
   24     -3.66940    1.98794
   25     -3.65168    1.98644
   26     -3.63741    1.98510
   27     -3.43214    1.94270
   28     -3.26133    1.83132
   29     -3.25776    1.82761
   30     -3.25612    1.82588
   31     -3.24866    1.81781
   32     -3.17059    1.71137
   33     -3.16492    1.70189
   34     -3.14740    1.67105
   35     -3.13582    1.64927
   36     -2.85943    0.85381
   37     -2.74734    0.52162
   38     -2.67759    0.36284
   39     -2.67208    0.35205
   40     -2.65745    0.32465
   41     -2.65024    0.31178
   42     -2.48244    0.11381
   43     -2.47550    0.10894
   44     -2.35450    0.05014
   45     -2.33244    0.04343
   46     -2.22067    0.02085
   47     -2.08057    0.00825

Fermi level: -2.90361

Gap: 0.276 eV
Transition (v -> c):
  (s=0, k=0, n=35, [0.00, 0.00, 0.00]) -> (s=0, k=0, n=36, [0.00, 0.00, 0.00])
No difference between direct/indirect transitions

Forces in eV/Ang:
  0 Li   -0.00064    0.00219    0.09498
  1 Li    0.00162   -0.00446    0.10052
  2 Li    0.00123   -0.01054   -0.07580
  3 Li   -0.00898    0.02107   -0.08353
  4 Li   -0.01616   -0.00093    0.00717
  5 Li    0.00888    0.00377    0.00977
  6 Li    0.13131   -0.11015   -0.26920
  7 Li   -0.10296    0.09175   -0.07296
  8 Li   -0.00888   -0.00910    0.09759
  9 Li    0.00837   -0.00453    0.10178
 10 Li    0.00285    0.05914   -0.11873
 11 Li   -0.00167    0.01756   -0.03017
 12 Li   -0.00096   -0.00091   -0.00750
 13 Li   -0.00734   -0.00166   -0.02981
 14 Li    0.00624   -0.02674   -0.00925
 15 Li    0.01063    0.02167   -0.00038
 16 Li   -0.01462    0.00678    0.09684
 17 Li    0.00357    0.00908    0.10319
 18 Li    0.00032   -0.04492   -0.08599
 19 Li   -0.00967   -0.04190   -0.09464
 20 Li    0.00840    0.00179   -0.02467
 21 Li    0.00515   -0.00116    0.00483
 22 Li   -0.01345   -0.01866   -0.00891
 23 Li   -0.01293   -0.00185   -0.03075
 24 Li    0.00211   -0.00033    0.08864
 25 Li    0.00564    0.00833    0.08385
 26 Li   -0.00577    0.00000   -0.07055
 27 Li    0.01214    0.01739   -0.07845
 28 Li   -0.00271    0.00187    0.03201
 29 Li    0.00048   -0.00500   -0.01094
 30 Li    0.02011    0.00115   -0.01794
 31 Li   -0.00281    0.04007    0.00260
 32 Li    0.01259   -0.00255    0.08738
 33 Li    0.01564    0.00479    0.06788
 34 Li    0.00192    0.00011   -0.06505
 35 Li    0.00280   -0.00003   -0.01063
 36 Li   -0.00763   -0.00240   -0.01223
 37 Li    0.00306    0.00225   -0.00240
 38 Li    0.00430    0.00380   -0.00115
 39 Li   -0.00028    0.00411    0.00285
 40 Li    0.02007    0.00282    0.08890
 41 Li    0.00817   -0.01318    0.07763
 42 Li    0.00200   -0.00006   -0.06479
 43 Li    0.01295   -0.01783   -0.07619
 44 Li   -0.00409   -0.00275    0.00028
 45 Li    0.00246    0.00183   -0.01109
 46 Li    0.00251   -0.00590   -0.00473
 47 Li    0.02813   -0.03732   -0.02944
 48 Li   -0.00410   -0.00480    0.08902
 49 Li   -0.00524    0.00590    0.08469
 50 Li   -0.00258   -0.00811   -0.07560
 51 Li    0.00170    0.00181   -0.07142
 52 Li   -0.00049    0.00377   -0.00967
 53 Li    0.00780   -0.00411    0.02824
 54 Li   -0.02714   -0.03325   -0.00977
 55 Li   -0.01273    0.00141   -0.01214
 56 Li   -0.00476    0.01362    0.07279
 57 Li   -0.02204    0.00116    0.08246
 58 Li   -0.00413    0.00841   -0.06675
 59 Li   -0.00245    0.00002   -0.06942
 60 Li    0.00149    0.00022   -0.00590
 61 Li    0.00021    0.00321    0.00067
 62 Li   -0.03564    0.03424   -0.03578
 63 Li   -0.00132    0.00582   -0.00471
 64 Li   -0.00715   -0.00866    0.06541
 65 Li   -0.01043   -0.00704    0.08314
 66 Li   -0.00078    0.00044   -0.03426
 67 Li   -0.00239   -0.00153   -0.07019
 68 Li   -0.00178   -0.00342   -0.00163
 69 Li    0.00399    0.00463   -0.01110
 70 Li   -0.00482   -0.00379   -0.00105
 71 Li   -0.00190   -0.00430   -0.00160
 72 Li    0.01298    0.03817    0.22707

System changes: positions 

Initializing position-dependent things.

Density initialized from wave functions
       .-----------------------------------.  
      /|                                   |  
     / |                                   |  
    /  |                                   |  
   /   |                                   |  
  /    |                                   |  
 *     |                                   |  
 |     |                                   |  
 |     |                                   |  
 |     |                                   |  
 |     |                                   |  
 |     |                                   |  
 |     |                                   |  
 |    Li          Li                       |  
 |     |   Li                 Li           |  
 |     |               Li          Li      |  
 |  LLiLi       Li          Li             |  
 |     | Li Li   Li  Li Li       Li Li   Li|  
 |Li   |  Li  Li          Li Li            |  
 |     Li          Li Li       Li Li       |  
 |    Li       Li Li       Li Li       Li  |  
 |     |Li Li       Li Li       Li Li      |  
 |  Li |     Li Li       Li Li             |  
 |     | Li Li       Li Li       Li Li     |  
 |Li Li|      Li Li       Li Li            |  
 |     Li Li       Li Li       Li Li       |  
 | Li  |       Li          Li              |  
 |     |Li          Li          Li         |  
 Li    |     Li          Li                |  
 |     |                                   |  
 |     |                                   |  
 |     |                                   |  
 |     |                                   |  
 |     |                                   |  
 |     .-----------------------------------.  
 |    /                                   /   
 |   /                                   /    
 |  /                                   /     
 | /                                   /      
 |/                                   /       
 *-----------------------------------*        

Atomic positions and initial magnetic moments

Positions:
   0 Li     0.000000    0.000000   10.000000    ( 0.0000,  0.0000,  0.0000)
   1 Li     2.467803    1.745000   10.000000    ( 0.0000,  0.0000,  0.0000)
   2 Li     2.467803    0.000000   12.467803    ( 0.0000,  0.0000,  0.0000)
   3 Li     0.000000    1.745000   12.467803    ( 0.0000,  0.0000,  0.0000)
   4 Li     0.005150   -0.028514   14.799923    ( 0.0000,  0.0000,  0.0000)
   5 Li     2.461927    1.806888   14.753505    ( 0.0000,  0.0000,  0.0000)
   6 Li     2.432128    0.042261   16.925206    ( 0.0000,  0.0000,  0.0000)
   7 Li     0.074318    1.654704   17.165966    ( 0.0000,  0.0000,  0.0000)
   8 Li     0.000000    3.490000   10.000000    ( 0.0000,  0.0000,  0.0000)
   9 Li     2.467803    5.235000   10.000000    ( 0.0000,  0.0000,  0.0000)
  10 Li     2.467803    3.490000   12.467803    ( 0.0000,  0.0000,  0.0000)
  11 Li     0.000000    5.235000   12.467803    ( 0.0000,  0.0000,  0.0000)
  12 Li    -0.012855    3.494840   14.864324    ( 0.0000,  0.0000,  0.0000)
  13 Li     2.474721    5.223485   14.943789    ( 0.0000,  0.0000,  0.0000)
  14 Li     2.429020    3.368816   17.351096    ( 0.0000,  0.0000,  0.0000)
  15 Li     0.036768    5.198570   17.296365    ( 0.0000,  0.0000,  0.0000)
  16 Li     0.000000    6.980000   10.000000    ( 0.0000,  0.0000,  0.0000)
  17 Li     2.467803    8.725000   10.000000    ( 0.0000,  0.0000,  0.0000)
  18 Li     2.467803    6.980000   12.467803    ( 0.0000,  0.0000,  0.0000)
  19 Li     0.000000    8.725000   12.467803    ( 0.0000,  0.0000,  0.0000)
  20 Li    -0.012576    7.004303   14.941938    ( 0.0000,  0.0000,  0.0000)
  21 Li     2.474307    8.675007   14.783791    ( 0.0000,  0.0000,  0.0000)
  22 Li     2.447679    7.055105   17.310935    ( 0.0000,  0.0000,  0.0000)
  23 Li     0.077078    8.854510   17.373747    ( 0.0000,  0.0000,  0.0000)
  24 Li     4.935605    0.000000   10.000000    ( 0.0000,  0.0000,  0.0000)
  25 Li     7.403408    1.745000   10.000000    ( 0.0000,  0.0000,  0.0000)
  26 Li     7.403408    0.000000   12.467803    ( 0.0000,  0.0000,  0.0000)
  27 Li     4.935605    1.745000   12.467803    ( 0.0000,  0.0000,  0.0000)
  28 Li     4.932210    0.000826   14.850139    ( 0.0000,  0.0000,  0.0000)
  29 Li     7.409394    1.743516   14.866490    ( 0.0000,  0.0000,  0.0000)
  30 Li     7.380569    0.000262   17.222799    ( 0.0000,  0.0000,  0.0000)
  31 Li     4.844770    1.654586   17.341854    ( 0.0000,  0.0000,  0.0000)
  32 Li     4.935605    3.490000   10.000000    ( 0.0000,  0.0000,  0.0000)
  33 Li     7.403408    5.235000   10.000000    ( 0.0000,  0.0000,  0.0000)
  34 Li     7.403408    3.490000   12.467803    ( 0.0000,  0.0000,  0.0000)
  35 Li     4.935605    5.235000   12.467803    ( 0.0000,  0.0000,  0.0000)
  36 Li     4.951802    3.465457   14.909527    ( 0.0000,  0.0000,  0.0000)
  37 Li     7.399702    5.235994   14.865346    ( 0.0000,  0.0000,  0.0000)
  38 Li     7.361837    3.467983   17.226771    ( 0.0000,  0.0000,  0.0000)
  39 Li     4.878452    5.224189   17.263853    ( 0.0000,  0.0000,  0.0000)
  40 Li     4.935605    6.980000   10.000000    ( 0.0000,  0.0000,  0.0000)
  41 Li     7.403408    8.725000   10.000000    ( 0.0000,  0.0000,  0.0000)
  42 Li     7.403408    6.980000   12.467803    ( 0.0000,  0.0000,  0.0000)
  43 Li     4.935605    8.725000   12.467803    ( 0.0000,  0.0000,  0.0000)
  44 Li     4.946688    7.003741   14.911708    ( 0.0000,  0.0000,  0.0000)
  45 Li     7.409451    8.725603   14.860846    ( 0.0000,  0.0000,  0.0000)
  46 Li     7.361780    7.001793   17.229583    ( 0.0000,  0.0000,  0.0000)
  47 Li     4.837228    8.826721   17.341976    ( 0.0000,  0.0000,  0.0000)
  48 Li     9.871211    0.000000   10.000000    ( 0.0000,  0.0000,  0.0000)
  49 Li    12.339013    1.745000   10.000000    ( 0.0000,  0.0000,  0.0000)
  50 Li    12.339013    0.000000   12.467803    ( 0.0000,  0.0000,  0.0000)
  51 Li     9.871211    1.745000   12.467803    ( 0.0000,  0.0000,  0.0000)
  52 Li     9.867203    0.000885   14.867798    ( 0.0000,  0.0000,  0.0000)
  53 Li    12.339007    1.743595   14.857441    ( 0.0000,  0.0000,  0.0000)
  54 Li    12.398694    0.044632   17.284821    ( 0.0000,  0.0000,  0.0000)
  55 Li     9.883184    1.745395   17.217447    ( 0.0000,  0.0000,  0.0000)
  56 Li     9.871211    3.490000   10.000000    ( 0.0000,  0.0000,  0.0000)
  57 Li    12.339013    5.235000   10.000000    ( 0.0000,  0.0000,  0.0000)
  58 Li    12.339013    3.490000   12.467803    ( 0.0000,  0.0000,  0.0000)
  59 Li     9.871211    5.235000   12.467803    ( 0.0000,  0.0000,  0.0000)
  60 Li     9.867285    3.491240   14.856875    ( 0.0000,  0.0000,  0.0000)
  61 Li    12.336275    5.223630   14.891640    ( 0.0000,  0.0000,  0.0000)
  62 Li    12.417057    3.423351   17.287261    ( 0.0000,  0.0000,  0.0000)
  63 Li     9.892274    5.224238   17.224298    ( 0.0000,  0.0000,  0.0000)
  64 Li     9.871211    6.980000   10.000000    ( 0.0000,  0.0000,  0.0000)
  65 Li    12.339013    8.725000   10.000000    ( 0.0000,  0.0000,  0.0000)
  66 Li    12.339013    6.980000   12.467803    ( 0.0000,  0.0000,  0.0000)
  67 Li     9.871211    8.725000   12.467803    ( 0.0000,  0.0000,  0.0000)
  68 Li     9.872409    6.978016   14.858809    ( 0.0000,  0.0000,  0.0000)
  69 Li    12.326398    8.738226   14.886685    ( 0.0000,  0.0000,  0.0000)
  70 Li    12.398715    7.002849   17.248131    ( 0.0000,  0.0000,  0.0000)
  71 Li     9.891986    8.735732   17.218852    ( 0.0000,  0.0000,  0.0000)
  72 Li     1.645524    0.583638   19.322674    ( 0.0000,  0.0000,  0.0000)

Unit cell:
           periodic     x           y           z      points  spacing
  1. axis:    yes   14.806816    0.000000    0.000000    76     0.1948
  2. axis:    yes    0.000000   10.470000    0.000000    52     0.2013
  3. axis:    no     0.000000    0.000000   27.403408   136     0.2015

  Lengths:  14.806816  10.470000  27.403408
  Angles:   90.000000  90.000000  90.000000

Effective grid spacing dv^(1/3) = 0.1992

     iter     time        total  log10-change:
                         energy   eigst   dens
iter:   1 05:16:44  -127.060372        c
iter:   2 05:16:55  -127.060518        c -3.36
iter:   3 05:17:07  -127.060661c       c -3.53
iter:   4 05:17:18  -127.060817c       c -3.86
iter:   5 05:17:31  -127.060746c       c -4.03c

Converged after 5 iterations.

Dipole moment: (-16.644922, -11.761697, 0.283850) |e|*Ang

Energy contributions relative to reference atoms: (reference = -14803.510878)

Kinetic:       +134.954457
Potential:     -115.947120
External:        +0.000000
XC:            -144.108196
Entropy (-ST):   -2.107991
Local:           -0.905891
SIC:             +0.000000
--------------------------
Free energy:   -128.114741
Extrapolated:  -127.060746

 Band  Eigenvalues  Occupancy
    0     -6.38019    2.00000
    1     -5.86753    2.00000
    2     -5.85440    2.00000
    3     -5.79511    2.00000
    4     -5.34146    2.00000
    5     -5.33381    2.00000
    6     -5.27347    2.00000
    7     -5.25234    2.00000
    8     -4.83777    2.00000
    9     -4.82709    1.99999
   10     -4.81671    1.99999
   11     -4.81298    1.99999
   12     -4.77362    1.99999
   13     -4.74366    1.99999
   14     -4.68628    1.99999
   15     -4.32336    1.99985
   16     -4.30479    1.99983
   17     -4.27155    1.99978
   18     -4.24819    1.99975
   19     -4.23346    1.99972
   20     -4.22412    1.99970
   21     -4.15925    1.99954
   22     -4.11667    1.99939
   23     -3.72944    1.99194
   24     -3.66865    1.98794
   25     -3.65112    1.98646
   26     -3.63650    1.98508
   27     -3.43149    1.94273
   28     -3.26061    1.83133
   29     -3.25709    1.82768
   30     -3.25541    1.82590
   31     -3.24807    1.81797
   32     -3.16989    1.71141
   33     -3.16397    1.70153
   34     -3.14657    1.67087
   35     -3.13512    1.64933
   36     -2.85877    0.85404
   37     -2.74636    0.52097
   38     -2.67686    0.36284
   39     -2.67128    0.35191
   40     -2.65683    0.32485
   41     -2.64979    0.31228
   42     -2.48158    0.11372
   43     -2.47471    0.10891
   44     -2.35411    0.05025
   45     -2.33184    0.04347
   46     -2.21969    0.02082
   47     -2.08004    0.00826

Fermi level: -2.90288

Gap: 0.276 eV
Transition (v -> c):
  (s=0, k=0, n=35, [0.00, 0.00, 0.00]) -> (s=0, k=0, n=36, [0.00, 0.00, 0.00])
No difference between direct/indirect transitions

Forces in eV/Ang:
  0 Li   -0.00059    0.00219    0.09508
  1 Li    0.00158   -0.00442    0.10063
  2 Li    0.00127   -0.01050   -0.07541
  3 Li   -0.00907    0.02101   -0.08360
  4 Li   -0.01571   -0.00084    0.00630
  5 Li    0.00826    0.00491    0.00760
  6 Li    0.12122   -0.10314   -0.24746
  7 Li   -0.09605    0.08628   -0.06844
  8 Li   -0.00876   -0.00913    0.09770
  9 Li    0.00829   -0.00455    0.10176
 10 Li    0.00284    0.05907   -0.11906
 11 Li   -0.00168    0.01757   -0.03044
 12 Li   -0.00097   -0.00003   -0.00809
 13 Li   -0.00719   -0.00194   -0.02903
 14 Li    0.00537   -0.02596   -0.00940
 15 Li    0.01022    0.02078   -0.00057
 16 Li   -0.01449    0.00680    0.09689
 17 Li    0.00352    0.00907    0.10332
 18 Li    0.00030   -0.04486   -0.08629
 19 Li   -0.00972   -0.04185   -0.09494
 20 Li    0.00820    0.00192   -0.02418
 21 Li    0.00494   -0.00374    0.00169
 22 Li   -0.01293   -0.01832   -0.00905
 23 Li   -0.01157   -0.00092   -0.03016
 24 Li    0.00201   -0.00033    0.08874
 25 Li    0.00553    0.00830    0.08388
 26 Li   -0.00583   -0.00001   -0.07057
 27 Li    0.01221    0.01718   -0.07843
 28 Li   -0.00161    0.00195    0.03011
 29 Li    0.00051   -0.00472   -0.01094
 30 Li    0.01939    0.00119   -0.01764
 31 Li   -0.00203    0.03882    0.00283
 32 Li    0.01243   -0.00257    0.08746
 33 Li    0.01559    0.00480    0.06792
 34 Li    0.00184    0.00013   -0.06488
 35 Li    0.00281    0.00002   -0.01062
 36 Li   -0.00742   -0.00222   -0.01183
 37 Li    0.00287    0.00214   -0.00257
 38 Li    0.00424    0.00390   -0.00128
 39 Li   -0.00041    0.00368    0.00275
 40 Li    0.01996    0.00284    0.08897
 41 Li    0.00811   -0.01317    0.07767
 42 Li    0.00194   -0.00008   -0.06467
 43 Li    0.01305   -0.01768   -0.07604
 44 Li   -0.00402   -0.00275   -0.00002
 45 Li    0.00251    0.00168   -0.01104
 46 Li    0.00275   -0.00593   -0.00479
 47 Li    0.02862   -0.03735   -0.02870
 48 Li   -0.00403   -0.00482    0.08903
 49 Li   -0.00509    0.00587    0.08476
 50 Li   -0.00259   -0.00791   -0.07556
 51 Li    0.00180    0.00184   -0.07130
 52 Li   -0.00052    0.00361   -0.00969
 53 Li    0.00747   -0.00411    0.02713
 54 Li   -0.02722   -0.03256   -0.00946
 55 Li   -0.01238    0.00147   -0.01195
 56 Li   -0.00475    0.01361    0.07288
 57 Li   -0.02197    0.00116    0.08253
 58 Li   -0.00416    0.00826   -0.06642
 59 Li   -0.00245    0.00004   -0.06931
 60 Li    0.00139    0.00026   -0.00593
 61 Li    0.00023    0.00337    0.00006
 62 Li   -0.03552    0.03431   -0.03506
 63 Li   -0.00167    0.00585   -0.00479
 64 Li   -0.00712   -0.00862    0.06547
 65 Li   -0.01029   -0.00701    0.08319
 66 Li   -0.00073    0.00041   -0.03417
 67 Li   -0.00231   -0.00158   -0.07006
 68 Li   -0.00163   -0.00329   -0.00178
 69 Li    0.00383    0.00431   -0.01093
 70 Li   -0.00467   -0.00350   -0.00112
 71 Li   -0.00217   -0.00448   -0.00170
 72 Li    0.01474    0.03665    0.20826

System changes: positions 

Initializing position-dependent things.

Density initialized from wave functions
       .-----------------------------------.  
      /|                                   |  
     / |                                   |  
    /  |                                   |  
   /   |                                   |  
  /    |                                   |  
 *     |                                   |  
 |     |                                   |  
 |     |                                   |  
 |     |                                   |  
 |     |                                   |  
 |     |                                   |  
 |     |                                   |  
 |    Li          Li                       |  
 |     |   Li                 Li           |  
 |     |               Li          Li      |  
 |  LLiLi       Li          Li             |  
 |     | Li Li   Li  Li Li       Li Li   Li|  
 |Li   |  Li  Li          Li Li            |  
 |     Li          Li Li       Li Li       |  
 |    Li       Li Li       Li Li       Li  |  
 |     |Li Li       Li Li       Li Li      |  
 |  Li |     Li Li       Li Li             |  
 |     | Li Li       Li Li       Li Li     |  
 |Li Li|      Li Li       Li Li            |  
 |     Li Li       Li Li       Li Li       |  
 | Li  |       Li          Li              |  
 |     |Li          Li          Li         |  
 Li    |     Li          Li                |  
 |     |                                   |  
 |     |                                   |  
 |     |                                   |  
 |     |                                   |  
 |     |                                   |  
 |     .-----------------------------------.  
 |    /                                   /   
 |   /                                   /    
 |  /                                   /     
 | /                                   /      
 |/                                   /       
 *-----------------------------------*        

Atomic positions and initial magnetic moments

Positions:
   0 Li     0.000000    0.000000   10.000000    ( 0.0000,  0.0000,  0.0000)
   1 Li     2.467803    1.745000   10.000000    ( 0.0000,  0.0000,  0.0000)
   2 Li     2.467803    0.000000   12.467803    ( 0.0000,  0.0000,  0.0000)
   3 Li     0.000000    1.745000   12.467803    ( 0.0000,  0.0000,  0.0000)
   4 Li     0.004666   -0.028565   14.800101    ( 0.0000,  0.0000,  0.0000)
   5 Li     2.462184    1.806980   14.753831    ( 0.0000,  0.0000,  0.0000)
   6 Li     2.435980    0.039031   16.917456    ( 0.0000,  0.0000,  0.0000)
   7 Li     0.071223    1.657478   17.163574    ( 0.0000,  0.0000,  0.0000)
   8 Li     0.000000    3.490000   10.000000    ( 0.0000,  0.0000,  0.0000)
   9 Li     2.467803    5.235000   10.000000    ( 0.0000,  0.0000,  0.0000)
  10 Li     2.467803    3.490000   12.467803    ( 0.0000,  0.0000,  0.0000)
  11 Li     0.000000    5.235000   12.467803    ( 0.0000,  0.0000,  0.0000)
  12 Li    -0.012878    3.494857   14.864026    ( 0.0000,  0.0000,  0.0000)
  13 Li     2.474507    5.223422   14.942888    ( 0.0000,  0.0000,  0.0000)
  14 Li     2.429168    3.368009   17.350834    ( 0.0000,  0.0000,  0.0000)
  15 Li     0.037068    5.199182   17.296367    ( 0.0000,  0.0000,  0.0000)
  16 Li     0.000000    6.980000   10.000000    ( 0.0000,  0.0000,  0.0000)
  17 Li     2.467803    8.725000   10.000000    ( 0.0000,  0.0000,  0.0000)
  18 Li     2.467803    6.980000   12.467803    ( 0.0000,  0.0000,  0.0000)
  19 Li     0.000000    8.725000   12.467803    ( 0.0000,  0.0000,  0.0000)
  20 Li    -0.012319    7.004347   14.941199    ( 0.0000,  0.0000,  0.0000)
  21 Li     2.474467    8.674992   14.783982    ( 0.0000,  0.0000,  0.0000)
  22 Li     2.447262    7.054511   17.310650    ( 0.0000,  0.0000,  0.0000)
  23 Li     0.076661    8.854451   17.372798    ( 0.0000,  0.0000,  0.0000)
  24 Li     4.935605    0.000000   10.000000    ( 0.0000,  0.0000,  0.0000)
  25 Li     7.403408    1.745000   10.000000    ( 0.0000,  0.0000,  0.0000)
  26 Li     7.403408    0.000000   12.467803    ( 0.0000,  0.0000,  0.0000)
  27 Li     4.935605    1.745000   12.467803    ( 0.0000,  0.0000,  0.0000)
  28 Li     4.932143    0.000884   14.851095    ( 0.0000,  0.0000,  0.0000)
  29 Li     7.409406    1.743367   14.866157    ( 0.0000,  0.0000,  0.0000)
  30 Li     7.381182    0.000298   17.222255    ( 0.0000,  0.0000,  0.0000)
  31 Li     4.844716    1.655831   17.341883    ( 0.0000,  0.0000,  0.0000)
  32 Li     4.935605    3.490000   10.000000    ( 0.0000,  0.0000,  0.0000)
  33 Li     7.403408    5.235000   10.000000    ( 0.0000,  0.0000,  0.0000)
  34 Li     7.403408    3.490000   12.467803    ( 0.0000,  0.0000,  0.0000)
  35 Li     4.935605    5.235000   12.467803    ( 0.0000,  0.0000,  0.0000)
  36 Li     4.951571    3.465398   14.909136    ( 0.0000,  0.0000,  0.0000)
  37 Li     7.399793    5.236062   14.865265    ( 0.0000,  0.0000,  0.0000)
  38 Li     7.361985    3.468109   17.226729    ( 0.0000,  0.0000,  0.0000)
  39 Li     4.878440    5.224300   17.263924    ( 0.0000,  0.0000,  0.0000)
  40 Li     4.935605    6.980000   10.000000    ( 0.0000,  0.0000,  0.0000)
  41 Li     7.403408    8.725000   10.000000    ( 0.0000,  0.0000,  0.0000)
  42 Li     7.403408    6.980000   12.467803    ( 0.0000,  0.0000,  0.0000)
  43 Li     4.935605    8.725000   12.467803    ( 0.0000,  0.0000,  0.0000)
  44 Li     4.946559    7.003645   14.911690    ( 0.0000,  0.0000,  0.0000)
  45 Li     7.409523    8.725656   14.860504    ( 0.0000,  0.0000,  0.0000)
  46 Li     7.361877    7.001604   17.229437    ( 0.0000,  0.0000,  0.0000)
  47 Li     4.838097    8.825560   17.341043    ( 0.0000,  0.0000,  0.0000)
  48 Li     9.871211    0.000000   10.000000    ( 0.0000,  0.0000,  0.0000)
  49 Li    12.339013    1.745000   10.000000    ( 0.0000,  0.0000,  0.0000)
  50 Li    12.339013    0.000000   12.467803    ( 0.0000,  0.0000,  0.0000)
  51 Li     9.871211    1.745000   12.467803    ( 0.0000,  0.0000,  0.0000)
  52 Li     9.867185    0.000999   14.867498    ( 0.0000,  0.0000,  0.0000)
  53 Li    12.339247    1.743471   14.858275    ( 0.0000,  0.0000,  0.0000)
  54 Li    12.397900    0.043675   17.284582    ( 0.0000,  0.0000,  0.0000)
  55 Li     9.882813    1.745438   17.217088    ( 0.0000,  0.0000,  0.0000)
  56 Li     9.871211    3.490000   10.000000    ( 0.0000,  0.0000,  0.0000)
  57 Li    12.339013    5.235000   10.000000    ( 0.0000,  0.0000,  0.0000)
  58 Li    12.339013    3.490000   12.467803    ( 0.0000,  0.0000,  0.0000)
  59 Li     9.871211    5.235000   12.467803    ( 0.0000,  0.0000,  0.0000)
  60 Li     9.867327    3.491245   14.856694    ( 0.0000,  0.0000,  0.0000)
  61 Li    12.336272    5.223720   14.891672    ( 0.0000,  0.0000,  0.0000)
  62 Li    12.415999    3.424355   17.286239    ( 0.0000,  0.0000,  0.0000)
  63 Li     9.892250    5.224405   17.224159    ( 0.0000,  0.0000,  0.0000)
  64 Li     9.871211    6.980000   10.000000    ( 0.0000,  0.0000,  0.0000)
  65 Li    12.339013    8.725000   10.000000    ( 0.0000,  0.0000,  0.0000)
  66 Li    12.339013    6.980000   12.467803    ( 0.0000,  0.0000,  0.0000)
  67 Li     9.871211    8.725000   12.467803    ( 0.0000,  0.0000,  0.0000)
  68 Li     9.872359    6.977915   14.858760    ( 0.0000,  0.0000,  0.0000)
  69 Li    12.326513    8.738372   14.886369    ( 0.0000,  0.0000,  0.0000)
  70 Li    12.398570    7.002727   17.248114    ( 0.0000,  0.0000,  0.0000)
  71 Li     9.891946    8.735611   17.218810    ( 0.0000,  0.0000,  0.0000)
  72 Li     1.645174    0.585314   19.329394    ( 0.0000,  0.0000,  0.0000)

Unit cell:
           periodic     x           y           z      points  spacing
  1. axis:    yes   14.806816    0.000000    0.000000    76     0.1948
  2. axis:    yes    0.000000   10.470000    0.000000    52     0.2013
  3. axis:    no     0.000000    0.000000   27.403408   136     0.2015

  Lengths:  14.806816  10.470000  27.403408
  Angles:   90.000000  90.000000  90.000000

Effective grid spacing dv^(1/3) = 0.1992

     iter     time        total  log10-change:
                         energy   eigst   dens
iter:   1 05:24:58  -127.065412        c
iter:   2 05:25:08  -127.065568        c -3.23
iter:   3 05:25:19  -127.065738c       c -3.38
iter:   4 05:25:30  -127.065945c       c -3.66
iter:   5 05:25:42  -127.065838c       c -3.84
iter:   6 05:25:53  -127.065834c       c -4.12c

Converged after 6 iterations.

Dipole moment: (-16.590640, -11.700860, 0.286811) |e|*Ang

Energy contributions relative to reference atoms: (reference = -14803.510878)

Kinetic:       +134.908218
Potential:     -115.915598
External:        +0.000000
XC:            -144.098568
Entropy (-ST):   -2.108032
Local:           -0.905870
SIC:             +0.000000
--------------------------
Free energy:   -128.119850
Extrapolated:  -127.065834

 Band  Eigenvalues  Occupancy
    0     -6.37934    2.00000
    1     -5.86669    2.00000
    2     -5.85356    2.00000
    3     -5.79414    2.00000
    4     -5.34057    2.00000
    5     -5.33300    2.00000
    6     -5.27244    2.00000
    7     -5.25151    2.00000
    8     -4.83680    2.00000
    9     -4.82624    1.99999
   10     -4.81588    1.99999
   11     -4.81218    1.99999
   12     -4.77240    1.99999
   13     -4.74277    1.99999
   14     -4.68536    1.99999
   15     -4.32238    1.99985
   16     -4.30395    1.99983
   17     -4.27047    1.99978
   18     -4.24715    1.99975
   19     -4.23258    1.99972
   20     -4.22337    1.99970
   21     -4.15838    1.99954
   22     -4.11560    1.99939
   23     -3.72825    1.99193
   24     -3.66764    1.98794
   25     -3.65037    1.98648
   26     -3.63525    1.98506
   27     -3.43060    1.94277
   28     -3.25968    1.83141
   29     -3.25624    1.82784
   30     -3.25450    1.82600
   31     -3.24731    1.81824
   32     -3.16891    1.71145
   33     -3.16265    1.70100
   34     -3.14543    1.67060
   35     -3.13415    1.64940
   36     -2.85785    0.85430
   37     -2.74499    0.52001
   38     -2.67586    0.36284
   39     -2.67016    0.35169
   40     -2.65599    0.32513
   41     -2.64920    0.31301
   42     -2.48040    0.11359
   43     -2.47361    0.10884
   44     -2.35364    0.05042
   45     -2.33103    0.04352
   46     -2.21832    0.02077
   47     -2.07928    0.00827

Fermi level: -2.90188

Gap: 0.276 eV
Transition (v -> c):
  (s=0, k=0, n=35, [0.00, 0.00, 0.00]) -> (s=0, k=0, n=36, [0.00, 0.00, 0.00])
No difference between direct/indirect transitions

Forces in eV/Ang:
  0 Li   -0.00055    0.00216    0.09500
  1 Li    0.00157   -0.00433    0.10055
  2 Li    0.00130   -0.01052   -0.07458
  3 Li   -0.00909    0.02099   -0.08350
  4 Li   -0.01512   -0.00087    0.00470
  5 Li    0.00742    0.00690    0.00393
  6 Li    0.10590   -0.09267   -0.21489
  7 Li   -0.08574    0.07827   -0.06161
  8 Li   -0.00861   -0.00911    0.09766
  9 Li    0.00822   -0.00456    0.10156
 10 Li    0.00279    0.05882   -0.11941
 11 Li   -0.00171    0.01754   -0.03084
 12 Li   -0.00096    0.00147   -0.00906
 13 Li   -0.00709   -0.00227   -0.02760
 14 Li    0.00413   -0.02447   -0.00982
 15 Li    0.00955    0.01956   -0.00115
 16 Li   -0.01435    0.00679    0.09682
 17 Li    0.00349    0.00901    0.10333
 18 Li    0.00027   -0.04464   -0.08665
 19 Li   -0.00968   -0.04175   -0.09523
 20 Li    0.00800    0.00201   -0.02329
 21 Li    0.00465   -0.00792   -0.00337
 22 Li   -0.01211   -0.01795   -0.00962
 23 Li   -0.00965    0.00009   -0.02942
 24 Li    0.00195   -0.00032    0.08867
 25 Li    0.00543    0.00819    0.08381
 26 Li   -0.00593   -0.00001   -0.07077
 27 Li    0.01226    0.01688   -0.07834
 28 Li    0.00008    0.00196    0.02729
 29 Li    0.00043   -0.00426   -0.01075
 30 Li    0.01827    0.00119   -0.01713
 31 Li   -0.00059    0.03702    0.00295
 32 Li    0.01222   -0.00260    0.08741
 33 Li    0.01545    0.00478    0.06802
 34 Li    0.00172    0.00018   -0.06487
 35 Li    0.00282    0.00012   -0.01073
 36 Li   -0.00712   -0.00193   -0.01114
 37 Li    0.00255    0.00195   -0.00253
 38 Li    0.00423    0.00412   -0.00148
 39 Li   -0.00056    0.00314    0.00253
 40 Li    0.01977    0.00285    0.08899
 41 Li    0.00803   -0.01305    0.07765
 42 Li    0.00183   -0.00013   -0.06476
 43 Li    0.01309   -0.01750   -0.07573
 44 Li   -0.00401   -0.00274   -0.00035
 45 Li    0.00243    0.00144   -0.01069
 46 Li    0.00314   -0.00599   -0.00488
 47 Li    0.02954   -0.03759   -0.02775
 48 Li   -0.00399   -0.00481    0.08893
 49 Li   -0.00498    0.00579    0.08465
 50 Li   -0.00259   -0.00762   -0.07545
 51 Li    0.00190    0.00188   -0.07138
 52 Li   -0.00044    0.00334   -0.00947
 53 Li    0.00692   -0.00400    0.02551
 54 Li   -0.02748   -0.03155   -0.00902
 55 Li   -0.01184    0.00165   -0.01162
 56 Li   -0.00472    0.01351    0.07299
 57 Li   -0.02180    0.00118    0.08260
 58 Li   -0.00413    0.00810   -0.06599
 59 Li   -0.00245    0.00008   -0.06941
 60 Li    0.00136    0.00035   -0.00564
 61 Li    0.00036    0.00360   -0.00059
 62 Li   -0.03554    0.03457   -0.03396
 63 Li   -0.00212    0.00588   -0.00485
 64 Li   -0.00706   -0.00853    0.06558
 65 Li   -0.01014   -0.00694    0.08312
 66 Li   -0.00062    0.00032   -0.03420
 67 Li   -0.00225   -0.00165   -0.07012
 68 Li   -0.00138   -0.00309   -0.00170
 69 Li    0.00361    0.00377   -0.01056
 70 Li   -0.00455   -0.00318   -0.00128
 71 Li   -0.00257   -0.00484   -0.00184
 72 Li    0.01736    0.03434    0.18068

System changes: positions 

Initializing position-dependent things.

Density initialized from wave functions
       .-----------------------------------.  
      /|                                   |  
     / |                                   |  
    /  |                                   |  
   /   |                                   |  
  /    |                                   |  
 *     |                                   |  
 |     |                                   |  
 |     |                                   |  
 |     |                                   |  
 |     |                                   |  
 |     |                                   |  
 |     |                                   |  
 |    Li          Li                       |  
 |     |   Li                 Li           |  
 |     |               Li          Li      |  
 |  LLiLi       Li          Li             |  
 |     | Li Li   Li  Li Li       Li Li   Li|  
 |Li   |  Li  Li          Li Li            |  
 |     Li          Li Li       Li Li       |  
 |    Li       Li Li       Li Li       Li  |  
 |     |Li Li       Li Li       Li Li      |  
 |  Li |     Li Li       Li Li             |  
 |     | Li Li       Li Li       Li Li     |  
 |Li Li|      Li Li       Li Li            |  
 |     Li Li       Li Li       Li Li       |  
 | Li  |       Li          Li              |  
 |     |Li          Li          Li         |  
 Li    |     Li          Li                |  
 |     |                                   |  
 |     |                                   |  
 |     |                                   |  
 |     |                                   |  
 |     |                                   |  
 |     .-----------------------------------.  
 |    /                                   /   
 |   /                                   /    
 |  /                                   /     
 | /                                   /      
 |/                                   /       
 *-----------------------------------*        

Atomic positions and initial magnetic moments

Positions:
   0 Li     0.000000    0.000000   10.000000    ( 0.0000,  0.0000,  0.0000)
   1 Li     2.467803    1.745000   10.000000    ( 0.0000,  0.0000,  0.0000)
   2 Li     2.467803    0.000000   12.467803    ( 0.0000,  0.0000,  0.0000)
   3 Li     0.000000    1.745000   12.467803    ( 0.0000,  0.0000,  0.0000)
   4 Li     0.004025   -0.028635   14.800310    ( 0.0000,  0.0000,  0.0000)
   5 Li     2.462514    1.807144   14.754194    ( 0.0000,  0.0000,  0.0000)
   6 Li     2.440873    0.034881   16.907651    ( 0.0000,  0.0000,  0.0000)
   7 Li     0.067257    1.661055   17.160495    ( 0.0000,  0.0000,  0.0000)
   8 Li     0.000000    3.490000   10.000000    ( 0.0000,  0.0000,  0.0000)
   9 Li     2.467803    5.235000   10.000000    ( 0.0000,  0.0000,  0.0000)
  10 Li     2.467803    3.490000   12.467803    ( 0.0000,  0.0000,  0.0000)
  11 Li     0.000000    5.235000   12.467803    ( 0.0000,  0.0000,  0.0000)
  12 Li    -0.012909    3.494907   14.863608    ( 0.0000,  0.0000,  0.0000)
  13 Li     2.474221    5.223330   14.941701    ( 0.0000,  0.0000,  0.0000)
  14 Li     2.429344    3.366948   17.350474    ( 0.0000,  0.0000,  0.0000)
  15 Li     0.037461    5.199986   17.296358    ( 0.0000,  0.0000,  0.0000)
  16 Li     0.000000    6.980000   10.000000    ( 0.0000,  0.0000,  0.0000)
  17 Li     2.467803    8.725000   10.000000    ( 0.0000,  0.0000,  0.0000)
  18 Li     2.467803    6.980000   12.467803    ( 0.0000,  0.0000,  0.0000)
  19 Li     0.000000    8.725000   12.467803    ( 0.0000,  0.0000,  0.0000)
  20 Li    -0.011976    7.004409   14.940219    ( 0.0000,  0.0000,  0.0000)
  21 Li     2.474677    8.674887   14.784136    ( 0.0000,  0.0000,  0.0000)
  22 Li     2.446715    7.053720   17.310257    ( 0.0000,  0.0000,  0.0000)
  23 Li     0.076140    8.854397   17.371536    ( 0.0000,  0.0000,  0.0000)
  24 Li     4.935605    0.000000   10.000000    ( 0.0000,  0.0000,  0.0000)
  25 Li     7.403408    1.745000   10.000000    ( 0.0000,  0.0000,  0.0000)
  26 Li     7.403408    0.000000   12.467803    ( 0.0000,  0.0000,  0.0000)
  27 Li     4.935605    1.745000   12.467803    ( 0.0000,  0.0000,  0.0000)
  28 Li     4.932085    0.000963   14.852328    ( 0.0000,  0.0000,  0.0000)
  29 Li     7.409423    1.743176   14.865712    ( 0.0000,  0.0000,  0.0000)
  30 Li     7.381987    0.000346   17.221532    ( 0.0000,  0.0000,  0.0000)
  31 Li     4.844670    1.657470   17.341927    ( 0.0000,  0.0000,  0.0000)
  32 Li     4.935605    3.490000   10.000000    ( 0.0000,  0.0000,  0.0000)
  33 Li     7.403408    5.235000   10.000000    ( 0.0000,  0.0000,  0.0000)
  34 Li     7.403408    3.490000   12.467803    ( 0.0000,  0.0000,  0.0000)
  35 Li     4.935605    5.235000   12.467803    ( 0.0000,  0.0000,  0.0000)
  36 Li     4.951266    3.465323   14.908624    ( 0.0000,  0.0000,  0.0000)
  37 Li     7.399910    5.236150   14.865155    ( 0.0000,  0.0000,  0.0000)
  38 Li     7.362184    3.468282   17.226669    ( 0.0000,  0.0000,  0.0000)
  39 Li     4.878420    5.224438   17.264017    ( 0.0000,  0.0000,  0.0000)
  40 Li     4.935605    6.980000   10.000000    ( 0.0000,  0.0000,  0.0000)
  41 Li     7.403408    8.725000   10.000000    ( 0.0000,  0.0000,  0.0000)
  42 Li     7.403408    6.980000   12.467803    ( 0.0000,  0.0000,  0.0000)
  43 Li     4.935605    8.725000   12.467803    ( 0.0000,  0.0000,  0.0000)
  44 Li     4.946385    7.003517   14.911660    ( 0.0000,  0.0000,  0.0000)
  45 Li     7.409620    8.725723   14.860049    ( 0.0000,  0.0000,  0.0000)
  46 Li     7.362015    7.001348   17.229237    ( 0.0000,  0.0000,  0.0000)
  47 Li     4.839288    8.823991   17.339805    ( 0.0000,  0.0000,  0.0000)
  48 Li     9.871211    0.000000   10.000000    ( 0.0000,  0.0000,  0.0000)
  49 Li    12.339013    1.745000   10.000000    ( 0.0000,  0.0000,  0.0000)
  50 Li    12.339013    0.000000   12.467803    ( 0.0000,  0.0000,  0.0000)
  51 Li     9.871211    1.745000   12.467803    ( 0.0000,  0.0000,  0.0000)
  52 Li     9.867161    0.001147   14.867099    ( 0.0000,  0.0000,  0.0000)
  53 Li    12.339560    1.743306   14.859370    ( 0.0000,  0.0000,  0.0000)
  54 Li    12.396822    0.042401   17.284267    ( 0.0000,  0.0000,  0.0000)
  55 Li     9.882322    1.745498   17.216610    ( 0.0000,  0.0000,  0.0000)
  56 Li     9.871211    3.490000   10.000000    ( 0.0000,  0.0000,  0.0000)
  57 Li    12.339013    5.235000   10.000000    ( 0.0000,  0.0000,  0.0000)
  58 Li    12.339013    3.490000   12.467803    ( 0.0000,  0.0000,  0.0000)
  59 Li     9.871211    5.235000   12.467803    ( 0.0000,  0.0000,  0.0000)
  60 Li     9.867381    3.491253   14.856456    ( 0.0000,  0.0000,  0.0000)
  61 Li    12.336272    5.223845   14.891700    ( 0.0000,  0.0000,  0.0000)
  62 Li    12.414571    3.425716   17.284878    ( 0.0000,  0.0000,  0.0000)
  63 Li     9.892208    5.224630   17.223970    ( 0.0000,  0.0000,  0.0000)
  64 Li     9.871211    6.980000   10.000000    ( 0.0000,  0.0000,  0.0000)
  65 Li    12.339013    8.725000   10.000000    ( 0.0000,  0.0000,  0.0000)
  66 Li    12.339013    6.980000   12.467803    ( 0.0000,  0.0000,  0.0000)
  67 Li     9.871211    8.725000   12.467803    ( 0.0000,  0.0000,  0.0000)
  68 Li     9.872296    6.977782   14.858693    ( 0.0000,  0.0000,  0.0000)
  69 Li    12.326664    8.738559   14.885950    ( 0.0000,  0.0000,  0.0000)
  70 Li    12.398377    7.002570   17.248087    ( 0.0000,  0.0000,  0.0000)
  71 Li     9.891882    8.735440   17.218750    ( 0.0000,  0.0000,  0.0000)
  72 Li     1.644792    0.587500   19.337896    ( 0.0000,  0.0000,  0.0000)

Unit cell:
           periodic     x           y           z      points  spacing
  1. axis:    yes   14.806816    0.000000    0.000000    76     0.1948
  2. axis:    yes    0.000000   10.470000    0.000000    52     0.2013
  3. axis:    no     0.000000    0.000000   27.403408   136     0.2015

  Lengths:  14.806816  10.470000  27.403408
  Angles:   90.000000  90.000000  90.000000

Effective grid spacing dv^(1/3) = 0.1992

     iter     time        total  log10-change:
                         energy   eigst   dens
iter:   1 05:33:22  -127.070806        c
iter:   2 05:33:33  -127.071049        c -3.12
iter:   3 05:33:45  -127.071294c       c -3.28
iter:   4 05:33:55  -127.071597c       c -3.56
iter:   5 05:34:06  -127.071495c       c -3.72
iter:   6 05:34:16  -127.071437c       c -4.00c

Converged after 6 iterations.

Dipole moment: (-16.520902, -11.621762, 0.290497) |e|*Ang

Energy contributions relative to reference atoms: (reference = -14803.510878)

Kinetic:       +134.856384
Potential:     -115.880144
External:        +0.000000
XC:            -144.087566
Entropy (-ST):   -2.108120
Local:           -0.906052
SIC:             +0.000000
--------------------------
Free energy:   -128.125497
Extrapolated:  -127.071437

 Band  Eigenvalues  Occupancy
    0     -6.37815    2.00000
    1     -5.86551    2.00000
    2     -5.85239    2.00000
    3     -5.79284    2.00000
    4     -5.33935    2.00000
    5     -5.33186    2.00000
    6     -5.27102    2.00000
    7     -5.25035    2.00000
    8     -4.83546    2.00000
    9     -4.82506    1.99999
   10     -4.81472    1.99999
   11     -4.81106    1.99999
   12     -4.77080    1.99999
   13     -4.74155    1.99999
   14     -4.68413    1.99999
   15     -4.32103    1.99985
   16     -4.30278    1.99983
   17     -4.26900    1.99978
   18     -4.24575    1.99975
   19     -4.23136    1.99972
   20     -4.22234    1.99970
   21     -4.15719    1.99954
   22     -4.11418    1.99939
   23     -3.72669    1.99192
   24     -3.66626    1.98794
   25     -3.64933    1.98651
   26     -3.63361    1.98503
   27     -3.42939    1.94283
   28     -3.25840    1.83148
   29     -3.25506    1.82801
   30     -3.25324    1.82609
   31     -3.24625    1.81855
   32     -3.16759    1.71150
   33     -3.16091    1.70034
   34     -3.14390    1.67028
   35     -3.13286    1.64950
   36     -2.85659    0.85459
   37     -2.74319    0.51886
   38     -2.67449    0.36280
   39     -2.66866    0.35140
   40     -2.65483    0.32549
   41     -2.64837    0.31392
   42     -2.47883    0.11344
   43     -2.47217    0.10878
   44     -2.35296    0.05064
   45     -2.32996    0.04360
   46     -2.21657    0.02071
   47     -2.07828    0.00829

Fermi level: -2.90053

Gap: 0.276 eV
Transition (v -> c):
  (s=0, k=0, n=35, [0.00, 0.00, 0.00]) -> (s=0, k=0, n=36, [0.00, 0.00, 0.00])
No difference between direct/indirect transitions

Forces in eV/Ang:
  0 Li   -0.00056    0.00217    0.09501
  1 Li    0.00155   -0.00427    0.10056
  2 Li    0.00134   -0.01046   -0.07354
  3 Li   -0.00919    0.02091   -0.08342
  4 Li   -0.01425   -0.00081    0.00286
  5 Li    0.00635    0.00906   -0.00028
  6 Li    0.08770   -0.07976   -0.17596
  7 Li   -0.07346    0.06849   -0.05325
  8 Li   -0.00852   -0.00914    0.09773
  9 Li    0.00815   -0.00458    0.10145
 10 Li    0.00276    0.05854   -0.11992
 11 Li   -0.00178    0.01751   -0.03142
 12 Li   -0.00100    0.00318   -0.01015
 13 Li   -0.00687   -0.00275   -0.02585
 14 Li    0.00257   -0.02274   -0.01026
 15 Li    0.00871    0.01785   -0.00173
 16 Li   -0.01425    0.00680    0.09684
 17 Li    0.00347    0.00899    0.10341
 18 Li    0.00025   -0.04447   -0.08724
 19 Li   -0.00974   -0.04157   -0.09564
 20 Li    0.00766    0.00222   -0.02216
 21 Li    0.00429   -0.01280   -0.00931
 22 Li   -0.01102   -0.01727   -0.01023
 23 Li   -0.00730    0.00147   -0.02847
 24 Li    0.00194   -0.00030    0.08870
 25 Li    0.00536    0.00808    0.08386
 26 Li   -0.00590   -0.00001   -0.07107
 27 Li    0.01242    0.01653   -0.07825
 28 Li    0.00204    0.00204    0.02381
 29 Li    0.00041   -0.00366   -0.01054
 30 Li    0.01680    0.00124   -0.01658
 31 Li    0.00099    0.03455    0.00307
 32 Li    0.01207   -0.00266    0.08748
 33 Li    0.01537    0.00476    0.06817
 34 Li    0.00166    0.00020   -0.06482
 35 Li    0.00293    0.00020   -0.01089
 36 Li   -0.00669   -0.00165   -0.01025
 37 Li    0.00219    0.00170   -0.00265
 38 Li    0.00414    0.00429   -0.00181
 39 Li   -0.00079    0.00236    0.00228
 40 Li    0.01967    0.00288    0.08909
 41 Li    0.00801   -0.01292    0.07773
 42 Li    0.00181   -0.00018   -0.06482
 43 Li    0.01329   -0.01725   -0.07539
 44 Li   -0.00392   -0.00268   -0.00077
 45 Li    0.00243    0.00112   -0.01033
 46 Li    0.00360   -0.00603   -0.00505
 47 Li    0.03043   -0.03758   -0.02658
 48 Li   -0.00395   -0.00480    0.08895
 49 Li   -0.00489    0.00570    0.08465
 50 Li   -0.00268   -0.00726   -0.07538
 51 Li    0.00196    0.00191   -0.07149
 52 Li   -0.00038    0.00299   -0.00924
 53 Li    0.00626   -0.00392    0.02348
 54 Li   -0.02758   -0.03012   -0.00852
 55 Li   -0.01110    0.00180   -0.01133
 56 Li   -0.00473    0.01339    0.07319
 57 Li   -0.02173    0.00118    0.08274
 58 Li   -0.00423    0.00785   -0.06548
 59 Li   -0.00251    0.00012   -0.06948
 60 Li    0.00126    0.00042   -0.00544
 61 Li    0.00045    0.00386   -0.00150
 62 Li   -0.03532    0.03464   -0.03261
 63 Li   -0.00274    0.00590   -0.00501
 64 Li   -0.00702   -0.00841    0.06575
 65 Li   -0.01004   -0.00685    0.08315
 66 Li   -0.00061    0.00025   -0.03426
 67 Li   -0.00220   -0.00171   -0.07017
 68 Li   -0.00109   -0.00280   -0.00180
 69 Li    0.00330    0.00316   -0.01009
 70 Li   -0.00433   -0.00266   -0.00151
 71 Li   -0.00305   -0.00519   -0.00213
 72 Li    0.02025    0.03175    0.14748

System changes: positions 

Initializing position-dependent things.

Density initialized from wave functions
       .-----------------------------------.  
      /|                                   |  
     / |                                   |  
    /  |                                   |  
   /   |                                   |  
  /    |                                   |  
 *     |                                   |  
 |     |                                   |  
 |     |                                   |  
 |     |                                   |  
 |     |                                   |  
 |     |                                   |  
 |     |                                   |  
 |    Li          Li                       |  
 |     |   Li                 Li           |  
 |     |               Li          Li      |  
 |  LLiLi       Li          Li             |  
 |     | Li Li   Li  Li Li       Li Li   Li|  
 |Li   |  Li  Li          Li Li            |  
 |     Li          Li Li       Li Li       |  
 |    Li       Li Li       Li Li       Li  |  
 |     |Li Li       Li Li       Li Li      |  
 |  Li |     Li Li       Li Li             |  
 |     | Li Li       Li Li       Li Li     |  
 |Li Li|      Li Li       Li Li            |  
 |     Li Li       Li Li       Li Li       |  
 | Li  |       Li          Li              |  
 |     |Li          Li          Li         |  
 Li    |     Li          Li                |  
 |     |                                   |  
 |     |                                   |  
 |     |                                   |  
 |     |                                   |  
 |     |                                   |  
 |     .-----------------------------------.  
 |    /                                   /   
 |   /                                   /    
 |  /                                   /     
 | /                                   /      
 |/                                   /       
 *-----------------------------------*        

Atomic positions and initial magnetic moments

Positions:
   0 Li     0.000000    0.000000   10.000000    ( 0.0000,  0.0000,  0.0000)
   1 Li     2.467803    1.745000   10.000000    ( 0.0000,  0.0000,  0.0000)
   2 Li     2.467803    0.000000   12.467803    ( 0.0000,  0.0000,  0.0000)
   3 Li     0.000000    1.745000   12.467803    ( 0.0000,  0.0000,  0.0000)
   4 Li     0.003228   -0.028720   14.800526    ( 0.0000,  0.0000,  0.0000)
   5 Li     2.462907    1.807420   14.754532    ( 0.0000,  0.0000,  0.0000)
   6 Li     2.446610    0.029937   16.896216    ( 0.0000,  0.0000,  0.0000)
   7 Li     0.062541    1.665345   17.156812    ( 0.0000,  0.0000,  0.0000)
   8 Li     0.000000    3.490000   10.000000    ( 0.0000,  0.0000,  0.0000)
   9 Li     2.467803    5.235000   10.000000    ( 0.0000,  0.0000,  0.0000)
  10 Li     2.467803    3.490000   12.467803    ( 0.0000,  0.0000,  0.0000)
  11 Li     0.000000    5.235000   12.467803    ( 0.0000,  0.0000,  0.0000)
  12 Li    -0.012950    3.495016   14.863050    ( 0.0000,  0.0000,  0.0000)
  13 Li     2.473861    5.223201   14.940233    ( 0.0000,  0.0000,  0.0000)
  14 Li     2.429528    3.365641   17.350000    ( 0.0000,  0.0000,  0.0000)
  15 Li     0.037941    5.200969   17.296329    ( 0.0000,  0.0000,  0.0000)
  16 Li     0.000000    6.980000   10.000000    ( 0.0000,  0.0000,  0.0000)
  17 Li     2.467803    8.725000   10.000000    ( 0.0000,  0.0000,  0.0000)
  18 Li     2.467803    6.980000   12.467803    ( 0.0000,  0.0000,  0.0000)
  19 Li     0.000000    8.725000   12.467803    ( 0.0000,  0.0000,  0.0000)
  20 Li    -0.011548    7.004495   14.938999    ( 0.0000,  0.0000,  0.0000)
  21 Li     2.474934    8.674612   14.784160    ( 0.0000,  0.0000,  0.0000)
  22 Li     2.446047    7.052728   17.309741    ( 0.0000,  0.0000,  0.0000)
  23 Li     0.075546    8.854369   17.369956    ( 0.0000,  0.0000,  0.0000)
  24 Li     4.935605    0.000000   10.000000    ( 0.0000,  0.0000,  0.0000)
  25 Li     7.403408    1.745000   10.000000    ( 0.0000,  0.0000,  0.0000)
  26 Li     7.403408    0.000000   12.467803    ( 0.0000,  0.0000,  0.0000)
  27 Li     4.935605    1.745000   12.467803    ( 0.0000,  0.0000,  0.0000)
  28 Li     4.932067    0.001066   14.853806    ( 0.0000,  0.0000,  0.0000)
  29 Li     7.409442    1.742949   14.865150    ( 0.0000,  0.0000,  0.0000)
  30 Li     7.382973    0.000409   17.220624    ( 0.0000,  0.0000,  0.0000)
  31 Li     4.844655    1.659494   17.341994    ( 0.0000,  0.0000,  0.0000)
  32 Li     4.935605    3.490000   10.000000    ( 0.0000,  0.0000,  0.0000)
  33 Li     7.403408    5.235000   10.000000    ( 0.0000,  0.0000,  0.0000)
  34 Li     7.403408    3.490000   12.467803    ( 0.0000,  0.0000,  0.0000)
  35 Li     4.935605    5.235000   12.467803    ( 0.0000,  0.0000,  0.0000)
  36 Li     4.950887    3.465233   14.907996    ( 0.0000,  0.0000,  0.0000)
  37 Li     7.400051    5.236256   14.865014    ( 0.0000,  0.0000,  0.0000)
  38 Li     7.362434    3.468508   17.226585    ( 0.0000,  0.0000,  0.0000)
  39 Li     4.878390    5.224594   17.264129    ( 0.0000,  0.0000,  0.0000)
  40 Li     4.935605    6.980000   10.000000    ( 0.0000,  0.0000,  0.0000)
  41 Li     7.403408    8.725000   10.000000    ( 0.0000,  0.0000,  0.0000)
  42 Li     7.403408    6.980000   12.467803    ( 0.0000,  0.0000,  0.0000)
  43 Li     4.935605    8.725000   12.467803    ( 0.0000,  0.0000,  0.0000)
  44 Li     4.946166    7.003356   14.911614    ( 0.0000,  0.0000,  0.0000)
  45 Li     7.409743    8.725799   14.859480    ( 0.0000,  0.0000,  0.0000)
  46 Li     7.362201    7.001021   17.228978    ( 0.0000,  0.0000,  0.0000)
  47 Li     4.840835    8.821988   17.338262    ( 0.0000,  0.0000,  0.0000)
  48 Li     9.871211    0.000000   10.000000    ( 0.0000,  0.0000,  0.0000)
  49 Li    12.339013    1.745000   10.000000    ( 0.0000,  0.0000,  0.0000)
  50 Li    12.339013    0.000000   12.467803    ( 0.0000,  0.0000,  0.0000)
  51 Li     9.871211    1.745000   12.467803    ( 0.0000,  0.0000,  0.0000)
  52 Li     9.867133    0.001327   14.866596    ( 0.0000,  0.0000,  0.0000)
  53 Li    12.339941    1.743098   14.860714    ( 0.0000,  0.0000,  0.0000)
  54 Li    12.395440    0.040808   17.283873    ( 0.0000,  0.0000,  0.0000)
  55 Li     9.881714    1.745580   17.216006    ( 0.0000,  0.0000,  0.0000)
  56 Li     9.871211    3.490000   10.000000    ( 0.0000,  0.0000,  0.0000)
  57 Li    12.339013    5.235000   10.000000    ( 0.0000,  0.0000,  0.0000)
  58 Li    12.339013    3.490000   12.467803    ( 0.0000,  0.0000,  0.0000)
  59 Li     9.871211    5.235000   12.467803    ( 0.0000,  0.0000,  0.0000)
  60 Li     9.867449    3.491266   14.856159    ( 0.0000,  0.0000,  0.0000)
  61 Li    12.336276    5.224012   14.891711    ( 0.0000,  0.0000,  0.0000)
  62 Li    12.412749    3.427461   17.283173    ( 0.0000,  0.0000,  0.0000)
  63 Li     9.892136    5.224920   17.223724    ( 0.0000,  0.0000,  0.0000)
  64 Li     9.871211    6.980000   10.000000    ( 0.0000,  0.0000,  0.0000)
  65 Li    12.339013    8.725000   10.000000    ( 0.0000,  0.0000,  0.0000)
  66 Li    12.339013    6.980000   12.467803    ( 0.0000,  0.0000,  0.0000)
  67 Li     9.871211    8.725000   12.467803    ( 0.0000,  0.0000,  0.0000)
[...]
 48 Li   -0.00390   -0.00477    0.08812
 49 Li   -0.00498    0.00534    0.08405
 50 Li   -0.00286   -0.00619   -0.07488
 51 Li    0.00225    0.00197   -0.07189
 52 Li    0.00006    0.00208   -0.00835
 53 Li    0.00428   -0.00353    0.01768
 54 Li   -0.02758   -0.02608   -0.00711
 55 Li   -0.00915    0.00226   -0.01010
 56 Li   -0.00481    0.01302    0.07303
 57 Li   -0.02167    0.00121    0.08256
 58 Li   -0.00433    0.00709   -0.06403
 59 Li   -0.00261    0.00028   -0.07013
 60 Li    0.00132    0.00054   -0.00440
 61 Li    0.00084    0.00468   -0.00366
 62 Li   -0.03461    0.03473   -0.02849
 63 Li   -0.00422    0.00596   -0.00509
 64 Li   -0.00697   -0.00807    0.06553
 65 Li   -0.01009   -0.00654    0.08260
 66 Li   -0.00052    0.00007   -0.03452
 67 Li   -0.00203   -0.00189   -0.07051
 68 Li   -0.00018   -0.00194   -0.00162
 69 Li    0.00235    0.00142   -0.00889
 70 Li   -0.00390   -0.00155   -0.00206
 71 Li   -0.00437   -0.00612   -0.00264
 72 Li    0.02704    0.02591    0.06920

System changes: positions 

Initializing position-dependent things.

Density initialized from wave functions
       .-----------------------------------.  
      /|                                   |  
     / |                                   |  
    /  |                                   |  
   /   |                                   |  
  /    |                                   |  
 *     |                                   |  
 |     |                                   |  
 |     |                                   |  
 |     |                                   |  
 |     |                                   |  
 |     |                                   |  
 |     |                                   |  
 |    Li          Li                       |  
 |     |   Li                 Li           |  
 |     |               Li          Li      |  
 |  LLiLi       Li          Li             |  
 |     | Li Li   Li  Li Li       Li Li   Li|  
 |Li   |  Li  Li          Li Li            |  
 |     Li          Li Li       Li Li       |  
 |    Li       Li Li       Li Li       Li  |  
 |     |Li Li       Li Li       Li Li      |  
 |  Li |     Li Li       Li Li             |  
 |     | Li Li       Li Li       Li Li     |  
 |Li Li|      Li Li       Li Li            |  
 |     Li Li       Li Li       Li Li       |  
 | Li  |       Li          Li              |  
 |     |Li          Li          Li         |  
 Li    |     Li          Li                |  
 |     |                                   |  
 |     |                                   |  
 |     |                                   |  
 |     |                                   |  
 |     |                                   |  
 |     .-----------------------------------.  
 |    /                                   /   
 |   /                                   /    
 |  /                                   /     
 | /                                   /      
 |/                                   /       
 *-----------------------------------*        

Atomic positions and initial magnetic moments

Positions:
   0 Li     0.000000    0.000000   10.000000    ( 0.0000,  0.0000,  0.0000)
   1 Li     2.467803    1.745000   10.000000    ( 0.0000,  0.0000,  0.0000)
   2 Li     2.467803    0.000000   12.467803    ( 0.0000,  0.0000,  0.0000)
   3 Li     0.000000    1.745000   12.467803    ( 0.0000,  0.0000,  0.0000)
   4 Li     0.001180   -0.028940   14.800836    ( 0.0000,  0.0000,  0.0000)
   5 Li     2.463817    1.808553   14.754757    ( 0.0000,  0.0000,  0.0000)
   6 Li     2.459560    0.018340   16.870765    ( 0.0000,  0.0000,  0.0000)
   7 Li     0.051500    1.675615   17.148063    ( 0.0000,  0.0000,  0.0000)
   8 Li     0.000000    3.490000   10.000000    ( 0.0000,  0.0000,  0.0000)
   9 Li     2.467803    5.235000   10.000000    ( 0.0000,  0.0000,  0.0000)
  10 Li     2.467803    3.490000   12.467803    ( 0.0000,  0.0000,  0.0000)
  11 Li     0.000000    5.235000   12.467803    ( 0.0000,  0.0000,  0.0000)
  12 Li    -0.013071    3.495593   14.861356    ( 0.0000,  0.0000,  0.0000)
  13 Li     2.472892    5.222776   14.936486    ( 0.0000,  0.0000,  0.0000)
  14 Li     2.429808    3.362341   17.348582    ( 0.0000,  0.0000,  0.0000)
  15 Li     0.039130    5.203433   17.296119    ( 0.0000,  0.0000,  0.0000)
  16 Li     0.000000    6.980000   10.000000    ( 0.0000,  0.0000,  0.0000)
  17 Li     2.467803    8.725000   10.000000    ( 0.0000,  0.0000,  0.0000)
  18 Li     2.467803    6.980000   12.467803    ( 0.0000,  0.0000,  0.0000)
  19 Li     0.000000    8.725000   12.467803    ( 0.0000,  0.0000,  0.0000)
  20 Li    -0.010420    7.004761   14.935817    ( 0.0000,  0.0000,  0.0000)
  21 Li     2.475577    8.673022   14.783199    ( 0.0000,  0.0000,  0.0000)
  22 Li     2.444394    7.050110   17.308197    ( 0.0000,  0.0000,  0.0000)
  23 Li     0.074292    8.854494   17.365739    ( 0.0000,  0.0000,  0.0000)
  24 Li     4.935605    0.000000   10.000000    ( 0.0000,  0.0000,  0.0000)
  25 Li     7.403408    1.745000   10.000000    ( 0.0000,  0.0000,  0.0000)
  26 Li     7.403408    0.000000   12.467803    ( 0.0000,  0.0000,  0.0000)
  27 Li     4.935605    1.745000   12.467803    ( 0.0000,  0.0000,  0.0000)
  28 Li     4.932340    0.001358   14.857307    ( 0.0000,  0.0000,  0.0000)
  29 Li     7.409486    1.742418   14.863639    ( 0.0000,  0.0000,  0.0000)
  30 Li     7.385452    0.000586   17.218219    ( 0.0000,  0.0000,  0.0000)
  31 Li     4.844882    1.664664   17.342212    ( 0.0000,  0.0000,  0.0000)
  32 Li     4.935605    3.490000   10.000000    ( 0.0000,  0.0000,  0.0000)
  33 Li     7.403408    5.235000   10.000000    ( 0.0000,  0.0000,  0.0000)
  34 Li     7.403408    3.490000   12.467803    ( 0.0000,  0.0000,  0.0000)
  35 Li     4.935605    5.235000   12.467803    ( 0.0000,  0.0000,  0.0000)
  36 Li     4.949912    3.465033   14.906422    ( 0.0000,  0.0000,  0.0000)
  37 Li     7.400371    5.236506   14.864626    ( 0.0000,  0.0000,  0.0000)
  38 Li     7.363110    3.469161   17.226304    ( 0.0000,  0.0000,  0.0000)
  39 Li     4.878273    5.224912   17.264398    ( 0.0000,  0.0000,  0.0000)
  40 Li     4.935605    6.980000   10.000000    ( 0.0000,  0.0000,  0.0000)
  41 Li     7.403408    8.725000   10.000000    ( 0.0000,  0.0000,  0.0000)
  42 Li     7.403408    6.980000   12.467803    ( 0.0000,  0.0000,  0.0000)
  43 Li     4.935605    8.725000   12.467803    ( 0.0000,  0.0000,  0.0000)
  44 Li     4.945577    7.002916   14.911425    ( 0.0000,  0.0000,  0.0000)
  45 Li     7.410070    8.725959   14.857984    ( 0.0000,  0.0000,  0.0000)
  46 Li     7.362787    7.000112   17.228241    ( 0.0000,  0.0000,  0.0000)
  47 Li     4.845258    8.816451   17.334210    ( 0.0000,  0.0000,  0.0000)
  48 Li     9.871211    0.000000   10.000000    ( 0.0000,  0.0000,  0.0000)
  49 Li    12.339013    1.745000   10.000000    ( 0.0000,  0.0000,  0.0000)
  50 Li    12.339013    0.000000   12.467803    ( 0.0000,  0.0000,  0.0000)
  51 Li     9.871211    1.745000   12.467803    ( 0.0000,  0.0000,  0.0000)
  52 Li     9.867076    0.001767   14.865256    ( 0.0000,  0.0000,  0.0000)
  53 Li    12.340873    1.742542   14.864088    ( 0.0000,  0.0000,  0.0000)
  54 Li    12.391588    0.036616   17.282846    ( 0.0000,  0.0000,  0.0000)
  55 Li     9.880146    1.745837   17.214399    ( 0.0000,  0.0000,  0.0000)
  56 Li     9.871211    3.490000   10.000000    ( 0.0000,  0.0000,  0.0000)
  57 Li    12.339013    5.235000   10.000000    ( 0.0000,  0.0000,  0.0000)
  58 Li    12.339013    3.490000   12.467803    ( 0.0000,  0.0000,  0.0000)
  59 Li     9.871211    5.235000   12.467803    ( 0.0000,  0.0000,  0.0000)
  60 Li     9.867631    3.491315   14.855389    ( 0.0000,  0.0000,  0.0000)
  61 Li    12.336313    5.224530   14.891589    ( 0.0000,  0.0000,  0.0000)
  62 Li    12.407726    3.432328   17.278667    ( 0.0000,  0.0000,  0.0000)
  63 Li     9.891828    5.225733   17.223027    ( 0.0000,  0.0000,  0.0000)
  64 Li     9.871211    6.980000   10.000000    ( 0.0000,  0.0000,  0.0000)
  65 Li    12.339013    8.725000   10.000000    ( 0.0000,  0.0000,  0.0000)
  66 Li    12.339013    6.980000   12.467803    ( 0.0000,  0.0000,  0.0000)
  67 Li     9.871211    8.725000   12.467803    ( 0.0000,  0.0000,  0.0000)
  68 Li     9.872074    6.977222   14.858373    ( 0.0000,  0.0000,  0.0000)
  69 Li    12.327311    8.739277   14.884043    ( 0.0000,  0.0000,  0.0000)
  70 Li    12.397499    7.001951   17.247887    ( 0.0000,  0.0000,  0.0000)
  71 Li     9.891426    8.734510   17.218392    ( 0.0000,  0.0000,  0.0000)
  72 Li     1.644363    0.596867   19.369959    ( 0.0000,  0.0000,  0.0000)

Unit cell:
           periodic     x           y           z      points  spacing
  1. axis:    yes   14.806816    0.000000    0.000000    76     0.1948
  2. axis:    yes    0.000000   10.470000    0.000000    52     0.2013
  3. axis:    no     0.000000    0.000000   27.403408   136     0.2015

  Lengths:  14.806816  10.470000  27.403408
  Angles:   90.000000  90.000000  90.000000

Effective grid spacing dv^(1/3) = 0.1992

     iter     time        total  log10-change:
                         energy   eigst   dens
iter:   1 06:01:15  -127.084194        c
iter:   2 06:01:27  -127.084546        c -2.92
iter:   3 06:01:38  -127.084941c       c -3.10
iter:   4 06:01:49  -127.085411c       c -3.44
iter:   5 06:02:01  -127.085230c       c -3.59
iter:   6 06:02:13  -127.085209c       c -3.86
iter:   7 06:02:25  -127.085215c       c -3.98
iter:   8 06:02:36  -127.085214c       c -4.10c

Converged after 8 iterations.

Dipole moment: (-16.234274, -11.292002, 0.304709) |e|*Ang

Energy contributions relative to reference atoms: (reference = -14803.510878)

Kinetic:       +134.679047
Potential:     -115.753514
External:        +0.000000
XC:            -144.051603
Entropy (-ST):   -2.108028
Local:           -0.905131
SIC:             +0.000000
--------------------------
Free energy:   -128.139228
Extrapolated:  -127.085214

 Band  Eigenvalues  Occupancy
    0     -6.37445    2.00000
    1     -5.86181    2.00000
    2     -5.84873    2.00000
    3     -5.78843    2.00000
    4     -5.33544    2.00000
    5     -5.32843    2.00000
    6     -5.26618    2.00000
    7     -5.24654    2.00000
    8     -4.83114    2.00000
    9     -4.82151    1.99999
   10     -4.81109    1.99999
   11     -4.80769    1.99999
   12     -4.76512    1.99999
   13     -4.73755    1.99999
   14     -4.67996    1.99999
   15     -4.31669    1.99985
   16     -4.29916    1.99983
   17     -4.26390    1.99978
   18     -4.24102    1.99974
   19     -4.22731    1.99972
   20     -4.21902    1.99970
   21     -4.15311    1.99954
   22     -4.10931    1.99939
   23     -3.72113    1.99187
   24     -3.66166    1.98793
   25     -3.64592    1.98661
   26     -3.62796    1.98492
   27     -3.42517    1.94294
   28     -3.25440    1.83203
   29     -3.25147    1.82900
   30     -3.24941    1.82684
   31     -3.24311    1.82008
   32     -3.16311    1.71159
   33     -3.15498    1.69795
   34     -3.13864    1.66895
   35     -3.12847    1.64979
   36     -2.85219    0.85501
   37     -2.73684    0.51423
   38     -2.66970    0.36229
   39     -2.66351    0.35022
   40     -2.65118    0.32709
   41     -2.64586    0.31750
   42     -2.47346    0.11284
   43     -2.46729    0.10854
   44     -2.35120    0.05156
   45     -2.32637    0.04387
   46     -2.21051    0.02051
   47     -2.07481    0.00835

Fermi level: -2.89599

Gap: 0.276 eV
Transition (v -> c):
  (s=0, k=0, n=35, [0.00, 0.00, 0.00]) -> (s=0, k=0, n=36, [0.00, 0.00, 0.00])
No difference between direct/indirect transitions

Forces in eV/Ang:
  0 Li   -0.00081    0.00211    0.09470
  1 Li    0.00161   -0.00383    0.10027
  2 Li    0.00157   -0.01035   -0.06927
  3 Li   -0.00952    0.02065   -0.08299
  4 Li   -0.00953   -0.00057   -0.00410
  5 Li    0.00165    0.01604   -0.01508
  6 Li    0.02181   -0.03061   -0.03532
  7 Li   -0.02821    0.03138   -0.02146
  8 Li   -0.00810   -0.00917    0.09737
  9 Li    0.00795   -0.00476    0.10030
 10 Li    0.00267    0.05748   -0.12268
 11 Li   -0.00205    0.01754   -0.03407
 12 Li   -0.00119    0.01002   -0.01401
 13 Li   -0.00585   -0.00441   -0.01765
 14 Li   -0.00303   -0.01466   -0.01271
 15 Li    0.00448    0.01070   -0.00509
 16 Li   -0.01397    0.00683    0.09623
 17 Li    0.00336    0.00882    0.10349
 18 Li    0.00019   -0.04427   -0.09060
 19 Li   -0.00989   -0.04073   -0.09743
 20 Li    0.00601    0.00242   -0.01676
 21 Li    0.00252   -0.03052   -0.03146
 22 Li   -0.00586   -0.01374   -0.01355
 23 Li    0.00081    0.00520   -0.02493
 24 Li    0.00218   -0.00011    0.08832
 25 Li    0.00527    0.00758    0.08307
 26 Li   -0.00606    0.00005   -0.07226
 27 Li    0.01294    0.01495   -0.07766
 28 Li    0.00953    0.00206    0.00912
 29 Li    0.00005   -0.00102   -0.00917
 30 Li    0.01059    0.00135   -0.01366
 31 Li    0.00735    0.02361    0.00288
 32 Li    0.01163   -0.00288    0.08703
 33 Li    0.01527    0.00460    0.06818
 34 Li    0.00135    0.00042   -0.06520
 35 Li    0.00328    0.00056   -0.01154
 36 Li   -0.00458   -0.00024   -0.00647
 37 Li    0.00044    0.00054   -0.00254
 38 Li    0.00398    0.00499   -0.00310
 39 Li   -0.00156   -0.00063    0.00099
 40 Li    0.01936    0.00292    0.08884
 41 Li    0.00817   -0.01230    0.07720
 42 Li    0.00167   -0.00053   -0.06573
 43 Li    0.01384   -0.01610   -0.07362
 44 Li   -0.00324   -0.00313   -0.00268
 45 Li    0.00192   -0.00020   -0.00811
 46 Li    0.00552   -0.00636   -0.00560
 47 Li    0.03271   -0.03676   -0.02155
 48 Li   -0.00384   -0.00477    0.08794
 49 Li   -0.00489    0.00519    0.08389
 50 Li   -0.00300   -0.00560   -0.07470
 51 Li    0.00235    0.00203   -0.07215
 52 Li    0.00028    0.00149   -0.00775
 53 Li    0.00316   -0.00325    0.01423
 54 Li   -0.02690   -0.02337   -0.00631
 55 Li   -0.00798    0.00248   -0.00949
 56 Li   -0.00484    0.01287    0.07318
 57 Li   -0.02155    0.00125    0.08262
 58 Li   -0.00446    0.00666   -0.06324
 59 Li   -0.00269    0.00039   -0.07043
 60 Li    0.00128    0.00067   -0.00395
 61 Li    0.00099    0.00522   -0.00501
 62 Li   -0.03356    0.03420   -0.02605
 63 Li   -0.00515    0.00604   -0.00519
 64 Li   -0.00691   -0.00791    0.06564
 65 Li   -0.00998   -0.00643    0.08249
 66 Li   -0.00052   -0.00002   -0.03479
 67 Li   -0.00194   -0.00204   -0.07069
 68 Li    0.00028   -0.00145   -0.00175
 69 Li    0.00177    0.00038   -0.00814
 70 Li   -0.00355   -0.00080   -0.00247
 71 Li   -0.00516   -0.00661   -0.00306
 72 Li    0.02982    0.02340    0.02990

Timing:                                       incl.     excl.
--------------------------------------------------------------------
Basic WFS set positions:                      0.088     0.026   0.0% |
 Redistribute:                                0.062     0.062   0.0% |
Basis functions set positions:               11.658    11.658   0.2% |
Forces:                                     216.151     5.113   0.1% |
 LCAO forces:                               211.038     0.396   0.0% |
  Atomic Hamiltonian force:                   0.857     0.857   0.0% |
  Initial:                                    0.036     0.000   0.0% |
   Get density matrix:                        0.036     0.036   0.0% |
  Paw correction:                             0.917     0.917   0.0% |
  Potential:                                197.541   197.541   3.6% ||
  TCI derivative:                            11.290    11.290   0.2% |
  Wait for sum:                               0.000     0.000   0.0% |
LCAO WFS Initialize:                         66.409     0.261   0.0% |
 Density initialized from wave functions:    45.930    12.392   0.2% |
  Calculate density matrix:                   0.104     0.104   0.0% |
  Construct density:                         33.432    33.432   0.6% |
  Symmetrize density:                         0.001     0.001   0.0% |
 Hamiltonian:                                20.219     0.004   0.0% |
  Atomic:                                     5.129     0.020   0.0% |
   XC Correction:                             5.109     5.109   0.1% |
  Calculate atomic Hamiltonians:              0.437     0.437   0.0% |
  Communicate:                                0.000     0.000   0.0% |
  Hartree integrate/restrict:                 0.588     0.588   0.0% |
  Initialize Hamiltonian:                     0.000     0.000   0.0% |
  Poisson:                                    6.819     2.929   0.1% |
   Communicate from 1D:                       0.321     0.321   0.0% |
   Communicate from 2D:                       0.285     0.285   0.0% |
   Communicate to 1D:                         0.242     0.242   0.0% |
   Communicate to 2D:                         0.679     0.679   0.0% |
   FFT 1D:                                    1.024     1.024   0.0% |
   FFT 2D:                                    1.339     1.339   0.0% |
  XC 3D grid:                                 5.461     5.461   0.1% |
  vbar:                                       1.781     1.781   0.0% |
P tci:                                        3.298     3.298   0.1% |
Redistribute:                                 0.006     0.006   0.0% |
SCF-cycle:                                  698.158     0.093   0.0% |
 Density:                                   252.198     0.002   0.0% |
  Atomic density matrices:                    0.172     0.172   0.0% |
  Mix:                                       10.967    10.967   0.2% |
  Multipole moments:                          0.058     0.058   0.0% |
  Normalize:                                  0.022     0.022   0.0% |
  Pseudo density:                           240.977     0.144   0.0% |
   Calculate density matrix:                  0.026     0.026   0.0% |
   Construct density:                       240.803   240.803   4.3% |-|
   Symmetrize density:                        0.004     0.004   0.0% |
 Hamiltonian:                               110.505     0.009   0.0% |
  Atomic:                                    39.734     0.179   0.0% |
   XC Correction:                            39.555    39.555   0.7% |
  Calculate atomic Hamiltonians:              2.139     2.139   0.0% |
  Communicate:                                0.001     0.001   0.0% |
  Hartree integrate/restrict:                 1.041     1.041   0.0% |
  Poisson:                                   28.508     1.554   0.0% |
   Communicate from 1D:                       2.488     2.488   0.0% |
   Communicate from 2D:                       2.173     2.173   0.0% |
   Communicate to 1D:                         1.615     1.615   0.0% |
   Communicate to 2D:                         4.079     4.079   0.1% |
   FFT 1D:                                    7.582     7.582   0.1% |
   FFT 2D:                                    9.017     9.017   0.2% |
  XC 3D grid:                                37.362    37.362   0.7% |
  vbar:                                       1.710     1.710   0.0% |
 LCAO eigensolver:                          335.362     0.049   0.0% |
  Calculate projections:                      0.090     0.090   0.0% |
  DenseAtomicCorrection:                      1.348     1.348   0.0% |
  Distribute overlap matrix:                  0.008     0.008   0.0% |
  Orbital Layouts:                            1.884     1.884   0.0% |
  Potential matrix:                         331.983   331.983   6.0% |-|
ST tci:                                       2.258     2.258   0.0% |
Set symmetry:                                 0.001     0.001   0.0% |
TCI: Evaluate splines:                        0.012     0.012   0.0% |
mktci:                                        1.093     1.093   0.0% |
Other:                                     4563.339  4563.339  82.0% |--------------------------------|
--------------------------------------------------------------------
Total:                                               5562.472 100.0%

Memory usage: 3.67 GiB
Date: Wed Nov 26 06:16:31 2025
