
  ___ ___ ___ _ _ _  
 |   |   |_  | | | | 
 | | | | | . | | | | 
 |__ |  _|___|_____|  25.7.0
 |___|_|             

User:   tew@Mathuss-MacBook-Air-357.local
Date:   Wed Nov 26 04:43:48 2025
Arch:   arm64
Pid:    88448
CWD:    /Users/tew/Documents/Project/GitHub/chem-com
Python: 3.13.5
gpaw:   /Users/tew/Documents/Project/GitHub/chem-com/.venv/lib/python3.13/site-packages/gpaw
_gpaw:  /Users/tew/Documents/Project/GitHub/chem-com/.venv/lib/python3.13/site-packages/
        _gpaw.cpython-313-darwin.so
ase:    /Users/tew/Documents/Project/GitHub/chem-com/.venv/lib/python3.13/site-packages/ase (version 3.26.0)
numpy:  /Users/tew/Documents/Project/GitHub/chem-com/.venv/lib/python3.13/site-packages/numpy (version 2.3.5)
scipy:  /Users/tew/Documents/Project/GitHub/chem-com/.venv/lib/python3.13/site-packages/scipy (version 1.16.3)
libxc:  2.x.y
units:  Angstrom and eV
cores: 1
OpenMP: False
OMP_NUM_THREADS: 1

Input parameters:
  basis: dzp
  convergence: {density: 0.0001,
                eigenstates: 5e-06}
  kpts: [1 1 1]
  mode: {interpolation: 3,
         name: lcao}
  occupations: {fixmagmom: False,
                name: fermi-dirac,
                width: 0.15}
  xc: PBE

System changes: positions, numbers, cell, pbc, initial_charges, initial_magmoms 

Initialize ...

species:
  Li:
    name: Lithium
    id: 830b4218f175192f93f959cfc0aad614
    Z: 3.0
    valence: 1
    core: 2
    charge: 0.0
    file: /Users/tew/Documents/Project/GitHub/chem-com/.venv/lib/python3.13/site-packages/gpaw_data/setups/Li.PBE.gz
    compensation charges: {type: gauss,
                           rc: 0.33,
                           lmax: 2}
    cutoffs: {filter: 1.91,
              core: 2.55}
    projectors:
      #              energy  rcut
      - 2s(1.00)    -2.874   1.058
      - 2p(0.00)    -1.090   1.058
      -  s          24.337   1.058
  
    # LCAO basis set for Li:
    #   Name: dzp
    #   File: /Users/tew/Documents/Project/GitHub/chem-com/.venv/lib/python3.13/site-packages/gpaw_data/setups/Li.dzp.basis.gz
    #   Number of radial functions: 3
    #   Number of spherical harmonics: 5
    #     l=0, rc=10.8906 Bohr: 2s-sz confined orbital
    #     l=0, rc=6.6719 Bohr: 2s-dz split-valence wave
    #     l=1, rc=10.8906 Bohr: p-type Gaussian polarization
    #   Number of RI-basis functions 0

Reference energy: -14803.510878  # eV

Spin-paired calculation

Convergence criteria:
 Maximum [total energy] change in last 3 cyles: 0.0005 eV / valence electron
 Maximum integral of absolute [dens]ity change: 0.0001 electrons / valence electron
 Maximum integral of absolute [eigenst]ate change: 5e-06 eV^2 / valence electron
 Maximum number of scf [iter]ations: 333
 (Square brackets indicate name in SCF output, whereas a 'c' in
 the SCF output indicates the quantity has converged.)

Symmetries present (total): 1

  ( 1  0  0)
  ( 0  1  0)
  ( 0  0  1)

1 k-point (Gamma)
1 k-point in the irreducible part of the Brillouin zone
       k-points in crystal coordinates                weights
   0:     0.00000000    0.00000000    0.00000000          1/1

Wave functions: LCAO
  Diagonalizer: Serial LAPACK
  Atomic Correction: dense with blas
  Data-type: float
 

Occupation numbers: Fermi-Dirac:
  width: 0.1500  # eV
 

Eigensolver
   LCAO using direct dense diagonalizer 

Densities:
  Coarse grid: 76*52*136 grid
  Fine grid: 152*104*272 grid
  Total Charge: 0.000000 

Density mixing:
  Method: separate
  Backend: pulay
  Linear mixing parameter: 0.05
  old densities: 5
  Damping of long wavelength oscillations: 50 

Hamiltonian:
  XC and Coulomb potentials evaluated on a 152*104*272 grid
  Using the PBE Exchange-Correlation functional
  Interpolation: tri-quintic (5. degree polynomial)
  Poisson solver: FastPoissonSolver using
    Stencil: 6*3+1=19 point O(h^6) finite-difference Laplacian
    FFT axes: [np.int64(0), np.int64(1)]
    FST axes: [np.int64(2)]
 

XC parameters: PBE with 2 nearest neighbor stencil

Memory estimate:
  Process memory now: 3762.67 MiB
  Calculator: 680.35 MiB
    Density: 353.33 MiB
      Arrays: 106.19 MiB
      Localized functions: 206.43 MiB
      Mixer: 40.70 MiB
    Hamiltonian: 85.76 MiB
      Arrays: 69.44 MiB
      XC: 0.00 MiB
      Poisson: 0.00 MiB
      vbar: 16.32 MiB
    Wavefunctions: 241.26 MiB
      C [qnM]: 0.13 MiB
      S, T [2 x qmm]: 2.03 MiB
      P [aqMi]: 0.13 MiB
      BasisFunctions: 238.97 MiB
      Eigensolver: 0.00 MiB

Total number of cores used: 1

Number of atoms: 73
Number of atomic orbitals: 365
Number of bands in calculation: 48
Number of valence electrons: 73
Bands to converge: occupied

... initialized

Initializing position-dependent things.

Density initialized from atomic densities
       .-----------------------------------.  
      /|                                   |  
     / |                                   |  
    /  |                                   |  
   /   |                                   |  
  /    |                                   |  
 *     |                                   |  
 |     |                                   |  
 |     |                                   |  
 |     |                                   |  
 |     |                                   |  
 |     |                                   |  
 |     |                                   |  
 |    Li                                   |  
 |     |          Li          Li           |  
 |  Li |   Li          Li          Li      |  
 |  Li Li       Li          Li      Li     |  
 |     | Li Li       Li Li       Li      Li|  
 |Li   |  Li  Li Li       Li LiLi          |  
 |     Li          Li Li          Li       |  
 |    Li       Li Li       Li Li       Li  |  
 |     |Li Li       Li Li       Li Li      |  
 |  Li |     Li Li       Li Li             |  
 |     | Li Li       Li Li       Li Li     |  
 |Li Li|      Li Li       Li Li            |  
 |     Li Li       Li Li       Li Li       |  
 | Li  |       Li          Li              |  
 |     |Li          Li          Li         |  
 Li    |     Li          Li                |  
 |     |                                   |  
 |     |                                   |  
 |     |                                   |  
 |     |                                   |  
 |     |                                   |  
 |     .-----------------------------------.  
 |    /                                   /   
 |   /                                   /    
 |  /                                   /     
 | /                                   /      
 |/                                   /       
 *-----------------------------------*        

Atomic positions and initial magnetic moments

Positions:
   0 Li     0.000000    0.000000   10.000000    ( 0.0000,  0.0000,  0.0000)
   1 Li     2.467803    1.745000   10.000000    ( 0.0000,  0.0000,  0.0000)
   2 Li     2.467803    0.000000   12.467803    ( 0.0000,  0.0000,  0.0000)
   3 Li     0.000000    1.745000   12.467803    ( 0.0000,  0.0000,  0.0000)
   4 Li     0.002817   -0.056925   14.758569    ( 0.0000,  0.0000,  0.0000)
   5 Li     2.456553    1.776299   14.797782    ( 0.0000,  0.0000,  0.0000)
   6 Li     2.391069    0.091189   17.166012    ( 0.0000,  0.0000,  0.0000)
   7 Li     0.038760    1.697457   16.938302    ( 0.0000,  0.0000,  0.0000)
   8 Li     0.000000    3.490000   10.000000    ( 0.0000,  0.0000,  0.0000)
   9 Li     2.467803    5.235000   10.000000    ( 0.0000,  0.0000,  0.0000)
  10 Li     2.467803    3.490000   12.467803    ( 0.0000,  0.0000,  0.0000)
  11 Li     0.000000    5.235000   12.467803    ( 0.0000,  0.0000,  0.0000)
  12 Li    -0.006417    3.535289   14.791833    ( 0.0000,  0.0000,  0.0000)
  13 Li     2.482066    5.212086   14.939914    ( 0.0000,  0.0000,  0.0000)
  14 Li     2.391621    3.361785   17.375299    ( 0.0000,  0.0000,  0.0000)
  15 Li     0.018233    5.160898   17.312014    ( 0.0000,  0.0000,  0.0000)
  16 Li     0.000000    6.980000   10.000000    ( 0.0000,  0.0000,  0.0000)
  17 Li     2.467803    8.725000   10.000000    ( 0.0000,  0.0000,  0.0000)
  18 Li     2.467803    6.980000   12.467803    ( 0.0000,  0.0000,  0.0000)
  19 Li     0.000000    8.725000   12.467803    ( 0.0000,  0.0000,  0.0000)
  20 Li    -0.006417    6.992914   14.947979    ( 0.0000,  0.0000,  0.0000)
  21 Li     2.481514    8.717290   14.858598    ( 0.0000,  0.0000,  0.0000)
  22 Li     2.430114    7.018876   17.295019    ( 0.0000,  0.0000,  0.0000)
  23 Li     0.038760    8.845416   17.350832    ( 0.0000,  0.0000,  0.0000)
  24 Li     4.935605    0.000000   10.000000    ( 0.0000,  0.0000,  0.0000)
  25 Li     7.403408    1.745000   10.000000    ( 0.0000,  0.0000,  0.0000)
  26 Li     7.403408    0.000000   12.467803    ( 0.0000,  0.0000,  0.0000)
  27 Li     4.935605    1.745000   12.467803    ( 0.0000,  0.0000,  0.0000)
  28 Li     4.938924    0.001537   14.855327    ( 0.0000,  0.0000,  0.0000)
  29 Li     7.406394    1.744686   14.868515    ( 0.0000,  0.0000,  0.0000)
  30 Li     7.391676    0.000454   17.217661    ( 0.0000,  0.0000,  0.0000)
  31 Li     4.871386    1.699352   17.285473    ( 0.0000,  0.0000,  0.0000)
  32 Li     4.935605    3.490000   10.000000    ( 0.0000,  0.0000,  0.0000)
  33 Li     7.403408    5.235000   10.000000    ( 0.0000,  0.0000,  0.0000)
  34 Li     7.403408    3.490000   12.467803    ( 0.0000,  0.0000,  0.0000)
  35 Li     4.935605    5.235000   12.467803    ( 0.0000,  0.0000,  0.0000)
  36 Li     4.948867    3.476443   14.885411    ( 0.0000,  0.0000,  0.0000)
  37 Li     7.401508    5.236847   14.859687    ( 0.0000,  0.0000,  0.0000)
  38 Li     7.382548    3.478667   17.219921    ( 0.0000,  0.0000,  0.0000)
  39 Li     4.875311    5.213145   17.248090    ( 0.0000,  0.0000,  0.0000)
  40 Li     4.935605    6.980000   10.000000    ( 0.0000,  0.0000,  0.0000)
  41 Li     7.403408    8.725000   10.000000    ( 0.0000,  0.0000,  0.0000)
  42 Li     7.403408    6.980000   12.467803    ( 0.0000,  0.0000,  0.0000)
  43 Li     4.935605    8.725000   12.467803    ( 0.0000,  0.0000,  0.0000)
  44 Li     4.938432    6.992269   14.889012    ( 0.0000,  0.0000,  0.0000)
  45 Li     7.406394    8.723747   14.857245    ( 0.0000,  0.0000,  0.0000)
  46 Li     7.382548    6.991014   17.225758    ( 0.0000,  0.0000,  0.0000)
  47 Li     4.854463    8.793054   17.287644    ( 0.0000,  0.0000,  0.0000)
  48 Li     9.871211    0.000000   10.000000    ( 0.0000,  0.0000,  0.0000)
  49 Li    12.339013    1.745000   10.000000    ( 0.0000,  0.0000,  0.0000)
  50 Li    12.339013    0.000000   12.467803    ( 0.0000,  0.0000,  0.0000)
  51 Li     9.871211    1.745000   12.467803    ( 0.0000,  0.0000,  0.0000)
  52 Li     9.864243    0.001537   14.864799    ( 0.0000,  0.0000,  0.0000)
  53 Li    12.347069    1.744747   14.849515    ( 0.0000,  0.0000,  0.0000)
  54 Li    12.426140    0.091189   17.341892    ( 0.0000,  0.0000,  0.0000)
  55 Li     9.896220    1.745367   17.223460    ( 0.0000,  0.0000,  0.0000)
  56 Li     9.871211    3.490000   10.000000    ( 0.0000,  0.0000,  0.0000)
  57 Li    12.339013    5.235000   10.000000    ( 0.0000,  0.0000,  0.0000)
  58 Li    12.339013    3.490000   12.467803    ( 0.0000,  0.0000,  0.0000)
  59 Li     9.871211    5.235000   12.467803    ( 0.0000,  0.0000,  0.0000)
  60 Li     9.864179    3.489304   14.858977    ( 0.0000,  0.0000,  0.0000)
  61 Li    12.326948    5.212086   14.913364    ( 0.0000,  0.0000,  0.0000)
  62 Li    12.435269    3.388146   17.343763    ( 0.0000,  0.0000,  0.0000)
  63 Li     9.913474    5.213145   17.228417    ( 0.0000,  0.0000,  0.0000)
  64 Li     9.871211    6.980000   10.000000    ( 0.0000,  0.0000,  0.0000)
  65 Li    12.339013    8.725000   10.000000    ( 0.0000,  0.0000,  0.0000)
  66 Li    12.339013    6.980000   12.467803    ( 0.0000,  0.0000,  0.0000)
  67 Li     9.871211    8.725000   12.467803    ( 0.0000,  0.0000,  0.0000)
  68 Li     9.874614    6.979409   14.862578    ( 0.0000,  0.0000,  0.0000)
  69 Li    12.322108    8.748842   14.910331    ( 0.0000,  0.0000,  0.0000)
  70 Li    12.396776    6.992515   17.263484    ( 0.0000,  0.0000,  0.0000)
  71 Li     9.913143    8.747039   17.225630    ( 0.0000,  0.0000,  0.0000)
  72 Li     0.822962    1.163858   19.309096    ( 0.0000,  0.0000,  0.0000)

Unit cell:
           periodic     x           y           z      points  spacing
  1. axis:    yes   14.806816    0.000000    0.000000    76     0.1948
  2. axis:    yes    0.000000   10.470000    0.000000    52     0.2013
  3. axis:    no     0.000000    0.000000   27.403408   136     0.2015

  Lengths:  14.806816  10.470000  27.403408
  Angles:   90.000000  90.000000  90.000000

Effective grid spacing dv^(1/3) = 0.1992

     iter     time        total  log10-change:
                         energy   eigst   dens
iter:   1 04:58:33  -134.682985        c
iter:   2 04:58:45  -131.044683        c -0.63
iter:   3 04:58:57  -128.309503        c -0.77
iter:   4 04:59:07  -127.882172        c -0.98
iter:   5 04:59:19  -127.191948        c -1.08
iter:   6 04:59:30  -127.245843        c -1.43
iter:   7 04:59:41  -127.107323        c -1.43
iter:   8 04:59:52  -127.075869        c -1.69
iter:   9 05:00:03  -127.058898        c -1.88
iter:  10 05:00:14  -127.055056c       c -2.06
iter:  11 05:00:25  -127.052991c       c -2.25
iter:  12 05:00:36  -127.051729c       c -2.41
iter:  13 05:00:47  -127.051416c       c -2.54
iter:  14 05:00:58  -127.051146c       c -2.62
iter:  15 05:01:11  -127.050764c       c -2.86
iter:  16 05:01:22  -127.050710c       c -3.04
iter:  17 05:01:32  -127.050636c       c -3.12
iter:  18 05:01:44  -127.050817c       c -3.27
iter:  19 05:01:56  -127.050946c       c -3.54
iter:  20 05:02:07  -127.051019c       c -3.68
iter:  21 05:02:18  -127.050993c       c -3.81
iter:  22 05:02:29  -127.051015c       c -4.05c

Converged after 22 iterations.

Dipole moment: (-17.515431, -10.862229, 0.277938) |e|*Ang

Energy contributions relative to reference atoms: (reference = -14803.510878)

Kinetic:       +135.072832
Potential:     -116.023929
External:        +0.000000
XC:            -144.133457
Entropy (-ST):   -2.107887
Local:           -0.912516
SIC:             +0.000000
--------------------------
Free energy:   -128.104958
Extrapolated:  -127.051015

 Band  Eigenvalues  Occupancy
    0     -6.38207    2.00000
    1     -5.86943    2.00000
    2     -5.85631    2.00000
    3     -5.79708    2.00000
    4     -5.34344    2.00000
    5     -5.33563    2.00000
    6     -5.27551    2.00000
    7     -5.25421    2.00000
    8     -4.83985    2.00000
    9     -4.82892    1.99999
   10     -4.81868    1.99999
   11     -4.81482    1.99999
   12     -4.77584    1.99999
   13     -4.74553    1.99999
   14     -4.68814    1.99999
   15     -4.32551    1.99985
   16     -4.30666    1.99983
   17     -4.27359    1.99978
   18     -4.25020    1.99975
   19     -4.23536    1.99972
   20     -4.22587    1.99970
   21     -4.16118    1.99954
   22     -4.11864    1.99939
   23     -3.73124    1.99193
   24     -3.67098    1.98797
   25     -3.65273    1.98642
   26     -3.63874    1.98510
   27     -3.43291    1.94251
   28     -3.26261    1.83131
   29     -3.25937    1.82794
   30     -3.25749    1.82596
   31     -3.24969    1.81752
   32     -3.17192    1.71142
   33     -3.16628    1.70201
   34     -3.14886    1.67135
   35     -3.13712    1.64927
   36     -2.86026    0.85229
   37     -2.74925    0.52318
   38     -2.67941    0.36386
   39     -2.67300    0.35132
   40     -2.65837    0.32396
   41     -2.65163    0.31194
   42     -2.48387    0.11390
   43     -2.47670    0.10888
   44     -2.35551    0.05005
   45     -2.33348    0.04336
   46     -2.22197    0.02085
   47     -2.08148    0.00823

Fermi level: -2.90491

Gap: 0.277 eV
Transition (v -> c):
  (s=0, k=0, n=35, [0.00, 0.00, 0.00]) -> (s=0, k=0, n=36, [0.00, 0.00, 0.00])
No difference between direct/indirect transitions

Forces in eV/Ang:
  0 Li   -0.00119    0.00636    0.09999
  1 Li    0.00103   -0.00026    0.09628
  2 Li    0.00681   -0.01919   -0.08373
  3 Li   -0.00326    0.01230   -0.07586
  4 Li   -0.00488   -0.01132    0.00369
  5 Li    0.02503   -0.00223    0.01177
  6 Li    0.10597   -0.09609   -0.08026
  7 Li   -0.13916    0.11777   -0.29181
  8 Li   -0.00308   -0.01088    0.10224
  9 Li    0.01386   -0.00689    0.09811
 10 Li    0.00753    0.04107   -0.09585
 11 Li   -0.00188    0.04269   -0.08031
 12 Li   -0.00582    0.00924   -0.00453
 13 Li   -0.01382   -0.00217   -0.02281
 14 Li    0.01097    0.00460   -0.03387
 15 Li    0.01459    0.01570   -0.00728
 16 Li   -0.00907    0.00444    0.10062
 17 Li    0.00927    0.00736    0.09882
 18 Li    0.00016   -0.01821   -0.03249
 19 Li   -0.00472   -0.05826   -0.11441
 20 Li    0.00403    0.00063   -0.03394
 21 Li   -0.00232    0.00590    0.00211
 22 Li   -0.00903   -0.02204   -0.00036
 23 Li   -0.00632    0.03178   -0.00631
 24 Li    0.00545   -0.00407    0.08512
 25 Li    0.00342    0.00480    0.08738
 26 Li   -0.00347   -0.00085   -0.07235
 27 Li    0.00540    0.00881   -0.07663
 28 Li   -0.01377    0.00638    0.03019
 29 Li    0.00115   -0.00270   -0.01259
 30 Li    0.01150   -0.00018   -0.01164
 31 Li    0.03088    0.03263   -0.01099
 32 Li    0.00965    0.00331    0.08308
 33 Li    0.00760    0.01058    0.06416
 34 Li    0.00056    0.00006   -0.07041
 35 Li    0.00392    0.00022   -0.03501
 36 Li   -0.00380   -0.00643   -0.00801
 37 Li    0.00157    0.00513   -0.00449
 38 Li    0.00237    0.00314   -0.00164
 39 Li    0.00532    0.00618   -0.00352
 40 Li    0.02244    0.00075    0.08167
 41 Li    0.00510   -0.01555    0.07141
 42 Li    0.00069    0.00056   -0.07012
 43 Li    0.00751   -0.00964   -0.06864
 44 Li    0.00441   -0.00283    0.00523
 45 Li   -0.00004   -0.00330   -0.00834
 46 Li    0.00045   -0.00402   -0.00540
 47 Li    0.03804   -0.03442   -0.03686
 48 Li   -0.00623   -0.00850    0.08504
 49 Li   -0.00180    0.00224    0.08865
 50 Li   -0.00874   -0.01657   -0.07772
 51 Li    0.00471    0.00077   -0.06989
 52 Li    0.00077    0.00739   -0.00625
 53 Li   -0.00567   -0.00025    0.03315
 54 Li    0.00624   -0.04184    0.00163
 55 Li   -0.02472   -0.00057   -0.01964
 56 Li   -0.00777    0.01155    0.07842
 57 Li   -0.01978   -0.00093    0.08914
 58 Li   -0.00913    0.01647   -0.07483
 59 Li   -0.00356    0.00063   -0.06517
 60 Li   -0.00059   -0.00530   -0.00578
 61 Li    0.00991    0.00291   -0.00262
 62 Li   -0.02538    0.03752   -0.02984
 63 Li   -0.00381    0.00877   -0.00524
 64 Li   -0.01531   -0.00297    0.06825
 65 Li   -0.01338   -0.00121    0.08739
 66 Li    0.00067    0.00075   -0.01007
 67 Li   -0.00353   -0.00140   -0.06586
 68 Li   -0.00463   -0.00136    0.00331
 69 Li    0.01093    0.00281   -0.01415
 70 Li   -0.00168   -0.00335    0.00568
 71 Li   -0.00492   -0.00558   -0.00151
 72 Li   -0.00747   -0.04182    0.25595

System changes: positions 

Initializing position-dependent things.

Density initialized from wave functions
       .-----------------------------------.  
      /|                                   |  
     / |                                   |  
    /  |                                   |  
   /   |                                   |  
  /    |                                   |  
 *     |                                   |  
 |     |                                   |  
 |     |                                   |  
 |     |                                   |  
 |     |                                   |  
 |     |                                   |  
 |     |                                   |  
 |    Li                                   |  
 |     |          Li          Li           |  
 |  Li |   Li          Li          Li      |  
 |  Li Li       Li          Li      Li     |  
 |     | Li Li       Li Li       Li      Li|  
 |Li   |  Li  Li Li       Li LiLi          |  
 |     Li          Li Li          Li       |  
 |    Li       Li Li       Li Li       Li  |  
 |     |Li Li       Li Li       Li Li      |  
 |  Li |     Li Li       Li Li             |  
 |     | Li Li       Li Li       Li Li     |  
 |Li Li|      Li Li       Li Li            |  
 |     Li Li       Li Li       Li Li       |  
 | Li  |       Li          Li              |  
 |     |Li          Li          Li         |  
 Li    |     Li          Li                |  
 |     |                                   |  
 |     |                                   |  
 |     |                                   |  
 |     |                                   |  
 |     |                                   |  
 |     .-----------------------------------.  
 |    /                                   /   
 |   /                                   /    
 |  /                                   /     
 | /                                   /      
 |/                                   /       
 *-----------------------------------*        

Atomic positions and initial magnetic moments

Positions:
   0 Li     0.000000    0.000000   10.000000    ( 0.0000,  0.0000,  0.0000)
   1 Li     2.467803    1.745000   10.000000    ( 0.0000,  0.0000,  0.0000)
   2 Li     2.467803    0.000000   12.467803    ( 0.0000,  0.0000,  0.0000)
   3 Li     0.000000    1.745000   12.467803    ( 0.0000,  0.0000,  0.0000)
   4 Li     0.002769   -0.057030   14.758617    ( 0.0000,  0.0000,  0.0000)
   5 Li     2.456804    1.776285   14.797887    ( 0.0000,  0.0000,  0.0000)
   6 Li     2.392138    0.090216   17.165146    ( 0.0000,  0.0000,  0.0000)
   7 Li     0.037379    1.698623   16.935447    ( 0.0000,  0.0000,  0.0000)
   8 Li     0.000000    3.490000   10.000000    ( 0.0000,  0.0000,  0.0000)
   9 Li     2.467803    5.235000   10.000000    ( 0.0000,  0.0000,  0.0000)
  10 Li     2.467803    3.490000   12.467803    ( 0.0000,  0.0000,  0.0000)
  11 Li     0.000000    5.235000   12.467803    ( 0.0000,  0.0000,  0.0000)
  12 Li    -0.006477    3.535370   14.791808    ( 0.0000,  0.0000,  0.0000)
  13 Li     2.481926    5.212067   14.939687    ( 0.0000,  0.0000,  0.0000)
  14 Li     2.391741    3.361833   17.374953    ( 0.0000,  0.0000,  0.0000)
  15 Li     0.018384    5.161065   17.311937    ( 0.0000,  0.0000,  0.0000)
  16 Li     0.000000    6.980000   10.000000    ( 0.0000,  0.0000,  0.0000)
  17 Li     2.467803    8.725000   10.000000    ( 0.0000,  0.0000,  0.0000)
  18 Li     2.467803    6.980000   12.467803    ( 0.0000,  0.0000,  0.0000)
  19 Li     0.000000    8.725000   12.467803    ( 0.0000,  0.0000,  0.0000)
  20 Li    -0.006378    6.992923   14.947638    ( 0.0000,  0.0000,  0.0000)
  21 Li     2.481489    8.717338   14.858598    ( 0.0000,  0.0000,  0.0000)
  22 Li     2.430028    7.018666   17.295020    ( 0.0000,  0.0000,  0.0000)
  23 Li     0.038708    8.845736   17.350776    ( 0.0000,  0.0000,  0.0000)
  24 Li     4.935605    0.000000   10.000000    ( 0.0000,  0.0000,  0.0000)
  25 Li     7.403408    1.745000   10.000000    ( 0.0000,  0.0000,  0.0000)
  26 Li     7.403408    0.000000   12.467803    ( 0.0000,  0.0000,  0.0000)
  27 Li     4.935605    1.745000   12.467803    ( 0.0000,  0.0000,  0.0000)
  28 Li     4.938785    0.001601   14.855627    ( 0.0000,  0.0000,  0.0000)
  29 Li     7.406407    1.744659   14.868388    ( 0.0000,  0.0000,  0.0000)
  30 Li     7.391788    0.000452   17.217547    ( 0.0000,  0.0000,  0.0000)
  31 Li     4.871688    1.699666   17.285379    ( 0.0000,  0.0000,  0.0000)
  32 Li     4.935605    3.490000   10.000000    ( 0.0000,  0.0000,  0.0000)
  33 Li     7.403408    5.235000   10.000000    ( 0.0000,  0.0000,  0.0000)
  34 Li     7.403408    3.490000   12.467803    ( 0.0000,  0.0000,  0.0000)
  35 Li     4.935605    5.235000   12.467803    ( 0.0000,  0.0000,  0.0000)
  36 Li     4.948830    3.476376   14.885338    ( 0.0000,  0.0000,  0.0000)
  37 Li     7.401524    5.236898   14.859644    ( 0.0000,  0.0000,  0.0000)
  38 Li     7.382566    3.478695   17.219906    ( 0.0000,  0.0000,  0.0000)
  39 Li     4.875365    5.213210   17.248060    ( 0.0000,  0.0000,  0.0000)
  40 Li     4.935605    6.980000   10.000000    ( 0.0000,  0.0000,  0.0000)
  41 Li     7.403408    8.725000   10.000000    ( 0.0000,  0.0000,  0.0000)
  42 Li     7.403408    6.980000   12.467803    ( 0.0000,  0.0000,  0.0000)
  43 Li     4.935605    8.725000   12.467803    ( 0.0000,  0.0000,  0.0000)
  44 Li     4.938478    6.992244   14.889071    ( 0.0000,  0.0000,  0.0000)
  45 Li     7.406395    8.723715   14.857163    ( 0.0000,  0.0000,  0.0000)
  46 Li     7.382546    6.990977   17.225705    ( 0.0000,  0.0000,  0.0000)
  47 Li     4.854839    8.792719   17.287290    ( 0.0000,  0.0000,  0.0000)
  48 Li     9.871211    0.000000   10.000000    ( 0.0000,  0.0000,  0.0000)
  49 Li    12.339013    1.745000   10.000000    ( 0.0000,  0.0000,  0.0000)
  50 Li    12.339013    0.000000   12.467803    ( 0.0000,  0.0000,  0.0000)
  51 Li     9.871211    1.745000   12.467803    ( 0.0000,  0.0000,  0.0000)
  52 Li     9.864252    0.001611   14.864737    ( 0.0000,  0.0000,  0.0000)
  53 Li    12.347010    1.744744   14.849848    ( 0.0000,  0.0000,  0.0000)
  54 Li    12.426196    0.090758   17.341893    ( 0.0000,  0.0000,  0.0000)
  55 Li     9.895969    1.745361   17.223262    ( 0.0000,  0.0000,  0.0000)
  56 Li     9.871211    3.490000   10.000000    ( 0.0000,  0.0000,  0.0000)
  57 Li    12.339013    5.235000   10.000000    ( 0.0000,  0.0000,  0.0000)
  58 Li    12.339013    3.490000   12.467803    ( 0.0000,  0.0000,  0.0000)
  59 Li     9.871211    5.235000   12.467803    ( 0.0000,  0.0000,  0.0000)
  60 Li     9.864174    3.489251   14.858919    ( 0.0000,  0.0000,  0.0000)
  61 Li    12.327049    5.212118   14.913332    ( 0.0000,  0.0000,  0.0000)
  62 Li    12.435010    3.388530   17.343450    ( 0.0000,  0.0000,  0.0000)
  63 Li     9.913430    5.213236   17.228364    ( 0.0000,  0.0000,  0.0000)
  64 Li     9.871211    6.980000   10.000000    ( 0.0000,  0.0000,  0.0000)
  65 Li    12.339013    8.725000   10.000000    ( 0.0000,  0.0000,  0.0000)
  66 Li    12.339013    6.980000   12.467803    ( 0.0000,  0.0000,  0.0000)
  67 Li     9.871211    8.725000   12.467803    ( 0.0000,  0.0000,  0.0000)
  68 Li     9.874567    6.979395   14.862610    ( 0.0000,  0.0000,  0.0000)
  69 Li    12.322219    8.748867   14.910183    ( 0.0000,  0.0000,  0.0000)
  70 Li    12.396760    6.992484   17.263537    ( 0.0000,  0.0000,  0.0000)
  71 Li     9.913088    8.746980   17.225613    ( 0.0000,  0.0000,  0.0000)
  72 Li     0.823112    1.163281   19.311657    ( 0.0000,  0.0000,  0.0000)

Unit cell:
           periodic     x           y           z      points  spacing
  1. axis:    yes   14.806816    0.000000    0.000000    76     0.1948
  2. axis:    yes    0.000000   10.470000    0.000000    52     0.2013
  3. axis:    no     0.000000    0.000000   27.403408   136     0.2015

  Lengths:  14.806816  10.470000  27.403408
  Angles:   90.000000  90.000000  90.000000

Effective grid spacing dv^(1/3) = 0.1992

     iter     time        total  log10-change:
                         energy   eigst   dens
iter:   1 05:12:34  -127.053291        c
iter:   2 05:12:46  -127.053362        c -3.39
iter:   3 05:12:57  -127.053346c       c -3.80
iter:   4 05:13:09  -127.053353c       c -3.97
iter:   5 05:13:20  -127.053333c       c -4.25c

Converged after 5 iterations.

Dipole moment: (-17.490310, -10.847685, 0.279503) |e|*Ang

Energy contributions relative to reference atoms: (reference = -14803.510878)

Kinetic:       +135.023210
Potential:     -115.992241
External:        +0.000000
XC:            -144.124675
Entropy (-ST):   -2.107822
Local:           -0.905715
SIC:             +0.000000
--------------------------
Free energy:   -128.107244
Extrapolated:  -127.053333

 Band  Eigenvalues  Occupancy
    0     -6.38175    2.00000
    1     -5.86910    2.00000
    2     -5.85601    2.00000
    3     -5.79669    2.00000
    4     -5.34311    2.00000
    5     -5.33532    2.00000
    6     -5.27507    2.00000
    7     -5.25385    2.00000
    8     -4.83946    2.00000
    9     -4.82858    1.99999
   10     -4.81839    1.99999
   11     -4.81452    1.99999
   12     -4.77536    1.99999
   13     -4.74516    1.99999
   14     -4.68780    1.99999
   15     -4.32510    1.99985
   16     -4.30634    1.99983
   17     -4.27315    1.99978
   18     -4.24976    1.99975
   19     -4.23498    1.99972
   20     -4.22554    1.99970
   21     -4.16083    1.99954
   22     -4.11825    1.99939
   23     -3.73081    1.99193
   24     -3.67054    1.98796
   25     -3.65242    1.98643
   26     -3.63827    1.98510
   27     -3.43257    1.94253
   28     -3.26227    1.83136
   29     -3.25905    1.82802
   30     -3.25713    1.82600
   31     -3.24940    1.81764
   32     -3.17154    1.71145
   33     -3.16575    1.70179
   34     -3.14843    1.67129
   35     -3.13675    1.64934
   36     -2.85988    0.85233
   37     -2.74869    0.52278
   38     -2.67898    0.36382
   39     -2.67254    0.35121
   40     -2.65801    0.32404
   41     -2.65136    0.31217
   42     -2.48341    0.11386
   43     -2.47628    0.10886
   44     -2.35533    0.05012
   45     -2.33319    0.04339
   46     -2.22145    0.02084
   47     -2.08120    0.00823

Fermi level: -2.90450

Gap: 0.277 eV
Transition (v -> c):
  (s=0, k=0, n=35, [0.00, 0.00, 0.00]) -> (s=0, k=0, n=36, [0.00, 0.00, 0.00])
No difference between direct/indirect transitions

Forces in eV/Ang:
  0 Li   -0.00119    0.00638    0.09958
  1 Li    0.00105   -0.00028    0.09587
  2 Li    0.00674   -0.01917   -0.08331
  3 Li   -0.00316    0.01225   -0.07508
  4 Li   -0.00489   -0.01210    0.00192
  5 Li    0.02509   -0.00197    0.01050
  6 Li    0.10222   -0.09309   -0.07687
  7 Li   -0.13389    0.11414   -0.27934
  8 Li   -0.00311   -0.01088    0.10201
  9 Li    0.01390   -0.00685    0.09816
 10 Li    0.00751    0.04097   -0.09575
 11 Li   -0.00189    0.04259   -0.08068
 12 Li   -0.00580    0.01058   -0.00617
 13 Li   -0.01375   -0.00233   -0.02235
 14 Li    0.01015    0.00377   -0.03325
 15 Li    0.01445    0.01581   -0.00743
 16 Li   -0.00909    0.00441    0.10063
 17 Li    0.00933    0.00734    0.09872
 18 Li    0.00024   -0.01813   -0.03290
 19 Li   -0.00467   -0.05813   -0.11441
 20 Li    0.00407    0.00081   -0.03325
 21 Li   -0.00218    0.00531    0.00158
 22 Li   -0.00900   -0.02172   -0.00047
 23 Li   -0.00573    0.03147   -0.00610
 24 Li    0.00547   -0.00404    0.08505
 25 Li    0.00346    0.00474    0.08763
 26 Li   -0.00333   -0.00084   -0.07286
 27 Li    0.00559    0.00881   -0.07682
 28 Li   -0.01355    0.00628    0.03004
 29 Li    0.00108   -0.00260   -0.01208
 30 Li    0.01123   -0.00031   -0.01176
 31 Li    0.03103    0.03227   -0.01096
 32 Li    0.00963    0.00329    0.08316
 33 Li    0.00755    0.01049    0.06457
 34 Li    0.00061    0.00007   -0.07077
 35 Li    0.00411    0.00028   -0.03538
 36 Li   -0.00381   -0.00636   -0.00760
 37 Li    0.00161    0.00500   -0.00428
 38 Li    0.00245    0.00330   -0.00184
 39 Li    0.00537    0.00597   -0.00362
 40 Li    0.02236    0.00074    0.08195
 41 Li    0.00511   -0.01540    0.07173
 42 Li    0.00075    0.00053   -0.07039
 43 Li    0.00767   -0.00970   -0.06874
 44 Li    0.00428   -0.00273    0.00525
 45 Li    0.00003   -0.00326   -0.00792
 46 Li    0.00061   -0.00401   -0.00550
 47 Li    0.03822   -0.03437   -0.03674
 48 Li   -0.00629   -0.00841    0.08524
 49 Li   -0.00184    0.00222    0.08842
 50 Li   -0.00883   -0.01659   -0.07771
 51 Li    0.00442    0.00077   -0.07045
 52 Li    0.00081    0.00711   -0.00589
 53 Li   -0.00607   -0.00029    0.03241
 54 Li    0.00579   -0.04106    0.00175
 55 Li   -0.02415   -0.00055   -0.01958
 56 Li   -0.00780    0.01143    0.07866
 57 Li   -0.01974   -0.00091    0.08933
 58 Li   -0.00926    0.01654   -0.07490
 59 Li   -0.00364    0.00067   -0.06537
 60 Li   -0.00066   -0.00508   -0.00544
 61 Li    0.00993    0.00267   -0.00232
 62 Li   -0.02590    0.03737   -0.02964
 63 Li   -0.00391    0.00867   -0.00530
 64 Li   -0.01522   -0.00294    0.06860
 65 Li   -0.01336   -0.00121    0.08745
 66 Li    0.00045    0.00071   -0.01054
 67 Li   -0.00361   -0.00143   -0.06605
 68 Li   -0.00464   -0.00129    0.00332
 69 Li    0.01087    0.00292   -0.01369
 70 Li   -0.00160   -0.00317    0.00556
 71 Li   -0.00489   -0.00555   -0.00163
 72 Li   -0.00799   -0.04117    0.24385

System changes: positions 

Initializing position-dependent things.

Density initialized from wave functions
       .-----------------------------------.  
      /|                                   |  
     / |                                   |  
    /  |                                   |  
   /   |                                   |  
  /    |                                   |  
 *     |                                   |  
 |     |                                   |  
 |     |                                   |  
 |     |                                   |  
 |     |                                   |  
 |     |                                   |  
 |     |                                   |  
 |    Li                                   |  
 |     |          Li          Li           |  
 |  Li |   Li          Li          Li      |  
 |  Li Li       Li          Li      Li     |  
 |     | Li Li       Li Li       Li      Li|  
 |Li   |  Li  Li Li       Li LiLi          |  
 |     Li          Li Li          Li       |  
 |    Li       Li Li       Li Li       Li  |  
 |     |Li Li       Li Li       Li Li      |  
 |  Li |     Li Li       Li Li             |  
 |     | Li Li       Li Li       Li Li     |  
 |Li Li|      Li Li       Li Li            |  
 |     Li Li       Li Li       Li Li       |  
 | Li  |       Li          Li              |  
 |     |Li          Li          Li         |  
 Li    |     Li          Li                |  
 |     |                                   |  
 |     |                                   |  
 |     |                                   |  
 |     |                                   |  
 |     |                                   |  
 |     .-----------------------------------.  
 |    /                                   /   
 |   /                                   /    
 |  /                                   /     
 | /                                   /      
 |/                                   /       
 *-----------------------------------*        

Atomic positions and initial magnetic moments

Positions:
   0 Li     0.000000    0.000000   10.000000    ( 0.0000,  0.0000,  0.0000)
   1 Li     2.467803    1.745000   10.000000    ( 0.0000,  0.0000,  0.0000)
   2 Li     2.467803    0.000000   12.467803    ( 0.0000,  0.0000,  0.0000)
   3 Li     0.000000    1.745000   12.467803    ( 0.0000,  0.0000,  0.0000)
   4 Li     0.002672   -0.057250   14.758694    ( 0.0000,  0.0000,  0.0000)
   5 Li     2.457309    1.776260   14.798085    ( 0.0000,  0.0000,  0.0000)
   6 Li     2.394240    0.088299   17.163449    ( 0.0000,  0.0000,  0.0000)
   7 Li     0.034670    1.700918   16.929862    ( 0.0000,  0.0000,  0.0000)
   8 Li     0.000000    3.490000   10.000000    ( 0.0000,  0.0000,  0.0000)
   9 Li     2.467803    5.235000   10.000000    ( 0.0000,  0.0000,  0.0000)
  10 Li     2.467803    3.490000   12.467803    ( 0.0000,  0.0000,  0.0000)
  11 Li     0.000000    5.235000   12.467803    ( 0.0000,  0.0000,  0.0000)
  12 Li    -0.006597    3.535548   14.791738    ( 0.0000,  0.0000,  0.0000)
  13 Li     2.481646    5.212028   14.939238    ( 0.0000,  0.0000,  0.0000)
  14 Li     2.391972    3.361920   17.374269    ( 0.0000,  0.0000,  0.0000)
  15 Li     0.018684    5.161401   17.311781    ( 0.0000,  0.0000,  0.0000)
  16 Li     0.000000    6.980000   10.000000    ( 0.0000,  0.0000,  0.0000)
  17 Li     2.467803    8.725000   10.000000    ( 0.0000,  0.0000,  0.0000)
  18 Li     2.467803    6.980000   12.467803    ( 0.0000,  0.0000,  0.0000)
  19 Li     0.000000    8.725000   12.467803    ( 0.0000,  0.0000,  0.0000)
  20 Li    -0.006301    6.992944   14.946963    ( 0.0000,  0.0000,  0.0000)
  21 Li     2.481440    8.717427   14.858594    ( 0.0000,  0.0000,  0.0000)
  22 Li     2.429857    7.018247   17.295020    ( 0.0000,  0.0000,  0.0000)
  23 Li     0.038608    8.846374   17.350664    ( 0.0000,  0.0000,  0.0000)
  24 Li     4.935605    0.000000   10.000000    ( 0.0000,  0.0000,  0.0000)
  25 Li     7.403408    1.745000   10.000000    ( 0.0000,  0.0000,  0.0000)
  26 Li     7.403408    0.000000   12.467803    ( 0.0000,  0.0000,  0.0000)
  27 Li     4.935605    1.745000   12.467803    ( 0.0000,  0.0000,  0.0000)
  28 Li     4.938508    0.001727   14.856227    ( 0.0000,  0.0000,  0.0000)
  29 Li     7.406431    1.744605   14.868141    ( 0.0000,  0.0000,  0.0000)
  30 Li     7.392009    0.000447   17.217315    ( 0.0000,  0.0000,  0.0000)
  31 Li     4.872294    1.700291   17.285189    ( 0.0000,  0.0000,  0.0000)
  32 Li     4.935605    3.490000   10.000000    ( 0.0000,  0.0000,  0.0000)
  33 Li     7.403408    5.235000   10.000000    ( 0.0000,  0.0000,  0.0000)
  34 Li     7.403408    3.490000   12.467803    ( 0.0000,  0.0000,  0.0000)
  35 Li     4.935605    5.235000   12.467803    ( 0.0000,  0.0000,  0.0000)
  36 Li     4.948756    3.476242   14.885195    ( 0.0000,  0.0000,  0.0000)
  37 Li     7.401555    5.236999   14.859559    ( 0.0000,  0.0000,  0.0000)
  38 Li     7.382603    3.478754   17.219875    ( 0.0000,  0.0000,  0.0000)
  39 Li     4.875473    5.213337   17.247996    ( 0.0000,  0.0000,  0.0000)
  40 Li     4.935605    6.980000   10.000000    ( 0.0000,  0.0000,  0.0000)
  41 Li     7.403408    8.725000   10.000000    ( 0.0000,  0.0000,  0.0000)
  42 Li     7.403408    6.980000   12.467803    ( 0.0000,  0.0000,  0.0000)
  43 Li     4.935605    8.725000   12.467803    ( 0.0000,  0.0000,  0.0000)
  44 Li     4.938570    6.992194   14.889188    ( 0.0000,  0.0000,  0.0000)
  45 Li     7.406396    8.723650   14.857002    ( 0.0000,  0.0000,  0.0000)
  46 Li     7.382546    6.990903   17.225598    ( 0.0000,  0.0000,  0.0000)
  47 Li     4.855593    8.792049   17.286583    ( 0.0000,  0.0000,  0.0000)
  48 Li     9.871211    0.000000   10.000000    ( 0.0000,  0.0000,  0.0000)
  49 Li    12.339013    1.745000   10.000000    ( 0.0000,  0.0000,  0.0000)
  50 Li    12.339013    0.000000   12.467803    ( 0.0000,  0.0000,  0.0000)
  51 Li     9.871211    1.745000   12.467803    ( 0.0000,  0.0000,  0.0000)
  52 Li     9.864269    0.001755   14.864617    ( 0.0000,  0.0000,  0.0000)
  53 Li    12.346888    1.744738   14.850508    ( 0.0000,  0.0000,  0.0000)
  54 Li    12.426301    0.089904   17.341896    ( 0.0000,  0.0000,  0.0000)
  55 Li     9.895473    1.745350   17.222866    ( 0.0000,  0.0000,  0.0000)
  56 Li     9.871211    3.490000   10.000000    ( 0.0000,  0.0000,  0.0000)
  57 Li    12.339013    5.235000   10.000000    ( 0.0000,  0.0000,  0.0000)
  58 Li    12.339013    3.490000   12.467803    ( 0.0000,  0.0000,  0.0000)
  59 Li     9.871211    5.235000   12.467803    ( 0.0000,  0.0000,  0.0000)
  60 Li     9.864163    3.489148   14.858806    ( 0.0000,  0.0000,  0.0000)
  61 Li    12.327253    5.212180   14.913271    ( 0.0000,  0.0000,  0.0000)
  62 Li    12.434486    3.389299   17.342824    ( 0.0000,  0.0000,  0.0000)
  63 Li     9.913341    5.213416   17.228256    ( 0.0000,  0.0000,  0.0000)
  64 Li     9.871211    6.980000   10.000000    ( 0.0000,  0.0000,  0.0000)
  65 Li    12.339013    8.725000   10.000000    ( 0.0000,  0.0000,  0.0000)
  66 Li    12.339013    6.980000   12.467803    ( 0.0000,  0.0000,  0.0000)
  67 Li     9.871211    8.725000   12.467803    ( 0.0000,  0.0000,  0.0000)
  68 Li     9.874473    6.979368   14.862675    ( 0.0000,  0.0000,  0.0000)
  69 Li    12.322439    8.748919   14.909892    ( 0.0000,  0.0000,  0.0000)
  70 Li    12.396728    6.992424   17.263641    ( 0.0000,  0.0000,  0.0000)
  71 Li     9.912978    8.746862   17.225578    ( 0.0000,  0.0000,  0.0000)
  72 Li     0.823399    1.162137   19.316656    ( 0.0000,  0.0000,  0.0000)

Unit cell:
           periodic     x           y           z      points  spacing
  1. axis:    yes   14.806816    0.000000    0.000000    76     0.1948
  2. axis:    yes    0.000000   10.470000    0.000000    52     0.2013
  3. axis:    no     0.000000    0.000000   27.403408   136     0.2015

  Lengths:  14.806816  10.470000  27.403408
  Angles:   90.000000  90.000000  90.000000

Effective grid spacing dv^(1/3) = 0.1992

     iter     time        total  log10-change:
                         energy   eigst   dens
iter:   1 05:19:58  -127.057135        c
iter:   2 05:20:10  -127.057286        c -3.33
iter:   3 05:20:22  -127.057435c       c -3.51
iter:   4 05:20:35  -127.057597c       c -3.83
iter:   5 05:20:48  -127.057522c       c -4.01c

Converged after 5 iterations.

Dipole moment: (-17.440272, -10.817951, 0.281582) |e|*Ang

Energy contributions relative to reference atoms: (reference = -14803.510878)

Kinetic:       +134.993071
Potential:     -115.972570
External:        +0.000000
XC:            -144.117943
Entropy (-ST):   -2.107910
Local:           -0.906125
SIC:             +0.000000
--------------------------
Free energy:   -128.111478
Extrapolated:  -127.057522

 Band  Eigenvalues  Occupancy
    0     -6.38103    2.00000
    1     -5.86838    2.00000
    2     -5.85529    2.00000
    3     -5.79592    2.00000
    4     -5.34237    2.00000
    5     -5.33462    2.00000
    6     -5.27426    2.00000
    7     -5.25317    2.00000
    8     -4.83866    2.00000
    9     -4.82787    1.99999
   10     -4.81768    1.99999
   11     -4.81382    1.99999
   12     -4.77443    1.99999
   13     -4.74444    1.99999
   14     -4.68708    1.99999
   15     -4.32429    1.99985
   16     -4.30563    1.99983
   17     -4.27231    1.99978
   18     -4.24895    1.99975
   19     -4.23427    1.99972
   20     -4.22492    1.99970
   21     -4.16014    1.99954
   22     -4.11741    1.99939
   23     -3.72992    1.99192
   24     -3.66972    1.98796
   25     -3.65180    1.98644
   26     -3.63730    1.98508
   27     -3.43188    1.94257
   28     -3.26148    1.83138
   29     -3.25830    1.82808
   30     -3.25636    1.82603
   31     -3.24874    1.81779
   32     -3.17078    1.71151
   33     -3.16473    1.70141
   34     -3.14753    1.67109
   35     -3.13598    1.64940
   36     -2.85917    0.85262
   37     -2.74763    0.52209
   38     -2.67818    0.36381
   39     -2.67168    0.35108
   40     -2.65733    0.32425
   41     -2.65085    0.31269
   42     -2.48249    0.11377
   43     -2.47542    0.10882
   44     -2.35489    0.05023
   45     -2.33253    0.04343
   46     -2.22042    0.02080
   47     -2.08062    0.00824

Fermi level: -2.90371

Gap: 0.277 eV
Transition (v -> c):
  (s=0, k=0, n=35, [0.00, 0.00, 0.00]) -> (s=0, k=0, n=36, [0.00, 0.00, 0.00])
No difference between direct/indirect transitions

Forces in eV/Ang:
  0 Li   -0.00115    0.00634    0.09970
  1 Li    0.00100   -0.00028    0.09598
  2 Li    0.00684   -0.01914   -0.08334
  3 Li   -0.00320    0.01220   -0.07471
  4 Li   -0.00440   -0.01291   -0.00004
  5 Li    0.02436   -0.00192    0.00947
  6 Li    0.09539   -0.08757   -0.07208
  7 Li   -0.12341    0.10694   -0.25662
  8 Li   -0.00307   -0.01087    0.10214
  9 Li    0.01378   -0.00686    0.09821
 10 Li    0.00757    0.04089   -0.09601
 11 Li   -0.00187    0.04262   -0.08116
 12 Li   -0.00554    0.01281   -0.00903
 13 Li   -0.01337   -0.00241   -0.02192
 14 Li    0.00898    0.00275   -0.03262
 15 Li    0.01390    0.01562   -0.00765
 16 Li   -0.00901    0.00443    0.10058
 17 Li    0.00921    0.00736    0.09883
 18 Li    0.00026   -0.01808   -0.03306
 19 Li   -0.00467   -0.05812   -0.11489
 20 Li    0.00402    0.00114   -0.03232
 21 Li   -0.00204    0.00421    0.00069
 22 Li   -0.00864   -0.02082   -0.00064
 23 Li   -0.00484    0.03050   -0.00633
 24 Li    0.00533   -0.00401    0.08512
 25 Li    0.00340    0.00476    0.08764
 26 Li   -0.00344   -0.00088   -0.07277
 27 Li    0.00562    0.00863   -0.07677
 28 Li   -0.01295    0.00617    0.02880
 29 Li    0.00108   -0.00249   -0.01202
 30 Li    0.01096   -0.00041   -0.01165
 31 Li    0.03097    0.03164   -0.01060
 32 Li    0.00949    0.00326    0.08321
 33 Li    0.00752    0.01045    0.06465
 34 Li    0.00054    0.00012   -0.07068
 35 Li    0.00406    0.00031   -0.03523
 36 Li   -0.00366   -0.00594   -0.00755
 37 Li    0.00151    0.00478   -0.00434
 38 Li    0.00269    0.00355   -0.00199
 39 Li    0.00521    0.00559   -0.00363
 40 Li    0.02228    0.00074    0.08203
 41 Li    0.00510   -0.01539    0.07184
 42 Li    0.00076    0.00051   -0.07033
 43 Li    0.00770   -0.00956   -0.06835
 44 Li    0.00406   -0.00287    0.00449
 45 Li    0.00009   -0.00313   -0.00788
 46 Li    0.00098   -0.00408   -0.00557
 47 Li    0.03804   -0.03442   -0.03599
 48 Li   -0.00619   -0.00839    0.08528
 49 Li   -0.00176    0.00222    0.08852
 50 Li   -0.00891   -0.01637   -0.07770
 51 Li    0.00446    0.00078   -0.07044
 52 Li    0.00073    0.00671   -0.00605
 53 Li   -0.00679   -0.00042    0.03050
 54 Li    0.00486   -0.03978    0.00199
 55 Li   -0.02323   -0.00062   -0.01915
 56 Li   -0.00774    0.01141    0.07871
 57 Li   -0.01963   -0.00093    0.08940
 58 Li   -0.00937    0.01639   -0.07478
 59 Li   -0.00359    0.00068   -0.06515
 60 Li   -0.00077   -0.00474   -0.00558
 61 Li    0.00963    0.00271   -0.00252
 62 Li   -0.02655    0.03742   -0.02891
 63 Li   -0.00413    0.00863   -0.00532
 64 Li   -0.01516   -0.00294    0.06865
 65 Li   -0.01320   -0.00118    0.08753
 66 Li    0.00044    0.00068   -0.01055
 67 Li   -0.00353   -0.00144   -0.06579
 68 Li   -0.00432   -0.00122    0.00295
 69 Li    0.01055    0.00272   -0.01320
 70 Li   -0.00137   -0.00276    0.00539
 71 Li   -0.00482   -0.00556   -0.00169
 72 Li   -0.00982   -0.03953    0.22362

System changes: positions 

Initializing position-dependent things.

Density initialized from wave functions
       .-----------------------------------.  
      /|                                   |  
     / |                                   |  
    /  |                                   |  
   /   |                                   |  
  /    |                                   |  
 *     |                                   |  
 |     |                                   |  
 |     |                                   |  
 |     |                                   |  
 |     |                                   |  
 |     |                                   |  
 |     |                                   |  
 |    Li                                   |  
 |     |          Li          Li           |  
 |  Li |   Li          Li          Li      |  
 |  Li Li       Li          Li      Li     |  
 |     | Li Li       Li Li       Li      Li|  
 |Li   |  Li  Li Li       Li LiLi          |  
 |     Li          Li Li          Li       |  
 |    Li       Li Li       Li Li       Li  |  
 |     |Li Li       Li Li       Li Li      |  
 |  Li |     Li Li       Li Li             |  
 |     | Li Li       Li Li       Li Li     |  
 |Li Li|      Li Li       Li Li            |  
 |     Li Li       Li Li       Li Li       |  
 | Li  |       Li          Li              |  
 |     |Li          Li          Li         |  
 Li    |     Li          Li                |  
 |     |                                   |  
 |     |                                   |  
 |     |                                   |  
 |     |                                   |  
 |     |                                   |  
 |     .-----------------------------------.  
 |    /                                   /   
 |   /                                   /    
 |  /                                   /     
 | /                                   /      
 |/                                   /       
 *-----------------------------------*        

Atomic positions and initial magnetic moments

Positions:
   0 Li     0.000000    0.000000   10.000000    ( 0.0000,  0.0000,  0.0000)
   1 Li     2.467803    1.745000   10.000000    ( 0.0000,  0.0000,  0.0000)
   2 Li     2.467803    0.000000   12.467803    ( 0.0000,  0.0000,  0.0000)
   3 Li     0.000000    1.745000   12.467803    ( 0.0000,  0.0000,  0.0000)
   4 Li     0.002533   -0.057597   14.758775    ( 0.0000,  0.0000,  0.0000)
   5 Li     2.458062    1.776223   14.798365    ( 0.0000,  0.0000,  0.0000)
   6 Li     2.397307    0.085492   17.160970    ( 0.0000,  0.0000,  0.0000)
   7 Li     0.030739    1.704273   16.921780    ( 0.0000,  0.0000,  0.0000)
   8 Li     0.000000    3.490000   10.000000    ( 0.0000,  0.0000,  0.0000)
   9 Li     2.467803    5.235000   10.000000    ( 0.0000,  0.0000,  0.0000)
  10 Li     2.467803    3.490000   12.467803    ( 0.0000,  0.0000,  0.0000)
  11 Li     0.000000    5.235000   12.467803    ( 0.0000,  0.0000,  0.0000)
  12 Li    -0.006774    3.535852   14.791588    ( 0.0000,  0.0000,  0.0000)
  13 Li     2.481229    5.211967   14.938567    ( 0.0000,  0.0000,  0.0000)
  14 Li     2.392301    3.362034   17.373248    ( 0.0000,  0.0000,  0.0000)
  15 Li     0.019130    5.161905   17.311542    ( 0.0000,  0.0000,  0.0000)
  16 Li     0.000000    6.980000   10.000000    ( 0.0000,  0.0000,  0.0000)
  17 Li     2.467803    8.725000   10.000000    ( 0.0000,  0.0000,  0.0000)
  18 Li     2.467803    6.980000   12.467803    ( 0.0000,  0.0000,  0.0000)
  19 Li     0.000000    8.725000   12.467803    ( 0.0000,  0.0000,  0.0000)
  20 Li    -0.006184    6.992980   14.945959    ( 0.0000,  0.0000,  0.0000)
  21 Li     2.481369    8.717545   14.858576    ( 0.0000,  0.0000,  0.0000)
  22 Li     2.429604    7.017629   17.295017    ( 0.0000,  0.0000,  0.0000)
  23 Li     0.038472    8.847323   17.350494    ( 0.0000,  0.0000,  0.0000)
  24 Li     4.935605    0.000000   10.000000    ( 0.0000,  0.0000,  0.0000)
  25 Li     7.403408    1.745000   10.000000    ( 0.0000,  0.0000,  0.0000)
  26 Li     7.403408    0.000000   12.467803    ( 0.0000,  0.0000,  0.0000)
  27 Li     4.935605    1.745000   12.467803    ( 0.0000,  0.0000,  0.0000)
  28 Li     4.938099    0.001916   14.857116    ( 0.0000,  0.0000,  0.0000)
  29 Li     7.406466    1.744526   14.867771    ( 0.0000,  0.0000,  0.0000)
  30 Li     7.392339    0.000437   17.216967    ( 0.0000,  0.0000,  0.0000)
  31 Li     4.873208    1.701225   17.284907    ( 0.0000,  0.0000,  0.0000)
  32 Li     4.935605    3.490000   10.000000    ( 0.0000,  0.0000,  0.0000)
  33 Li     7.403408    5.235000   10.000000    ( 0.0000,  0.0000,  0.0000)
  34 Li     7.403408    3.490000   12.467803    ( 0.0000,  0.0000,  0.0000)
  35 Li     4.935605    5.235000   12.467803    ( 0.0000,  0.0000,  0.0000)
  36 Li     4.948645    3.476046   14.884982    ( 0.0000,  0.0000,  0.0000)
  37 Li     7.401600    5.237148   14.859432    ( 0.0000,  0.0000,  0.0000)
  38 Li     7.382663    3.478847   17.219825    ( 0.0000,  0.0000,  0.0000)
  39 Li     4.875636    5.213524   17.247900    ( 0.0000,  0.0000,  0.0000)
  40 Li     4.935605    6.980000   10.000000    ( 0.0000,  0.0000,  0.0000)
  41 Li     7.403408    8.725000   10.000000    ( 0.0000,  0.0000,  0.0000)
  42 Li     7.403408    6.980000   12.467803    ( 0.0000,  0.0000,  0.0000)
  43 Li     4.935605    8.725000   12.467803    ( 0.0000,  0.0000,  0.0000)
  44 Li     4.938704    6.992118   14.889355    ( 0.0000,  0.0000,  0.0000)
  45 Li     7.406400    8.723554   14.856763    ( 0.0000,  0.0000,  0.0000)
  46 Li     7.382551    6.990789   17.225435    ( 0.0000,  0.0000,  0.0000)
  47 Li     4.856730    8.791036   17.285524    ( 0.0000,  0.0000,  0.0000)
  48 Li     9.871211    0.000000   10.000000    ( 0.0000,  0.0000,  0.0000)
  49 Li    12.339013    1.745000   10.000000    ( 0.0000,  0.0000,  0.0000)
  50 Li    12.339013    0.000000   12.467803    ( 0.0000,  0.0000,  0.0000)
  51 Li     9.871211    1.745000   12.467803    ( 0.0000,  0.0000,  0.0000)
  52 Li     9.864295    0.001967   14.864437    ( 0.0000,  0.0000,  0.0000)
  53 Li    12.346693    1.744727   14.851476    ( 0.0000,  0.0000,  0.0000)
  54 Li    12.426447    0.088636   17.341906    ( 0.0000,  0.0000,  0.0000)
  55 Li     9.894740    1.745332   17.222274    ( 0.0000,  0.0000,  0.0000)
  56 Li     9.871211    3.490000   10.000000    ( 0.0000,  0.0000,  0.0000)
  57 Li    12.339013    5.235000   10.000000    ( 0.0000,  0.0000,  0.0000)
  58 Li    12.339013    3.490000   12.467803    ( 0.0000,  0.0000,  0.0000)
  59 Li     9.871211    5.235000   12.467803    ( 0.0000,  0.0000,  0.0000)
  60 Li     9.864145    3.488999   14.858636    ( 0.0000,  0.0000,  0.0000)
  61 Li    12.327557    5.212272   14.913179    ( 0.0000,  0.0000,  0.0000)
  62 Li    12.433686    3.390457   17.341892    ( 0.0000,  0.0000,  0.0000)
  63 Li     9.913205    5.213687   17.228093    ( 0.0000,  0.0000,  0.0000)
  64 Li     9.871211    6.980000   10.000000    ( 0.0000,  0.0000,  0.0000)
  65 Li    12.339013    8.725000   10.000000    ( 0.0000,  0.0000,  0.0000)
  66 Li    12.339013    6.980000   12.467803    ( 0.0000,  0.0000,  0.0000)
  67 Li     9.871211    8.725000   12.467803    ( 0.0000,  0.0000,  0.0000)
  68 Li     9.874335    6.979328   14.862768    ( 0.0000,  0.0000,  0.0000)
  69 Li    12.322768    8.748996   14.909462    ( 0.0000,  0.0000,  0.0000)
  70 Li    12.396684    6.992340   17.263796    ( 0.0000,  0.0000,  0.0000)
  71 Li     9.912814    8.746685   17.225524    ( 0.0000,  0.0000,  0.0000)
  72 Li     0.823792    1.160448   19.323882    ( 0.0000,  0.0000,  0.0000)

Unit cell:
           periodic     x           y           z      points  spacing
  1. axis:    yes   14.806816    0.000000    0.000000    76     0.1948
  2. axis:    yes    0.000000   10.470000    0.000000    52     0.2013
  3. axis:    no     0.000000    0.000000   27.403408   136     0.2015

  Lengths:  14.806816  10.470000  27.403408
  Angles:   90.000000  90.000000  90.000000

Effective grid spacing dv^(1/3) = 0.1992

     iter     time        total  log10-change:
                         energy   eigst   dens
iter:   1 05:28:20  -127.062652        c
iter:   2 05:28:32  -127.062805        c -3.21
iter:   3 05:28:43  -127.062978c       c -3.36
iter:   4 05:28:54  -127.063190c       c -3.63
iter:   5 05:29:05  -127.063079c       c -3.83
iter:   6 05:29:16  -127.063078c       c -4.10c

Converged after 6 iterations.

Dipole moment: (-17.366842, -10.773444, 0.284756) |e|*Ang

Energy contributions relative to reference atoms: (reference = -14803.510878)

Kinetic:       +134.943139
Potential:     -115.938632
External:        +0.000000
XC:            -144.107531
Entropy (-ST):   -2.107956
Local:           -0.906076
SIC:             +0.000000
--------------------------
Free energy:   -128.117056
Extrapolated:  -127.063078

 Band  Eigenvalues  Occupancy
    0     -6.38012    2.00000
    1     -5.86749    2.00000
    2     -5.85438    2.00000
    3     -5.79489    2.00000
    4     -5.34141    2.00000
    5     -5.33375    2.00000
    6     -5.27316    2.00000
    7     -5.25227    2.00000
    8     -4.83762    2.00000
    9     -4.82697    1.99999
   10     -4.81679    1.99999
   11     -4.81295    1.99999
   12     -4.77314    1.99999
   13     -4.74349    1.99999
   14     -4.68610    1.99999
   15     -4.32325    1.99985
   16     -4.30473    1.99983
   17     -4.27117    1.99978
   18     -4.24785    1.99975
   19     -4.23333    1.99972
   20     -4.22412    1.99970
   21     -4.15920    1.99954
   22     -4.11627    1.99939
   23     -3.72868    1.99192
   24     -3.66863    1.98796
   25     -3.65100    1.98647
   26     -3.63598    1.98505
   27     -3.43096    1.94262
   28     -3.26048    1.83145
   29     -3.25736    1.82821
   30     -3.25539    1.82614
   31     -3.24791    1.81806
   32     -3.16976    1.71159
   33     -3.16333    1.70085
   34     -3.14629    1.67078
   35     -3.13495    1.64946
   36     -2.85821    0.85297
   37     -2.74615    0.52104
   38     -2.67710    0.36378
   39     -2.67051    0.35088
   40     -2.65643    0.32456
   41     -2.65021    0.31344
   42     -2.48122    0.11363
   43     -2.47425    0.10875
   44     -2.35436    0.05041
   45     -2.33166    0.04349
   46     -2.21898    0.02075
   47     -2.07981    0.00826

Fermi level: -2.90264

Gap: 0.277 eV
Transition (v -> c):
  (s=0, k=0, n=35, [0.00, 0.00, 0.00]) -> (s=0, k=0, n=36, [0.00, 0.00, 0.00])
No difference between direct/indirect transitions

Forces in eV/Ang:
  0 Li   -0.00113    0.00625    0.09962
  1 Li    0.00096   -0.00026    0.09589
  2 Li    0.00688   -0.01916   -0.08319
  3 Li   -0.00322    0.01220   -0.07391
  4 Li   -0.00373   -0.01439   -0.00337
  5 Li    0.02329   -0.00165    0.00763
  6 Li    0.08512   -0.07937   -0.06477
  7 Li   -0.10771    0.09593   -0.22257
  8 Li   -0.00304   -0.01080    0.10215
  9 Li    0.01362   -0.00686    0.09814
 10 Li    0.00753    0.04076   -0.09622
 11 Li   -0.00184    0.04255   -0.08182
 12 Li   -0.00515    0.01647   -0.01368
 13 Li   -0.01290   -0.00243   -0.02114
 14 Li    0.00735    0.00161   -0.03181
 15 Li    0.01303    0.01546   -0.00836
 16 Li   -0.00894    0.00443    0.10037
 17 Li    0.00905    0.00734    0.09879
 18 Li    0.00027   -0.01797   -0.03328
 19 Li   -0.00461   -0.05801   -0.11549
 20 Li    0.00405    0.00155   -0.03066
 21 Li   -0.00186    0.00235   -0.00075
 22 Li   -0.00805   -0.01959   -0.00114
 23 Li   -0.00356    0.02870   -0.00687
 24 Li    0.00520   -0.00392    0.08501
 25 Li    0.00335    0.00474    0.08753
 26 Li   -0.00355   -0.00093   -0.07285
 27 Li    0.00563    0.00835   -0.07663
 28 Li   -0.01198    0.00589    0.02696
 29 Li    0.00096   -0.00232   -0.01169
 30 Li    0.01053   -0.00066   -0.01140
 31 Li    0.03101    0.03071   -0.01006
 32 Li    0.00933    0.00318    0.08313
 33 Li    0.00746    0.01035    0.06476
 34 Li    0.00047    0.00020   -0.07078
 35 Li    0.00395    0.00041   -0.03516
 36 Li   -0.00344   -0.00525   -0.00739
 37 Li    0.00132    0.00444   -0.00412
 38 Li    0.00304    0.00402   -0.00216
 39 Li    0.00507    0.00515   -0.00363
 40 Li    0.02211    0.00073    0.08210
 41 Li    0.00509   -0.01528    0.07195
 42 Li    0.00076    0.00046   -0.07050
 43 Li    0.00766   -0.00939   -0.06781
 44 Li    0.00361   -0.00308    0.00356
 45 Li    0.00004   -0.00294   -0.00748
 46 Li    0.00146   -0.00419   -0.00559
 47 Li    0.03796   -0.03465   -0.03480
 48 Li   -0.00607   -0.00827    0.08520
 49 Li   -0.00169    0.00221    0.08844
 50 Li   -0.00896   -0.01606   -0.07762
 51 Li    0.00455    0.00079   -0.07054
 52 Li    0.00072    0.00606   -0.00614
 53 Li   -0.00787   -0.00051    0.02764
 54 Li    0.00315   -0.03795    0.00213
 55 Li   -0.02182   -0.00064   -0.01841
 56 Li   -0.00765    0.01128    0.07868
 57 Li   -0.01943   -0.00094    0.08941
 58 Li   -0.00942    0.01620   -0.07452
 59 Li   -0.00348    0.00071   -0.06508
 60 Li   -0.00078   -0.00420   -0.00554
 61 Li    0.00925    0.00276   -0.00270
 62 Li   -0.02773    0.03771   -0.02795
 63 Li   -0.00447    0.00857   -0.00531
 64 Li   -0.01501   -0.00293    0.06874
 65 Li   -0.01299   -0.00116    0.08747
 66 Li    0.00045    0.00058   -0.01068
 67 Li   -0.00341   -0.00148   -0.06566
 68 Li   -0.00380   -0.00110    0.00268
 69 Li    0.01007    0.00239   -0.01240
 70 Li   -0.00107   -0.00225    0.00506
 71 Li   -0.00480   -0.00565   -0.00176
 72 Li   -0.01263   -0.03706    0.19399

System changes: positions 

Initializing position-dependent things.

Density initialized from wave functions
       .-----------------------------------.  
      /|                                   |  
     / |                                   |  
    /  |                                   |  
   /   |                                   |  
  /    |                                   |  
 *     |                                   |  
 |     |                                   |  
 |     |                                   |  
 |     |                                   |  
 |     |                                   |  
 |     |                                   |  
 |     |                                   |  
 |    Li                                   |  
 |     |          Li          Li           |  
 |  Li |   Li          Li          Li      |  
 |  Li Li       Li          Li      Li     |  
 |     | Li Li       Li Li       Li      Li|  
 |Li   |  Li  Li Li       Li LiLi          |  
 |     Li          Li Li          Li       |  
 |    Li       Li Li       Li Li       Li  |  
 |     |Li Li       Li Li       Li Li      |  
 |  Li |     Li Li       Li Li             |  
 |     | Li Li       Li Li       Li Li     |  
 |Li Li|      Li Li       Li Li            |  
 |     Li Li       Li Li       Li Li       |  
 | Li  |       Li          Li              |  
 |     |Li          Li          Li         |  
 Li    |     Li          Li                |  
 |     |                                   |  
 |     |                                   |  
 |     |                                   |  
 |     |                                   |  
 |     |                                   |  
 |     .-----------------------------------.  
 |    /                                   /   
 |   /                                   /    
 |  /                                   /     
 | /                                   /      
 |/                                   /       
 *-----------------------------------*        

Atomic positions and initial magnetic moments

Positions:
   0 Li     0.000000    0.000000   10.000000    ( 0.0000,  0.0000,  0.0000)
   1 Li     2.467803    1.745000   10.000000    ( 0.0000,  0.0000,  0.0000)
   2 Li     2.467803    0.000000   12.467803    ( 0.0000,  0.0000,  0.0000)
   3 Li     0.000000    1.745000   12.467803    ( 0.0000,  0.0000,  0.0000)
   4 Li     0.002357   -0.058095   14.758815    ( 0.0000,  0.0000,  0.0000)
   5 Li     2.459057    1.776177   14.798706    ( 0.0000,  0.0000,  0.0000)
   6 Li     2.401237    0.081872   17.157780    ( 0.0000,  0.0000,  0.0000)
   7 Li     0.025750    1.708581   16.911562    ( 0.0000,  0.0000,  0.0000)
   8 Li     0.000000    3.490000   10.000000    ( 0.0000,  0.0000,  0.0000)
   9 Li     2.467803    5.235000   10.000000    ( 0.0000,  0.0000,  0.0000)
  10 Li     2.467803    3.490000   12.467803    ( 0.0000,  0.0000,  0.0000)
  11 Li     0.000000    5.235000   12.467803    ( 0.0000,  0.0000,  0.0000)
  12 Li    -0.007005    3.536336   14.791290    ( 0.0000,  0.0000,  0.0000)
  13 Li     2.480677    5.211882   14.937678    ( 0.0000,  0.0000,  0.0000)
  14 Li     2.392708    3.362160   17.371890    ( 0.0000,  0.0000,  0.0000)
  15 Li     0.019713    5.162581   17.311209    ( 0.0000,  0.0000,  0.0000)
  16 Li     0.000000    6.980000   10.000000    ( 0.0000,  0.0000,  0.0000)
  17 Li     2.467803    8.725000   10.000000    ( 0.0000,  0.0000,  0.0000)
  18 Li     2.467803    6.980000   12.467803    ( 0.0000,  0.0000,  0.0000)
  19 Li     0.000000    8.725000   12.467803    ( 0.0000,  0.0000,  0.0000)
  20 Li    -0.006025    6.993037   14.944639    ( 0.0000,  0.0000,  0.0000)
  21 Li     2.481278    8.717670   14.858526    ( 0.0000,  0.0000,  0.0000)
  22 Li     2.429272    7.016817   17.295004    ( 0.0000,  0.0000,  0.0000)
  23 Li     0.038313    8.848569   17.350255    ( 0.0000,  0.0000,  0.0000)
  24 Li     4.935605    0.000000   10.000000    ( 0.0000,  0.0000,  0.0000)
  25 Li     7.403408    1.745000   10.000000    ( 0.0000,  0.0000,  0.0000)
  26 Li     7.403408    0.000000   12.467803    ( 0.0000,  0.0000,  0.0000)
  27 Li     4.935605    1.745000   12.467803    ( 0.0000,  0.0000,  0.0000)
  28 Li     4.937566    0.002165   14.858281    ( 0.0000,  0.0000,  0.0000)
  29 Li     7.406512    1.744424   14.867279    ( 0.0000,  0.0000,  0.0000)
  30 Li     7.392774    0.000419   17.216500    ( 0.0000,  0.0000,  0.0000)
  31 Li     4.874443    1.702468   17.284535    ( 0.0000,  0.0000,  0.0000)
  32 Li     4.935605    3.490000   10.000000    ( 0.0000,  0.0000,  0.0000)
  33 Li     7.403408    5.235000   10.000000    ( 0.0000,  0.0000,  0.0000)
  34 Li     7.403408    3.490000   12.467803    ( 0.0000,  0.0000,  0.0000)
  35 Li     4.935605    5.235000   12.467803    ( 0.0000,  0.0000,  0.0000)
  36 Li     4.948499    3.475795   14.884698    ( 0.0000,  0.0000,  0.0000)
  37 Li     7.401659    5.237341   14.859263    ( 0.0000,  0.0000,  0.0000)
  38 Li     7.382751    3.478982   17.219752    ( 0.0000,  0.0000,  0.0000)
  39 Li     4.875852    5.213765   17.247769    ( 0.0000,  0.0000,  0.0000)
  40 Li     4.935605    6.980000   10.000000    ( 0.0000,  0.0000,  0.0000)
  41 Li     7.403408    8.725000   10.000000    ( 0.0000,  0.0000,  0.0000)
  42 Li     7.403408    6.980000   12.467803    ( 0.0000,  0.0000,  0.0000)
  43 Li     4.935605    8.725000   12.467803    ( 0.0000,  0.0000,  0.0000)
  44 Li     4.938876    6.992012   14.889561    ( 0.0000,  0.0000,  0.0000)
  45 Li     7.406405    8.723429   14.856448    ( 0.0000,  0.0000,  0.0000)
  46 Li     7.382569    6.990634   17.225214    ( 0.0000,  0.0000,  0.0000)
  47 Li     4.858264    8.789666   17.284117    ( 0.0000,  0.0000,  0.0000)
  48 Li     9.871211    0.000000   10.000000    ( 0.0000,  0.0000,  0.0000)
  49 Li    12.339013    1.745000   10.000000    ( 0.0000,  0.0000,  0.0000)
  50 Li    12.339013    0.000000   12.467803    ( 0.0000,  0.0000,  0.0000)
  51 Li     9.871211    1.745000   12.467803    ( 0.0000,  0.0000,  0.0000)
  52 Li     9.864328    0.002239   14.864192    ( 0.0000,  0.0000,  0.0000)
  53 Li    12.346408    1.744710   14.852725    ( 0.0000,  0.0000,  0.0000)
  54 Li    12.426612    0.086965   17.341925    ( 0.0000,  0.0000,  0.0000)
  55 Li     9.893780    1.745308   17.221490    ( 0.0000,  0.0000,  0.0000)
  56 Li     9.871211    3.490000   10.000000    ( 0.0000,  0.0000,  0.0000)
  57 Li    12.339013    5.235000   10.000000    ( 0.0000,  0.0000,  0.0000)
  58 Li    12.339013    3.490000   12.467803    ( 0.0000,  0.0000,  0.0000)
  59 Li     9.871211    5.235000   12.467803    ( 0.0000,  0.0000,  0.0000)
  60 Li     9.864119    3.488808   14.858407    ( 0.0000,  0.0000,  0.0000)
  61 Li    12.327958    5.212396   14.913053    ( 0.0000,  0.0000,  0.0000)
  62 Li    12.432583    3.392023   17.340655    ( 0.0000,  0.0000,  0.0000)
  63 Li     9.913014    5.214051   17.227873    ( 0.0000,  0.0000,  0.0000)
  64 Li     9.871211    6.980000   10.000000    ( 0.0000,  0.0000,  0.0000)
  65 Li    12.339013    8.725000   10.000000    ( 0.0000,  0.0000,  0.0000)
  66 Li    12.339013    6.980000   12.467803    ( 0.0000,  0.0000,  0.0000)
  67 Li     9.871211    8.725000   12.467803    ( 0.0000,  0.0000,  0.0000)
  68 Li     9.874159    6.979277   14.862886    ( 0.0000,  0.0000,  0.0000)
  69 Li    12.323201    8.749093   14.908899    ( 0.0000,  0.0000,  0.0000)
  70 Li    12.396630    6.992238   17.263998    ( 0.0000,  0.0000,  0.0000)
  71 Li     9.912595    8.746446   17.225449    ( 0.0000,  0.0000,  0.0000)
  72 Li     0.824237    1.158239   19.333024    ( 0.0000,  0.0000,  0.0000)

Unit cell:
           periodic     x           y           z      points  spacing
  1. axis:    yes   14.806816    0.000000    0.000000    76     0.1948
  2. axis:    yes    0.000000   10.470000    0.000000    52     0.2013
  3. axis:    no     0.000000    0.000000   27.403408   136     0.2015

  Lengths:  14.806816  10.470000  27.403408
  Angles:   90.000000  90.000000  90.000000

Effective grid spacing dv^(1/3) = 0.1992

     iter     time        total  log10-change:
                         energy   eigst   dens
iter:   1 05:36:53  -127.068536        c
iter:   2 05:37:04  -127.068785        c -3.09
iter:   3 05:37:15  -127.069040c       c -3.26
iter:   4 05:37:26  -127.069356c       c -3.53
iter:   5 05:37:38  -127.069252c       c -3.70
iter:   6 05:37:49  -127.069192c       c -3.98
iter:   7 05:38:00  -127.069189c       c -4.07c

Converged after 7 iterations.

Dipole moment: (-17.274166, -10.714305, 0.288761) |e|*Ang

Energy contributions relative to reference atoms: (reference = -14803.510878)

Kinetic:       +134.883967
Potential:     -115.897968
External:        +0.000000
XC:            -144.095147
Entropy (-ST):   -2.108064
Local:           -0.906009
SIC:             +0.000000
--------------------------
Free energy:   -128.123221
Extrapolated:  -127.069189

 Band  Eigenvalues  Occupancy
    0     -6.37888    2.00000
    1     -5.86626    2.00000
    2     -5.85315    2.00000
    3     -5.79354    2.00000
    4     -5.34013    2.00000
    5     -5.33257    2.00000
    6     -5.27170    2.00000
    7     -5.25107    2.00000
    8     -4.83622    2.00000
    9     -4.82576    1.99999
   10     -4.81558    1.99999
   11     -4.81177    1.99999
   12     -4.77148    1.99999
   13     -4.74224    1.99999
   14     -4.68480    1.99999
   15     -4.32185    1.99985
   16     -4.30351    1.99983
   17     -4.26964    1.99978
   18     -4.24640    1.99975
   19     -4.23208    1.99972
   20     -4.22303    1.99970
   21     -4.15794    1.99954
   22     -4.11477    1.99939
   23     -3.72708    1.99191
   24     -3.66720    1.98796
   25     -3.64992    1.98650
   26     -3.63427    1.98502
   27     -3.42974    1.94269
   28     -3.25915    1.83153
   29     -3.25609    1.82836
   30     -3.25410    1.82626
   31     -3.24679    1.81838
   32     -3.16839    1.71166
   33     -3.16151    1.70016
   34     -3.14467    1.67039
   35     -3.13359    1.64955
   36     -2.85691    0.85333
   37     -2.74425    0.51978
   38     -2.67566    0.36372
   39     -2.66897    0.35063
   40     -2.65525    0.32497
   41     -2.64934    0.31438
   42     -2.47958    0.11347
   43     -2.47273    0.10868
   44     -2.35363    0.05063
   45     -2.33055    0.04357
   46     -2.21718    0.02070
   47     -2.07876    0.00828

Fermi level: -2.90123

Gap: 0.277 eV
Transition (v -> c):
  (s=0, k=0, n=35, [0.00, 0.00, 0.00]) -> (s=0, k=0, n=36, [0.00, 0.00, 0.00])
No difference between direct/indirect transitions

Forces in eV/Ang:
  0 Li   -0.00113    0.00616    0.09964
  1 Li    0.00099   -0.00026    0.09588
  2 Li    0.00699   -0.01914   -0.08297
  3 Li   -0.00326    0.01214   -0.07286
  4 Li   -0.00288   -0.01600   -0.00727
  5 Li    0.02177   -0.00138    0.00541
  6 Li    0.07260   -0.06920   -0.05573
  7 Li   -0.08919    0.08226   -0.18128
  8 Li   -0.00301   -0.01077    0.10225
  9 Li    0.01352   -0.00687    0.09812
 10 Li    0.00757    0.04053   -0.09649
 11 Li   -0.00183    0.04252   -0.08271
 12 Li   -0.00466    0.02083   -0.01929
 13 Li   -0.01223   -0.00249   -0.02011
 14 Li    0.00538    0.00017   -0.03085
 15 Li    0.01186    0.01510   -0.00928
 16 Li   -0.00887    0.00447    0.10018
 17 Li    0.00894    0.00737    0.09881
 18 Li    0.00033   -0.01783   -0.03357
 19 Li   -0.00457   -0.05785   -0.11627
 20 Li    0.00406    0.00212   -0.02852
 21 Li   -0.00159    0.00011   -0.00253
 22 Li   -0.00727   -0.01789   -0.00178
 23 Li   -0.00198    0.02643   -0.00759
 24 Li    0.00514   -0.00380    0.08493
 25 Li    0.00332    0.00472    0.08742
 26 Li   -0.00366   -0.00097   -0.07296
 27 Li    0.00572    0.00797   -0.07645
 28 Li   -0.01073    0.00556    0.02455
 29 Li    0.00082   -0.00210   -0.01132
 30 Li    0.00995   -0.00092   -0.01118
 31 Li    0.03088    0.02940   -0.00944
 32 Li    0.00926    0.00306    0.08307
 33 Li    0.00742    0.01022    0.06485
 34 Li    0.00041    0.00026   -0.07089
 35 Li    0.00390    0.00048   -0.03507
 36 Li   -0.00314   -0.00442   -0.00722
 37 Li    0.00109    0.00396   -0.00396
 38 Li    0.00349    0.00453   -0.00248
 39 Li    0.00485    0.00453   -0.00369
 40 Li    0.02203    0.00073    0.08219
 41 Li    0.00510   -0.01513    0.07207
 42 Li    0.00080    0.00042   -0.07072
 43 Li    0.00771   -0.00912   -0.06712
 44 Li    0.00307   -0.00332    0.00232
 45 Li    0.00001   -0.00264   -0.00705
 46 Li    0.00210   -0.00431   -0.00569
 47 Li    0.03769   -0.03480   -0.03330
 48 Li   -0.00602   -0.00813    0.08513
 49 Li   -0.00172    0.00217    0.08844
 50 Li   -0.00909   -0.01564   -0.07749
 51 Li    0.00458    0.00078   -0.07067
 52 Li    0.00068    0.00524   -0.00628
 53 Li   -0.00913   -0.00068    0.02400
 54 Li    0.00112   -0.03547    0.00221
 55 Li   -0.01997   -0.00071   -0.01754
 56 Li   -0.00764    0.01112    0.07865
 57 Li   -0.01933   -0.00098    0.08946
 58 Li   -0.00958    0.01592   -0.07417
 59 Li   -0.00341    0.00074   -0.06497
 60 Li   -0.00082   -0.00355   -0.00554
 61 Li    0.00872    0.00281   -0.00294
 62 Li   -0.02902    0.03789   -0.02678
 63 Li   -0.00488    0.00847   -0.00535
 64 Li   -0.01495   -0.00289    0.06883
 65 Li   -0.01285   -0.00108    0.08747
 66 Li    0.00038    0.00051   -0.01082
 67 Li   -0.00332   -0.00149   -0.06546
 68 Li   -0.00314   -0.00091    0.00224
 69 Li    0.00942    0.00203   -0.01138
 70 Li   -0.00067   -0.00154    0.00462
 71 Li   -0.00473   -0.00569   -0.00194
 72 Li   -0.01593   -0.03413    0.15821

System changes: positions 

Initializing position-dependent things.

Density initialized from wave functions
       .-----------------------------------.  
      /|                                   |  
     / |                                   |  
    /  |                                   |  
   /   |                                   |  
  /    |                                   |  
 *     |                                   |  
 |     |                                   |  
 |     |                                   |  
 |     |                                   |  
 |     |                                   |  
 |     |                                   |  
 |     |                                   |  
 |    Li                                   |  
 |     |          Li          Li           |  
 |  Li |   Li          Li          Li      |  
 |  Li Li       Li          Li      Li     |  
 |     | Li Li       Li Li       Li      Li|  
 |Li   |  Li  Li Li       Li LiLi          |  
 |     Li          Li Li          Li       |  
 |    Li       Li Li       Li Li       Li  |  
 |     |Li Li       Li Li       Li Li      |  
 |  Li |     Li Li       Li Li             |  
 |     | Li Li       Li Li       Li Li     |  
 |Li Li|      Li Li       Li Li            |  
 |     Li Li       Li Li       Li Li       |  
 | Li  |       Li          Li              |  
 |     |Li          Li          Li         |  
 Li    |     Li          Li                |  
 |     |                                   |  
 |     |                                   |  
 |     |                                   |  
 |     |                                   |  
 |     |                                   |  
 |     .-----------------------------------.  
 |    /                                   /   
 |   /                                   /    
 |  /                                   /     
 | /                                   /      
 |/                                   /       
 *-----------------------------------*        

Atomic positions and initial magnetic moments

Positions:
   0 Li     0.000000    0.000000   10.000000    ( 0.0000,  0.0000,  0.0000)
   1 Li     2.467803    1.745000   10.000000    ( 0.0000,  0.0000,  0.0000)
   2 Li     2.467803    0.000000   12.467803    ( 0.0000,  0.0000,  0.0000)
   3 Li     0.000000    1.745000   12.467803    ( 0.0000,  0.0000,  0.0000)
   4 Li     0.002155   -0.058779   14.758754    ( 0.0000,  0.0000,  0.0000)
   5 Li     2.460288    1.776125   14.799082    ( 0.0000,  0.0000,  0.0000)
   6 Li     2.405903    0.077534   17.153971    ( 0.0000,  0.0000,  0.0000)
   7 Li     0.019902    1.713708   16.899661    ( 0.0000,  0.0000,  0.0000)
   8 Li     0.000000    3.490000   10.000000    ( 0.0000,  0.0000,  0.0000)
   9 Li     2.467803    5.235000   10.000000    ( 0.0000,  0.0000,  0.0000)
  10 Li     2.467803    3.490000   12.467803    ( 0.0000,  0.0000,  0.0000)
  11 Li     0.000000    5.235000   12.467803    ( 0.0000,  0.0000,  0.0000)
  12 Li    -0.007287    3.537078   14.790749    ( 0.0000,  0.0000,  0.0000)
  13 Li     2.479989    5.211772   14.936571    ( 0.0000,  0.0000,  0.0000)
  14 Li     2.393169    3.362278   17.370186    ( 0.0000,  0.0000,  0.0000)
  15 Li     0.020427    5.163433   17.310762    ( 0.0000,  0.0000,  0.0000)
  16 Li     0.000000    6.980000   10.000000    ( 0.0000,  0.0000,  0.0000)
  17 Li     2.467803    8.725000   10.000000    ( 0.0000,  0.0000,  0.0000)
  18 Li     2.467803    6.980000   12.467803    ( 0.0000,  0.0000,  0.0000)
  19 Li     0.000000    8.725000   12.467803    ( 0.0000,  0.0000,  0.0000)
  20 Li    -0.005822    6.993125   14.943010    ( 0.0000,  0.0000,  0.0000)
  21 Li     2.481169    8.717770   14.858417    ( 0.0000,  0.0000,  0.0000)
  22 Li     2.428867    7.015824   17.294970    ( 0.0000,  0.0000,  0.0000)
  23 Li     0.038152    8.850098   17.349929    ( 0.0000,  0.0000,  0.0000)
  24 Li     4.935605    0.000000   10.000000    ( 0.0000,  0.0000,  0.0000)
  25 Li     7.403408    1.745000   10.000000    ( 0.0000,  0.0000,  0.0000)
  26 Li     7.403408    0.000000   12.467803    ( 0.0000,  0.0000,  0.0000)
  27 Li     4.935605    1.745000   12.467803    ( 0.0000,  0.0000,  0.0000)
  28 Li     4.936919    0.002475   14.859705    ( 0.0000,  0.0000,  0.0000)
  29 Li     7.406567    1.744298   14.866662    ( 0.0000,  0.0000,  0.0000)
  30 Li     7.393316    0.000389   17.215909    ( 0.0000,  0.0000,  0.0000)
  31 Li     4.876019    1.704024   17.284074    ( 0.0000,  0.0000,  0.0000)
  32 Li     4.935605    3.490000   10.000000    ( 0.0000,  0.0000,  0.0000)
  33 Li     7.403408    5.235000   10.000000    ( 0.0000,  0.0000,  0.0000)
  34 Li     7.403408    3.490000   12.467803    ( 0.0000,  0.0000,  0.0000)
  35 Li     4.935605    5.235000   12.467803    ( 0.0000,  0.0000,  0.0000)
  36 Li     4.948321    3.475497   14.884338    ( 0.0000,  0.0000,  0.0000)
  37 Li     7.401727    5.237576   14.859053    ( 0.0000,  0.0000,  0.0000)
  38 Li     7.382878    3.479169   17.219651    ( 0.0000,  0.0000,  0.0000)
  39 Li     4.876121    5.214054   17.247600    ( 0.0000,  0.0000,  0.0000)
  40 Li     4.935605    6.980000   10.000000    ( 0.0000,  0.0000,  0.0000)
  41 Li     7.403408    8.725000   10.000000    ( 0.0000,  0.0000,  0.0000)
  42 Li     7.403408    6.980000   12.467803    ( 0.0000,  0.0000,  0.0000)
  43 Li     4.935605    8.725000   12.467803    ( 0.0000,  0.0000,  0.0000)
  44 Li     4.939081    6.991869   14.889790    ( 0.0000,  0.0000,  0.0000)
  45 Li     7.406410    8.723276   14.856056    ( 0.0000,  0.0000,  0.0000)
  46 Li     7.382610    6.990431   17.224928    ( 0.0000,  0.0000,  0.0000)
  47 Li     4.860217    8.787908   17.282357    ( 0.0000,  0.0000,  0.0000)
  48 Li     9.871211    0.000000   10.000000    ( 0.0000,  0.0000,  0.0000)
  49 Li    12.339013    1.745000   10.000000    ( 0.0000,  0.0000,  0.0000)
  50 Li    12.339013    0.000000   12.467803    ( 0.0000,  0.0000,  0.0000)
  51 Li     9.871211    1.745000   12.467803    ( 0.0000,  0.0000,  0.0000)
  52 Li     9.864370    0.002565   14.863877    ( 0.0000,  0.0000,  0.0000)
  53 Li    12.346009    1.744684   14.854220    ( 0.0000,  0.0000,  0.0000)
  54 Li    12.426768    0.084902   17.341958    ( 0.0000,  0.0000,  0.0000)
  55 Li     9.892606    1.745275   17.220514    ( 0.0000,  0.0000,  0.0000)
  56 Li     9.871211    3.490000   10.000000    ( 0.0000,  0.0000,  0.0000)
  57 Li    12.339013    5.235000   10.000000    ( 0.0000,  0.0000,  0.0000)
  58 Li    12.339013    3.490000   12.467803    ( 0.0000,  0.0000,  0.0000)
  59 Li     9.871211    5.235000   12.467803    ( 0.0000,  0.0000,  0.0000)
  60 Li     9.864084    3.488583   14.858115    ( 0.0000,  0.0000,  0.0000)
  61 Li    12.328456    5.212554   14.912887    ( 0.0000,  0.0000,  0.0000)
  62 Li    12.431138    3.394026   17.339111    ( 0.0000,  0.0000,  0.0000)
  63 Li     9.912761    5.214512   17.227591    ( 0.0000,  0.0000,  0.0000)
  64 Li     9.871211    6.980000   10.000000    ( 0.0000,  0.0000,  0.0000)
  65 Li    12.339013    8.725000   10.000000    ( 0.0000,  0.0000,  0.0000)
  66 Li    12.339013    6.980000   12.467803    ( 0.0000,  0.0000,  0.0000)
  67 Li     9.871211    8.725000   12.467803    ( 0.0000,  0.0000,  0.0000)
[...]
 48 Li   -0.00600   -0.00780    0.08456
 49 Li   -0.00195    0.00206    0.08815
 50 Li   -0.00945   -0.01457   -0.07714
 51 Li    0.00464    0.00073   -0.07107
 52 Li    0.00063    0.00301   -0.00643
 53 Li   -0.01202   -0.00105    0.01468
 54 Li   -0.00401   -0.02870    0.00221
 55 Li   -0.01510   -0.00087   -0.01495
 56 Li   -0.00777    0.01070    0.07823
 57 Li   -0.01917   -0.00101    0.08927
 58 Li   -0.00999    0.01517   -0.07321
 59 Li   -0.00333    0.00090   -0.06496
 60 Li   -0.00083   -0.00180   -0.00529
 61 Li    0.00711    0.00317   -0.00353
 62 Li   -0.03175    0.03793   -0.02365
 63 Li   -0.00596    0.00824   -0.00534
 64 Li   -0.01492   -0.00278    0.06878
 65 Li   -0.01262   -0.00093    0.08716
 66 Li    0.00016    0.00031   -0.01129
 67 Li   -0.00314   -0.00157   -0.06523
 68 Li   -0.00137   -0.00038    0.00123
 69 Li    0.00753    0.00104   -0.00860
 70 Li    0.00032    0.00024    0.00345
 71 Li   -0.00461   -0.00570   -0.00229
 72 Li   -0.02333   -0.02746    0.07528

System changes: positions 

Initializing position-dependent things.

Density initialized from wave functions
       .-----------------------------------.  
      /|                                   |  
     / |                                   |  
    /  |                                   |  
   /   |                                   |  
  /    |                                   |  
 *     |                                   |  
 |     |                                   |  
 |     |                                   |  
 |     |                                   |  
 |     |                                   |  
 |     |                                   |  
 |     |                                   |  
 |    Li                                   |  
 |     |          Li          Li           |  
 |  Li |   Li          Li          Li      |  
 |  Li Li       Li          Li      Li     |  
 |     | Li Li       Li Li       Li      Li|  
 |Li   |  Li  Li Li       Li LiLi          |  
 |     Li          Li Li          Li       |  
 |    Li       Li Li       Li Li       Li  |  
 |     |Li Li       Li Li       Li Li      |  
 |  Li |     Li Li       Li Li             |  
 |     | Li Li       Li Li       Li Li     |  
 |Li Li|      Li Li       Li Li            |  
 |     Li Li       Li Li       Li Li       |  
 | Li  |       Li          Li              |  
 |     |Li          Li          Li         |  
 Li    |     Li          Li                |  
 |     |                                   |  
 |     |                                   |  
 |     |                                   |  
 |     |                                   |  
 |     |                                   |  
 |     .-----------------------------------.  
 |    /                                   /   
 |   /                                   /    
 |  /                                   /     
 | /                                   /      
 |/                                   /       
 *-----------------------------------*        

Atomic positions and initial magnetic moments

Positions:
   0 Li     0.000000    0.000000   10.000000    ( 0.0000,  0.0000,  0.0000)
   1 Li     2.467803    1.745000   10.000000    ( 0.0000,  0.0000,  0.0000)
   2 Li     2.467803    0.000000   12.467803    ( 0.0000,  0.0000,  0.0000)
   3 Li     0.000000    1.745000   12.467803    ( 0.0000,  0.0000,  0.0000)
   4 Li     0.001736   -0.060923   14.757963    ( 0.0000,  0.0000,  0.0000)
   5 Li     2.463435    1.776013   14.799781    ( 0.0000,  0.0000,  0.0000)
   6 Li     2.416831    0.067170   17.144956    ( 0.0000,  0.0000,  0.0000)
   7 Li     0.006639    1.725739   16.873189    ( 0.0000,  0.0000,  0.0000)
   8 Li     0.000000    3.490000   10.000000    ( 0.0000,  0.0000,  0.0000)
   9 Li     2.467803    5.235000   10.000000    ( 0.0000,  0.0000,  0.0000)
  10 Li     2.467803    3.490000   12.467803    ( 0.0000,  0.0000,  0.0000)
  11 Li     0.000000    5.235000   12.467803    ( 0.0000,  0.0000,  0.0000)
  12 Li    -0.007983    3.539833   14.788342    ( 0.0000,  0.0000,  0.0000)
  13 Li     2.478206    5.211456   14.933679    ( 0.0000,  0.0000,  0.0000)
  14 Li     2.394121    3.362371   17.365645    ( 0.0000,  0.0000,  0.0000)
  15 Li     0.022197    5.165715   17.309380    ( 0.0000,  0.0000,  0.0000)
  16 Li     0.000000    6.980000   10.000000    ( 0.0000,  0.0000,  0.0000)
  17 Li     2.467803    8.725000   10.000000    ( 0.0000,  0.0000,  0.0000)
  18 Li     2.467803    6.980000   12.467803    ( 0.0000,  0.0000,  0.0000)
  19 Li     0.000000    8.725000   12.467803    ( 0.0000,  0.0000,  0.0000)
  20 Li    -0.005259    6.993454   14.938863    ( 0.0000,  0.0000,  0.0000)
  21 Li     2.480920    8.717697   14.857862    ( 0.0000,  0.0000,  0.0000)
  22 Li     2.427873    7.013340   17.294765    ( 0.0000,  0.0000,  0.0000)
  23 Li     0.037945    8.853952   17.348903    ( 0.0000,  0.0000,  0.0000)
  24 Li     4.935605    0.000000   10.000000    ( 0.0000,  0.0000,  0.0000)
  25 Li     7.403408    1.745000   10.000000    ( 0.0000,  0.0000,  0.0000)
  26 Li     7.403408    0.000000   12.467803    ( 0.0000,  0.0000,  0.0000)
  27 Li     4.935605    1.745000   12.467803    ( 0.0000,  0.0000,  0.0000)
  28 Li     4.935340    0.003275   14.863255    ( 0.0000,  0.0000,  0.0000)
  29 Li     7.406692    1.743990   14.865025    ( 0.0000,  0.0000,  0.0000)
  30 Li     7.394723    0.000263   17.214316    ( 0.0000,  0.0000,  0.0000)
  31 Li     4.880356    1.708127   17.282884    ( 0.0000,  0.0000,  0.0000)
  32 Li     4.935605    3.490000   10.000000    ( 0.0000,  0.0000,  0.0000)
  33 Li     7.403408    5.235000   10.000000    ( 0.0000,  0.0000,  0.0000)
  34 Li     7.403408    3.490000   12.467803    ( 0.0000,  0.0000,  0.0000)
  35 Li     4.935605    5.235000   12.467803    ( 0.0000,  0.0000,  0.0000)
  36 Li     4.947880    3.474817   14.883368    ( 0.0000,  0.0000,  0.0000)
  37 Li     7.401880    5.238148   14.858498    ( 0.0000,  0.0000,  0.0000)
  38 Li     7.383311    3.479777   17.219321    ( 0.0000,  0.0000,  0.0000)
  39 Li     4.876831    5.214750   17.247121    ( 0.0000,  0.0000,  0.0000)
  40 Li     4.935605    6.980000   10.000000    ( 0.0000,  0.0000,  0.0000)
  41 Li     7.403408    8.725000   10.000000    ( 0.0000,  0.0000,  0.0000)
  42 Li     7.403408    6.980000   12.467803    ( 0.0000,  0.0000,  0.0000)
  43 Li     4.935605    8.725000   12.467803    ( 0.0000,  0.0000,  0.0000)
  44 Li     4.939556    6.991425   14.890212    ( 0.0000,  0.0000,  0.0000)
  45 Li     7.406417    8.722900   14.855048    ( 0.0000,  0.0000,  0.0000)
  46 Li     7.382839    6.989844   17.224126    ( 0.0000,  0.0000,  0.0000)
  47 Li     4.865578    8.783013   17.277715    ( 0.0000,  0.0000,  0.0000)
  48 Li     9.871211    0.000000   10.000000    ( 0.0000,  0.0000,  0.0000)
  49 Li    12.339013    1.745000   10.000000    ( 0.0000,  0.0000,  0.0000)
  50 Li    12.339013    0.000000   12.467803    ( 0.0000,  0.0000,  0.0000)
  51 Li     9.871211    1.745000   12.467803    ( 0.0000,  0.0000,  0.0000)
  52 Li     9.864478    0.003326   14.862987    ( 0.0000,  0.0000,  0.0000)
  53 Li    12.344711    1.744585   14.857764    ( 0.0000,  0.0000,  0.0000)
  54 Li    12.426881    0.079623   17.342086    ( 0.0000,  0.0000,  0.0000)
  55 Li     9.889665    1.745173   17.217964    ( 0.0000,  0.0000,  0.0000)
  56 Li     9.871211    3.490000   10.000000    ( 0.0000,  0.0000,  0.0000)
  57 Li    12.339013    5.235000   10.000000    ( 0.0000,  0.0000,  0.0000)
  58 Li    12.339013    3.490000   12.467803    ( 0.0000,  0.0000,  0.0000)
  59 Li     9.871211    5.235000   12.467803    ( 0.0000,  0.0000,  0.0000)
  60 Li     9.863979    3.488070   14.857315    ( 0.0000,  0.0000,  0.0000)
  61 Li    12.329738    5.213003   14.912399    ( 0.0000,  0.0000,  0.0000)
  62 Li    12.426945    3.399574   17.335056    ( 0.0000,  0.0000,  0.0000)
  63 Li     9.911999    5.215769   17.226809    ( 0.0000,  0.0000,  0.0000)
  64 Li     9.871211    6.980000   10.000000    ( 0.0000,  0.0000,  0.0000)
  65 Li    12.339013    8.725000   10.000000    ( 0.0000,  0.0000,  0.0000)
  66 Li    12.339013    6.980000   12.467803    ( 0.0000,  0.0000,  0.0000)
  67 Li     9.871211    8.725000   12.467803    ( 0.0000,  0.0000,  0.0000)
  68 Li     9.873485    6.979079   14.863344    ( 0.0000,  0.0000,  0.0000)
  69 Li    12.325107    8.749474   14.906484    ( 0.0000,  0.0000,  0.0000)
  70 Li    12.396472    6.991924   17.264869    ( 0.0000,  0.0000,  0.0000)
  71 Li     9.911571    8.745290   17.225052    ( 0.0000,  0.0000,  0.0000)
  72 Li     0.825017    1.148757   19.367536    ( 0.0000,  0.0000,  0.0000)

Unit cell:
           periodic     x           y           z      points  spacing
  1. axis:    yes   14.806816    0.000000    0.000000    76     0.1948
  2. axis:    yes    0.000000   10.470000    0.000000    52     0.2013
  3. axis:    no     0.000000    0.000000   27.403408   136     0.2015

  Lengths:  14.806816  10.470000  27.403408
  Angles:   90.000000  90.000000  90.000000

Effective grid spacing dv^(1/3) = 0.1992

     iter     time        total  log10-change:
                         energy   eigst   dens
iter:   1 06:05:28  -127.083211        c
iter:   2 06:05:39  -127.083558        c -2.89
iter:   3 06:05:51  -127.083963c       c -3.08
iter:   4 06:06:02  -127.084448c       c -3.41
iter:   5 06:06:14  -127.084262c       c -3.57
iter:   6 06:06:25  -127.084239c       c -3.84
iter:   7 06:06:35  -127.084245c       c -3.96
iter:   8 06:06:47  -127.084244c       c -4.08c

Converged after 8 iterations.

Dipole moment: (-16.927125, -10.450657, 0.303860) |e|*Ang

Energy contributions relative to reference atoms: (reference = -14803.510878)

Kinetic:       +134.695055
Potential:     -115.763750
External:        +0.000000
XC:            -144.056316
Entropy (-ST):   -2.108009
Local:           -0.905230
SIC:             +0.000000
--------------------------
Free energy:   -128.138249
Extrapolated:  -127.084244

 Band  Eigenvalues  Occupancy
    0     -6.37481    2.00000
    1     -5.86220    2.00000
    2     -5.84910    2.00000
    3     -5.78877    2.00000
    4     -5.33583    2.00000
    5     -5.32878    2.00000
    6     -5.26651    2.00000
    7     -5.24690    2.00000
    8     -4.83151    2.00000
    9     -4.82188    1.99999
   10     -4.81158    1.99999
   11     -4.80798    1.99999
   12     -4.76543    1.99999
   13     -4.73790    1.99999
   14     -4.68029    1.99999
   15     -4.31711    1.99985
   16     -4.29954    1.99983
   17     -4.26417    1.99978
   18     -4.24135    1.99974
   19     -4.22771    1.99972
   20     -4.21934    1.99970
   21     -4.15349    1.99954
   22     -4.10952    1.99939
   23     -3.72125    1.99186
   24     -3.66218    1.98795
   25     -3.64618    1.98660
   26     -3.62823    1.98491
   27     -3.42531    1.94287
   28     -3.25477    1.83208
   29     -3.25202    1.82923
   30     -3.24994    1.82706
   31     -3.24325    1.81988
   32     -3.16359    1.71184
   33     -3.15517    1.69772
   34     -3.13893    1.66889
   35     -3.12881    1.64981
   36     -2.85224    0.85414
   37     -2.73738    0.51479
   38     -2.67041    0.36306
   39     -2.66348    0.34954
   40     -2.65130    0.32671
   41     -2.64648    0.31803
   42     -2.47376    0.11282
   43     -2.46746    0.10843
   44     -2.35158    0.05158
   45     -2.32662    0.04385
   46     -2.21083    0.02051
   47     -2.07505    0.00834

Fermi level: -2.89632

Gap: 0.277 eV
Transition (v -> c):
  (s=0, k=0, n=35, [0.00, 0.00, 0.00]) -> (s=0, k=0, n=36, [0.00, 0.00, 0.00])
No difference between direct/indirect transitions

Forces in eV/Ang:
  0 Li   -0.00115    0.00572    0.09938
  1 Li    0.00127   -0.00021    0.09555
  2 Li    0.00745   -0.01911   -0.08223
  3 Li   -0.00346    0.01190   -0.06893
  4 Li    0.00070   -0.01988   -0.01947
  5 Li    0.01432   -0.00039   -0.00273
  6 Li    0.02792   -0.03083   -0.02160
  7 Li   -0.02337    0.03170   -0.03639
  8 Li   -0.00291   -0.01059    0.10234
  9 Li    0.01323   -0.00690    0.09757
 10 Li    0.00782    0.03954   -0.09793
 11 Li   -0.00181    0.04325   -0.08780
 12 Li   -0.00257    0.03523   -0.03815
 13 Li   -0.00885   -0.00231   -0.01531
 14 Li   -0.00120   -0.00448   -0.02684
 15 Li    0.00650    0.01275   -0.01330
 16 Li   -0.00866    0.00464    0.09903
 17 Li    0.00852    0.00741    0.09847
 18 Li    0.00053   -0.01741   -0.03531
 19 Li   -0.00451   -0.05757   -0.12044
 20 Li    0.00387    0.00424   -0.01923
 21 Li   -0.00020   -0.00858   -0.00910
 22 Li   -0.00350   -0.01062   -0.00459
 23 Li    0.00380    0.01676   -0.01062
 24 Li    0.00509   -0.00329    0.08425
 25 Li    0.00320    0.00469    0.08653
 26 Li   -0.00407   -0.00116   -0.07371
 27 Li    0.00619    0.00641   -0.07571
 28 Li   -0.00527    0.00398    0.01428
 29 Li    0.00001   -0.00110   -0.00923
 30 Li    0.00743   -0.00191   -0.00985
 31 Li    0.02895    0.02302   -0.00672
 32 Li    0.00914    0.00263    0.08246
 33 Li    0.00732    0.00972    0.06487
 34 Li    0.00016    0.00065   -0.07164
 35 Li    0.00391    0.00074   -0.03505
 36 Li   -0.00160   -0.00087   -0.00643
 37 Li    0.00011    0.00190   -0.00323
 38 Li    0.00536    0.00649   -0.00366
 39 Li    0.00396    0.00195   -0.00382
 40 Li    0.02185    0.00067    0.08213
 41 Li    0.00522   -0.01462    0.07216
 42 Li    0.00101    0.00014   -0.07203
 43 Li    0.00798   -0.00796   -0.06438
 44 Li    0.00086   -0.00458   -0.00273
 45 Li   -0.00031   -0.00142   -0.00501
 46 Li    0.00473   -0.00490   -0.00576
 47 Li    0.03534   -0.03440   -0.02650
 48 Li   -0.00591   -0.00764    0.08444
 49 Li   -0.00197    0.00200    0.08806
 50 Li   -0.00964   -0.01401   -0.07701
 51 Li    0.00458    0.00072   -0.07139
 52 Li    0.00055    0.00160   -0.00644
 53 Li   -0.01326   -0.00127    0.00936
 54 Li   -0.00646   -0.02436    0.00226
 55 Li   -0.01221   -0.00096   -0.01348
 56 Li   -0.00777    0.01051    0.07819
 57 Li   -0.01901   -0.00101    0.08926
 58 Li   -0.01026    0.01480   -0.07277
 59 Li   -0.00332    0.00102   -0.06494
 60 Li   -0.00090   -0.00067   -0.00512
 61 Li    0.00599    0.00356   -0.00393
 62 Li   -0.03253    0.03726   -0.02174
 63 Li   -0.00654    0.00814   -0.00541
 64 Li   -0.01484   -0.00273    0.06890
 65 Li   -0.01240   -0.00088    0.08710
 66 Li    0.00007    0.00020   -0.01164
 67 Li   -0.00305   -0.00166   -0.06507
 68 Li   -0.00039   -0.00009    0.00046
 69 Li    0.00628    0.00043   -0.00700
 70 Li    0.00088    0.00130    0.00272
 71 Li   -0.00447   -0.00565   -0.00257
 72 Li   -0.02645   -0.02439    0.03355

Timing:                                       incl.     excl.
--------------------------------------------------------------------
Basic WFS set positions:                      0.063     0.022   0.0% |
 Redistribute:                                0.041     0.041   0.0% |
Basis functions set positions:               13.367    13.367   0.2% |
Forces:                                     212.775     4.658   0.1% |
 LCAO forces:                               208.117     0.204   0.0% |
  Atomic Hamiltonian force:                   0.798     0.798   0.0% |
  Initial:                                    0.017     0.000   0.0% |
   Get density matrix:                        0.017     0.017   0.0% |
  Paw correction:                             0.789     0.789   0.0% |
  Potential:                                195.158   195.158   3.5% ||
  TCI derivative:                            11.151    11.151   0.2% |
  Wait for sum:                               0.000     0.000   0.0% |
LCAO WFS Initialize:                         66.498     0.217   0.0% |
 Density initialized from wave functions:    45.219    12.171   0.2% |
  Calculate density matrix:                   0.182     0.182   0.0% |
  Construct density:                         32.866    32.866   0.6% |
  Symmetrize density:                         0.001     0.001   0.0% |
 Hamiltonian:                                21.062     0.005   0.0% |
  Atomic:                                     5.618     0.023   0.0% |
   XC Correction:                             5.595     5.595   0.1% |
  Calculate atomic Hamiltonians:              0.376     0.376   0.0% |
  Communicate:                                0.000     0.000   0.0% |
  Hartree integrate/restrict:                 0.379     0.379   0.0% |
  Initialize Hamiltonian:                     0.000     0.000   0.0% |
  Poisson:                                    7.187     3.333   0.1% |
   Communicate from 1D:                       0.354     0.354   0.0% |
   Communicate from 2D:                       0.303     0.303   0.0% |
   Communicate to 1D:                         0.232     0.232   0.0% |
   Communicate to 2D:                         0.550     0.550   0.0% |
   FFT 1D:                                    1.089     1.089   0.0% |
   FFT 2D:                                    1.324     1.324   0.0% |
  XC 3D grid:                                 5.827     5.827   0.1% |
  vbar:                                       1.670     1.670   0.0% |
P tci:                                        3.469     3.469   0.1% |
Redistribute:                                 0.006     0.006   0.0% |
SCF-cycle:                                  718.621     0.113   0.0% |
 Density:                                   259.832     0.002   0.0% |
  Atomic density matrices:                    0.205     0.205   0.0% |
  Mix:                                       10.539    10.539   0.2% |
  Multipole moments:                          0.056     0.056   0.0% |
  Normalize:                                  0.024     0.024   0.0% |
  Pseudo density:                           249.006     0.180   0.0% |
   Calculate density matrix:                  0.028     0.028   0.0% |
   Construct density:                       248.792   248.792   4.5% |-|
   Symmetrize density:                        0.006     0.006   0.0% |
 Hamiltonian:                               113.654     0.008   0.0% |
  Atomic:                                    40.477     0.170   0.0% |
   XC Correction:                            40.307    40.307   0.7% |
  Calculate atomic Hamiltonians:              2.524     2.524   0.0% |
  Communicate:                                0.001     0.001   0.0% |
  Hartree integrate/restrict:                 1.142     1.142   0.0% |
  Poisson:                                   29.869     1.898   0.0% |
   Communicate from 1D:                       2.650     2.650   0.0% |
   Communicate from 2D:                       2.245     2.245   0.0% |
   Communicate to 1D:                         1.765     1.765   0.0% |
   Communicate to 2D:                         3.713     3.713   0.1% |
   FFT 1D:                                    7.886     7.886   0.1% |
   FFT 2D:                                    9.713     9.713   0.2% |
  XC 3D grid:                                38.209    38.209   0.7% |
  vbar:                                       1.424     1.424   0.0% |
 LCAO eigensolver:                          345.022     0.049   0.0% |
  Calculate projections:                      0.100     0.100   0.0% |
  DenseAtomicCorrection:                      1.231     1.231   0.0% |
  Distribute overlap matrix:                  0.007     0.007   0.0% |
  Orbital Layouts:                            2.227     2.227   0.0% |
  Potential matrix:                         341.408   341.408   6.1% |-|
ST tci:                                       2.362     2.362   0.0% |
Set symmetry:                                 0.001     0.001   0.0% |
TCI: Evaluate splines:                        0.021     0.021   0.0% |
mktci:                                        1.482     1.482   0.0% |
Other:                                     4543.807  4543.807  81.7% |--------------------------------|
--------------------------------------------------------------------
Total:                                               5562.472 100.0%

Memory usage: 3.67 GiB
Date: Wed Nov 26 06:16:31 2025
