
  ___ ___ ___ _ _ _  
 |   |   |_  | | | | 
 | | | | | . | | | | 
 |__ |  _|___|_____|  25.7.0
 |___|_|             

User:   tew@Mathuss-MacBook-Air-357.local
Date:   Wed Nov 26 04:43:48 2025
Arch:   arm64
Pid:    88448
CWD:    /Users/tew/Documents/Project/GitHub/chem-com
Python: 3.13.5
gpaw:   /Users/tew/Documents/Project/GitHub/chem-com/.venv/lib/python3.13/site-packages/gpaw
_gpaw:  /Users/tew/Documents/Project/GitHub/chem-com/.venv/lib/python3.13/site-packages/
        _gpaw.cpython-313-darwin.so
ase:    /Users/tew/Documents/Project/GitHub/chem-com/.venv/lib/python3.13/site-packages/ase (version 3.26.0)
numpy:  /Users/tew/Documents/Project/GitHub/chem-com/.venv/lib/python3.13/site-packages/numpy (version 2.3.5)
scipy:  /Users/tew/Documents/Project/GitHub/chem-com/.venv/lib/python3.13/site-packages/scipy (version 1.16.3)
libxc:  2.x.y
units:  Angstrom and eV
cores: 1
OpenMP: False
OMP_NUM_THREADS: 1

Input parameters:
  basis: dzp
  convergence: {density: 0.0001,
                eigenstates: 5e-06}
  kpts: [1 1 1]
  mode: {interpolation: 3,
         name: lcao}
  occupations: {fixmagmom: False,
                name: fermi-dirac,
                width: 0.15}
  xc: PBE

System changes: positions, numbers, cell, pbc, initial_charges, initial_magmoms 

Initialize ...

species:
  Li:
    name: Lithium
    id: 830b4218f175192f93f959cfc0aad614
    Z: 3.0
    valence: 1
    core: 2
    charge: 0.0
    file: /Users/tew/Documents/Project/GitHub/chem-com/.venv/lib/python3.13/site-packages/gpaw_data/setups/Li.PBE.gz
    compensation charges: {type: gauss,
                           rc: 0.33,
                           lmax: 2}
    cutoffs: {filter: 1.91,
              core: 2.55}
    projectors:
      #              energy  rcut
      - 2s(1.00)    -2.874   1.058
      - 2p(0.00)    -1.090   1.058
      -  s          24.337   1.058
  
    # LCAO basis set for Li:
    #   Name: dzp
    #   File: /Users/tew/Documents/Project/GitHub/chem-com/.venv/lib/python3.13/site-packages/gpaw_data/setups/Li.dzp.basis.gz
    #   Number of radial functions: 3
    #   Number of spherical harmonics: 5
    #     l=0, rc=10.8906 Bohr: 2s-sz confined orbital
    #     l=0, rc=6.6719 Bohr: 2s-dz split-valence wave
    #     l=1, rc=10.8906 Bohr: p-type Gaussian polarization
    #   Number of RI-basis functions 0

Reference energy: -14803.510878  # eV

Spin-paired calculation

Convergence criteria:
 Maximum [total energy] change in last 3 cyles: 0.0005 eV / valence electron
 Maximum integral of absolute [dens]ity change: 0.0001 electrons / valence electron
 Maximum integral of absolute [eigenst]ate change: 5e-06 eV^2 / valence electron
 Maximum number of scf [iter]ations: 333
 (Square brackets indicate name in SCF output, whereas a 'c' in
 the SCF output indicates the quantity has converged.)

Symmetries present (total): 1

  ( 1  0  0)
  ( 0  1  0)
  ( 0  0  1)

1 k-point (Gamma)
1 k-point in the irreducible part of the Brillouin zone
       k-points in crystal coordinates                weights
   0:     0.00000000    0.00000000    0.00000000          1/1

Wave functions: LCAO
  Diagonalizer: Serial LAPACK
  Atomic Correction: dense with blas
  Data-type: float
 

Occupation numbers: Fermi-Dirac:
  width: 0.1500  # eV
 

Eigensolver
   LCAO using direct dense diagonalizer 

Densities:
  Coarse grid: 76*52*136 grid
  Fine grid: 152*104*272 grid
  Total Charge: 0.000000 

Density mixing:
  Method: separate
  Backend: pulay
  Linear mixing parameter: 0.05
  old densities: 5
  Damping of long wavelength oscillations: 50 

Hamiltonian:
  XC and Coulomb potentials evaluated on a 152*104*272 grid
  Using the PBE Exchange-Correlation functional
  Interpolation: tri-quintic (5. degree polynomial)
  Poisson solver: FastPoissonSolver using
    Stencil: 6*3+1=19 point O(h^6) finite-difference Laplacian
    FFT axes: [np.int64(0), np.int64(1)]
    FST axes: [np.int64(2)]
 

XC parameters: PBE with 2 nearest neighbor stencil

Memory estimate:
  Process memory now: 3762.67 MiB
  Calculator: 680.35 MiB
    Density: 353.33 MiB
      Arrays: 106.19 MiB
      Localized functions: 206.43 MiB
      Mixer: 40.70 MiB
    Hamiltonian: 85.76 MiB
      Arrays: 69.44 MiB
      XC: 0.00 MiB
      Poisson: 0.00 MiB
      vbar: 16.32 MiB
    Wavefunctions: 241.26 MiB
      C [qnM]: 0.13 MiB
      S, T [2 x qmm]: 2.03 MiB
      P [aqMi]: 0.13 MiB
      BasisFunctions: 238.97 MiB
      Eigensolver: 0.00 MiB

Total number of cores used: 1

Number of atoms: 73
Number of atomic orbitals: 365
Number of bands in calculation: 48
Number of valence electrons: 73
Bands to converge: occupied

... initialized

Initializing position-dependent things.

Density initialized from atomic densities
       .-----------------------------------.  
      /|                                   |  
     / |                                   |  
    /  |                                   |  
   /   |                                   |  
  /    |                                   |  
 *     |                                   |  
 |     |                                   |  
 |     |                                   |  
 |     |                                   |  
 |     |                                   |  
 |     |                                   |  
 |     |                                   |  
 |    Li          Li                       |  
 |     |   Li                 Li           |  
 |     |               Li          Li      |  
 |  LLiLi       Li          Li             |  
 |     | Li Li       Li Li       Li Li   Li|  
 |Li   |  Li  Li Li       Li LiLi          |  
 |     Li          Li Li          Li       |  
 |    Li       Li Li       Li Li       Li  |  
 |     |Li Li       Li Li       Li Li      |  
 |  Li |     Li Li       Li Li             |  
 |     | Li Li       Li Li       Li Li     |  
 |Li Li|      Li Li       Li Li            |  
 |     Li Li       Li Li       Li Li       |  
 | Li  |       Li          Li              |  
 |     |Li          Li          Li         |  
 Li    |     Li          Li                |  
 |     |                                   |  
 |     |                                   |  
 |     |                                   |  
 |     |                                   |  
 |     |                                   |  
 |     .-----------------------------------.  
 |    /                                   /   
 |   /                                   /    
 |  /                                   /     
 | /                                   /      
 |/                                   /       
 *-----------------------------------*        

Atomic positions and initial magnetic moments

Positions:
   0 Li     0.000000    0.000000   10.000000    ( 0.0000,  0.0000,  0.0000)
   1 Li     2.467803    1.745000   10.000000    ( 0.0000,  0.0000,  0.0000)
   2 Li     2.467803    0.000000   12.467803    ( 0.0000,  0.0000,  0.0000)
   3 Li     0.000000    1.745000   12.467803    ( 0.0000,  0.0000,  0.0000)
   4 Li     0.004225   -0.042694   14.779146    ( 0.0000,  0.0000,  0.0000)
   5 Li     2.459109    1.791561   14.775457    ( 0.0000,  0.0000,  0.0000)
   6 Li     2.409596    0.068392   17.049656    ( 0.0000,  0.0000,  0.0000)
   7 Li     0.058140    1.674653   17.053371    ( 0.0000,  0.0000,  0.0000)
   8 Li     0.000000    3.490000   10.000000    ( 0.0000,  0.0000,  0.0000)
   9 Li     2.467803    5.235000   10.000000    ( 0.0000,  0.0000,  0.0000)
  10 Li     2.467803    3.490000   12.467803    ( 0.0000,  0.0000,  0.0000)
  11 Li     0.000000    5.235000   12.467803    ( 0.0000,  0.0000,  0.0000)
  12 Li    -0.009625    3.515063   14.828222    ( 0.0000,  0.0000,  0.0000)
  13 Li     2.478500    5.217814   14.942308    ( 0.0000,  0.0000,  0.0000)
  14 Li     2.410239    3.365708   17.363327    ( 0.0000,  0.0000,  0.0000)
  15 Li     0.027349    5.179423   17.304186    ( 0.0000,  0.0000,  0.0000)
  16 Li     0.000000    6.980000   10.000000    ( 0.0000,  0.0000,  0.0000)
  17 Li     2.467803    8.725000   10.000000    ( 0.0000,  0.0000,  0.0000)
  18 Li     2.467803    6.980000   12.467803    ( 0.0000,  0.0000,  0.0000)
  19 Li     0.000000    8.725000   12.467803    ( 0.0000,  0.0000,  0.0000)
  20 Li    -0.009625    6.998589   14.945331    ( 0.0000,  0.0000,  0.0000)
  21 Li     2.477830    8.696131   14.821069    ( 0.0000,  0.0000,  0.0000)
  22 Li     2.439108    7.037287   17.303117    ( 0.0000,  0.0000,  0.0000)
  23 Li     0.058140    8.850002   17.362768    ( 0.0000,  0.0000,  0.0000)
  24 Li     4.935605    0.000000   10.000000    ( 0.0000,  0.0000,  0.0000)
  25 Li     7.403408    1.745000   10.000000    ( 0.0000,  0.0000,  0.0000)
  26 Li     7.403408    0.000000   12.467803    ( 0.0000,  0.0000,  0.0000)
  27 Li     4.935605    1.745000   12.467803    ( 0.0000,  0.0000,  0.0000)
  28 Li     4.935611    0.001153   14.852243    ( 0.0000,  0.0000,  0.0000)
  29 Li     7.407888    1.744178   14.867671    ( 0.0000,  0.0000,  0.0000)
  30 Li     7.385810    0.000340   17.220502    ( 0.0000,  0.0000,  0.0000)
  31 Li     4.858111    1.676338   17.313652    ( 0.0000,  0.0000,  0.0000)
  32 Li     4.935605    3.490000   10.000000    ( 0.0000,  0.0000,  0.0000)
  33 Li     7.403408    5.235000   10.000000    ( 0.0000,  0.0000,  0.0000)
  34 Li     7.403408    3.490000   12.467803    ( 0.0000,  0.0000,  0.0000)
  35 Li     4.935605    5.235000   12.467803    ( 0.0000,  0.0000,  0.0000)
  36 Li     4.950451    3.470980   14.897669    ( 0.0000,  0.0000,  0.0000)
  37 Li     7.400559    5.236385   14.862557    ( 0.0000,  0.0000,  0.0000)
  38 Li     7.372117    3.473263   17.223365    ( 0.0000,  0.0000,  0.0000)
  39 Li     4.876887    5.218609   17.255935    ( 0.0000,  0.0000,  0.0000)
  40 Li     4.935605    6.980000   10.000000    ( 0.0000,  0.0000,  0.0000)
  41 Li     7.403408    8.725000   10.000000    ( 0.0000,  0.0000,  0.0000)
  42 Li     7.403408    6.980000   12.467803    ( 0.0000,  0.0000,  0.0000)
  43 Li     4.935605    8.725000   12.467803    ( 0.0000,  0.0000,  0.0000)
  44 Li     4.942625    6.998054   14.900370    ( 0.0000,  0.0000,  0.0000)
  45 Li     7.407888    8.724647   14.859218    ( 0.0000,  0.0000,  0.0000)
  46 Li     7.372117    6.996498   17.227743    ( 0.0000,  0.0000,  0.0000)
  47 Li     4.845419    8.810466   17.315280    ( 0.0000,  0.0000,  0.0000)
  48 Li     9.871211    0.000000   10.000000    ( 0.0000,  0.0000,  0.0000)
  49 Li    12.339013    1.745000   10.000000    ( 0.0000,  0.0000,  0.0000)
  50 Li    12.339013    0.000000   12.467803    ( 0.0000,  0.0000,  0.0000)
  51 Li     9.871211    1.745000   12.467803    ( 0.0000,  0.0000,  0.0000)
  52 Li     9.865733    0.001153   14.866450    ( 0.0000,  0.0000,  0.0000)
  53 Li    12.342916    1.744232   14.853057    ( 0.0000,  0.0000,  0.0000)
  54 Li    12.412810    0.068392   17.313476    ( 0.0000,  0.0000,  0.0000)
  55 Li     9.889890    1.745361   17.220632    ( 0.0000,  0.0000,  0.0000)
  56 Li     9.871211    3.490000   10.000000    ( 0.0000,  0.0000,  0.0000)
  57 Li    12.339013    5.235000   10.000000    ( 0.0000,  0.0000,  0.0000)
  58 Li    12.339013    3.490000   12.467803    ( 0.0000,  0.0000,  0.0000)
  59 Li     9.871211    5.235000   12.467803    ( 0.0000,  0.0000,  0.0000)
  60 Li     9.865711    3.490270   14.858018    ( 0.0000,  0.0000,  0.0000)
  61 Li    12.331613    5.217814   14.902484    ( 0.0000,  0.0000,  0.0000)
  62 Li    12.426688    3.405250   17.316024    ( 0.0000,  0.0000,  0.0000)
  63 Li     9.902882    5.218609   17.226425    ( 0.0000,  0.0000,  0.0000)
  64 Li     9.871211    6.980000   10.000000    ( 0.0000,  0.0000,  0.0000)
  65 Li    12.339013    8.725000   10.000000    ( 0.0000,  0.0000,  0.0000)
  66 Li    12.339013    6.980000   12.467803    ( 0.0000,  0.0000,  0.0000)
  67 Li     9.871211    8.725000   12.467803    ( 0.0000,  0.0000,  0.0000)
  68 Li     9.873537    6.978764   14.860719    ( 0.0000,  0.0000,  0.0000)
  69 Li    12.324195    8.743459   14.898669    ( 0.0000,  0.0000,  0.0000)
  70 Li    12.397819    6.997745   17.255815    ( 0.0000,  0.0000,  0.0000)
  71 Li     9.902582    8.741443   17.222260    ( 0.0000,  0.0000,  0.0000)
  72 Li     1.234443    0.872894   19.312369    ( 0.0000,  0.0000,  0.0000)

Unit cell:
           periodic     x           y           z      points  spacing
  1. axis:    yes   14.806816    0.000000    0.000000    76     0.1948
  2. axis:    yes    0.000000   10.470000    0.000000    52     0.2013
  3. axis:    no     0.000000    0.000000   27.403408   136     0.2015

  Lengths:  14.806816  10.470000  27.403408
  Angles:   90.000000  90.000000  90.000000

Effective grid spacing dv^(1/3) = 0.1992

     iter     time        total  log10-change:
                         energy   eigst   dens
iter:   1 04:53:32  -134.670286        c
iter:   2 04:53:44  -131.038448        c -0.63
iter:   3 04:53:56  -128.307098        c -0.77
iter:   4 04:54:07  -127.876268        c -0.98
iter:   5 04:54:18  -127.183448        c -1.08
iter:   6 04:54:30  -127.248420        c -1.43
iter:   7 04:54:41  -127.101381        c -1.42
iter:   8 04:54:52  -127.072154        c -1.69
iter:   9 04:55:03  -127.051639        c -1.85
iter:  10 04:55:14  -127.047351c       c -2.04
iter:  11 04:55:25  -127.045023c       c -2.24
iter:  12 04:55:37  -127.044364c       c -2.43
iter:  13 04:55:48  -127.044039c       c -2.51
iter:  14 04:56:01  -127.043702c       c -2.59
iter:  15 04:56:13  -127.043237c       c -2.79
iter:  16 04:56:25  -127.043089c       c -2.94
iter:  17 04:56:39  -127.042919c       c -3.04
iter:  18 04:56:50  -127.043085c       c -3.18
iter:  19 04:57:01  -127.043261c       c -3.39
iter:  20 04:57:12  -127.043467c       c -3.50
iter:  21 04:57:23  -127.043440c       c -3.70
iter:  22 04:57:33  -127.043453c       c -3.82
iter:  23 04:57:43  -127.043452c       c -3.90
iter:  24 04:57:54  -127.043511c       c -4.03c

Converged after 24 iterations.

Dipole moment: (-16.892154, -11.300631, 0.277520) |e|*Ang

Energy contributions relative to reference atoms: (reference = -14803.510878)

Kinetic:       +135.129133
Potential:     -116.042758
External:        +0.000000
XC:            -144.152508
Entropy (-ST):   -2.108930
Local:           -0.922913
SIC:             +0.000000
--------------------------
Free energy:   -128.097976
Extrapolated:  -127.043511

 Band  Eigenvalues  Occupancy
    0     -6.38146    2.00000
    1     -5.86840    2.00000
    2     -5.85606    2.00000
    3     -5.79631    2.00000
    4     -5.34310    2.00000
    5     -5.33478    2.00000
    6     -5.27464    2.00000
    7     -5.25358    2.00000
    8     -4.83999    2.00000
    9     -4.82757    1.99999
   10     -4.81785    1.99999
   11     -4.81518    1.99999
   12     -4.77489    1.99999
   13     -4.74415    1.99999
   14     -4.68737    1.99999
   15     -4.32658    1.99985
   16     -4.30498    1.99982
   17     -4.27355    1.99978
   18     -4.24934    1.99974
   19     -4.23172    1.99971
   20     -4.22698    1.99970
   21     -4.15951    1.99954
   22     -4.11815    1.99939
   23     -3.73111    1.99194
   24     -3.66920    1.98785
   25     -3.65171    1.98636
   26     -3.63771    1.98504
   27     -3.43384    1.94299
   28     -3.26126    1.83030
   29     -3.25929    1.82825
   30     -3.25693    1.82577
   31     -3.24867    1.81680
   32     -3.17024    1.70927
   33     -3.16560    1.70149
   34     -3.15007    1.67423
   35     -3.13628    1.64838
   36     -2.86029    0.85359
   37     -2.74848    0.52218
   38     -2.67720    0.36025
   39     -2.67547    0.35684
   40     -2.65656    0.32137
   41     -2.65273    0.31454
   42     -2.48363    0.11400
   43     -2.47532    0.10819
   44     -2.35591    0.05030
   45     -2.33332    0.04342
   46     -2.22171    0.02087
   47     -2.08217    0.00828

Fermi level: -2.90453

Gap: 0.276 eV
Transition (v -> c):
  (s=0, k=0, n=35, [0.00, 0.00, 0.00]) -> (s=0, k=0, n=36, [0.00, 0.00, 0.00])
No difference between direct/indirect transitions

Forces in eV/Ang:
  0 Li   -0.00096    0.00415    0.09738
  1 Li    0.00138   -0.00223    0.09828
  2 Li    0.00363   -0.01514   -0.08125
  3 Li   -0.00574    0.01696   -0.08097
  4 Li   -0.00958   -0.00503    0.00685
  5 Li    0.01634   -0.00069    0.01209
  6 Li    0.15008   -0.12689   -0.19416
  7 Li   -0.15280    0.12780   -0.19406
  8 Li   -0.00569   -0.01027    0.10015
  9 Li    0.01171   -0.00613    0.10029
 10 Li    0.00509    0.04974   -0.10663
 11 Li   -0.00199    0.02908   -0.05431
 12 Li   -0.00444    0.00286   -0.00509
 13 Li   -0.01038   -0.00211   -0.02654
 14 Li    0.00858   -0.01231   -0.02356
 15 Li    0.01345    0.02364   -0.00587
 16 Li   -0.01244    0.00601    0.09903
 17 Li    0.00615    0.00849    0.10131
 18 Li    0.00050   -0.03047   -0.05829
 19 Li   -0.00705   -0.04973   -0.10396
 20 Li    0.00600    0.00130   -0.02942
 21 Li    0.00357    0.00405    0.00562
 22 Li   -0.01195   -0.02469   -0.00639
 23 Li   -0.00923    0.01582   -0.02054
 24 Li    0.00355   -0.00194    0.08696
 25 Li    0.00468    0.00692    0.08584
 26 Li   -0.00513   -0.00041   -0.07117
 27 Li    0.00898    0.01310   -0.07809
 28 Li   -0.01208    0.00397    0.03637
 29 Li    0.00086   -0.00399   -0.01124
 30 Li    0.01640    0.00055   -0.01601
 31 Li    0.01243    0.04002   -0.00148
 32 Li    0.01107    0.00056    0.08495
 33 Li    0.01174    0.00767    0.06578
 34 Li    0.00134    0.00007   -0.06785
 35 Li    0.00352    0.00000   -0.02278
 36 Li   -0.00533   -0.00412   -0.01006
 37 Li    0.00246    0.00366   -0.00337
 38 Li    0.00336    0.00328   -0.00169
 39 Li    0.00338    0.00507   -0.00191
 40 Li    0.02159    0.00134    0.08560
 41 Li    0.00697   -0.01471    0.07500
 42 Li    0.00144    0.00021   -0.06761
 43 Li    0.01014   -0.01373   -0.07280
 44 Li    0.00117   -0.00350    0.00342
 45 Li    0.00102   -0.00073   -0.00956
 46 Li    0.00117   -0.00516   -0.00564
 47 Li    0.04047   -0.04091   -0.03968
 48 Li   -0.00533   -0.00698    0.08724
 49 Li   -0.00332    0.00382    0.08667
 50 Li   -0.00583   -0.01235   -0.07713
 51 Li    0.00363    0.00129   -0.07044
 52 Li    0.00009    0.00571   -0.00744
 53 Li    0.00463   -0.00202    0.03560
 54 Li   -0.00878   -0.04117   -0.00120
 55 Li   -0.01919    0.00030   -0.01706
 56 Li   -0.00660    0.01295    0.07604
 57 Li   -0.02127    0.00057    0.08606
 58 Li   -0.00651    0.01243   -0.07113
 59 Li   -0.00311    0.00037   -0.06744
 60 Li    0.00066   -0.00252   -0.00565
 61 Li    0.00421    0.00376   -0.00036
 62 Li   -0.03846    0.04084   -0.03926
 63 Li   -0.00252    0.00768   -0.00557
 64 Li   -0.01132   -0.00584    0.06657
 65 Li   -0.01186   -0.00432    0.08499
 66 Li   -0.00024    0.00071   -0.02217
 67 Li   -0.00307   -0.00147   -0.06807
 68 Li   -0.00338   -0.00237    0.00086
 69 Li    0.00710    0.00353   -0.01261
 70 Li   -0.00397   -0.00341    0.00083
 71 Li   -0.00329   -0.00455   -0.00172
 72 Li    0.00305   -0.00174    0.27701

System changes: positions 

Initializing position-dependent things.

Density initialized from wave functions
       .-----------------------------------.  
      /|                                   |  
     / |                                   |  
    /  |                                   |  
   /   |                                   |  
  /    |                                   |  
 *     |                                   |  
 |     |                                   |  
 |     |                                   |  
 |     |                                   |  
 |     |                                   |  
 |     |                                   |  
 |     |                                   |  
 |    Li          Li                       |  
 |     |   Li                 Li           |  
 |     |               Li          Li      |  
 |  LLiLi       Li          Li             |  
 |     | Li Li       Li Li       Li Li   Li|  
 |Li   |  Li  Li Li       Li LiLi          |  
 |     Li          Li Li          Li       |  
 |    Li       Li Li       Li Li       Li  |  
 |     |Li Li       Li Li       Li Li      |  
 |  Li |     Li Li       Li Li             |  
 |     | Li Li       Li Li       Li Li     |  
 |Li Li|      Li Li       Li Li            |  
 |     Li Li       Li Li       Li Li       |  
 | Li  |       Li          Li              |  
 |     |Li          Li          Li         |  
 Li    |     Li          Li                |  
 |     |                                   |  
 |     |                                   |  
 |     |                                   |  
 |     |                                   |  
 |     |                                   |  
 |     .-----------------------------------.  
 |    /                                   /   
 |   /                                   /    
 |  /                                   /     
 | /                                   /      
 |/                                   /       
 *-----------------------------------*        

Atomic positions and initial magnetic moments

Positions:
   0 Li     0.000000    0.000000   10.000000    ( 0.0000,  0.0000,  0.0000)
   1 Li     2.467803    1.745000   10.000000    ( 0.0000,  0.0000,  0.0000)
   2 Li     2.467803    0.000000   12.467803    ( 0.0000,  0.0000,  0.0000)
   3 Li     0.000000    1.745000   12.467803    ( 0.0000,  0.0000,  0.0000)
   4 Li     0.004129   -0.042746   14.779211    ( 0.0000,  0.0000,  0.0000)
   5 Li     2.459272    1.791552   14.775581    ( 0.0000,  0.0000,  0.0000)
   6 Li     2.411094    0.067126   17.047731    ( 0.0000,  0.0000,  0.0000)
   7 Li     0.056609    1.675934   17.051414    ( 0.0000,  0.0000,  0.0000)
   8 Li     0.000000    3.490000   10.000000    ( 0.0000,  0.0000,  0.0000)
   9 Li     2.467803    5.235000   10.000000    ( 0.0000,  0.0000,  0.0000)
  10 Li     2.467803    3.490000   12.467803    ( 0.0000,  0.0000,  0.0000)
  11 Li     0.000000    5.235000   12.467803    ( 0.0000,  0.0000,  0.0000)
  12 Li    -0.009669    3.515095   14.828166    ( 0.0000,  0.0000,  0.0000)
  13 Li     2.478397    5.217792   14.942042    ( 0.0000,  0.0000,  0.0000)
  14 Li     2.410322    3.365584   17.363093    ( 0.0000,  0.0000,  0.0000)
  15 Li     0.027482    5.179657   17.304129    ( 0.0000,  0.0000,  0.0000)
  16 Li     0.000000    6.980000   10.000000    ( 0.0000,  0.0000,  0.0000)
  17 Li     2.467803    8.725000   10.000000    ( 0.0000,  0.0000,  0.0000)
  18 Li     2.467803    6.980000   12.467803    ( 0.0000,  0.0000,  0.0000)
  19 Li     0.000000    8.725000   12.467803    ( 0.0000,  0.0000,  0.0000)
  20 Li    -0.009565    6.998601   14.945037    ( 0.0000,  0.0000,  0.0000)
  21 Li     2.477866    8.696175   14.821131    ( 0.0000,  0.0000,  0.0000)
  22 Li     2.438988    7.037038   17.303052    ( 0.0000,  0.0000,  0.0000)
  23 Li     0.058045    8.850160   17.362561    ( 0.0000,  0.0000,  0.0000)
  24 Li     4.935605    0.000000   10.000000    ( 0.0000,  0.0000,  0.0000)
  25 Li     7.403408    1.745000   10.000000    ( 0.0000,  0.0000,  0.0000)
  26 Li     7.403408    0.000000   12.467803    ( 0.0000,  0.0000,  0.0000)
  27 Li     4.935605    1.745000   12.467803    ( 0.0000,  0.0000,  0.0000)
  28 Li     4.935490    0.001193   14.852607    ( 0.0000,  0.0000,  0.0000)
  29 Li     7.407896    1.744138   14.867558    ( 0.0000,  0.0000,  0.0000)
  30 Li     7.385975    0.000346   17.220342    ( 0.0000,  0.0000,  0.0000)
  31 Li     4.858238    1.676742   17.313633    ( 0.0000,  0.0000,  0.0000)
  32 Li     4.935605    3.490000   10.000000    ( 0.0000,  0.0000,  0.0000)
  33 Li     7.403408    5.235000   10.000000    ( 0.0000,  0.0000,  0.0000)
  34 Li     7.403408    3.490000   12.467803    ( 0.0000,  0.0000,  0.0000)
  35 Li     4.935605    5.235000   12.467803    ( 0.0000,  0.0000,  0.0000)
  36 Li     4.950397    3.470940   14.897566    ( 0.0000,  0.0000,  0.0000)
  37 Li     7.400583    5.236422   14.862523    ( 0.0000,  0.0000,  0.0000)
  38 Li     7.372152    3.473296   17.223347    ( 0.0000,  0.0000,  0.0000)
  39 Li     4.876920    5.218659   17.255915    ( 0.0000,  0.0000,  0.0000)
  40 Li     4.935605    6.980000   10.000000    ( 0.0000,  0.0000,  0.0000)
  41 Li     7.403408    8.725000   10.000000    ( 0.0000,  0.0000,  0.0000)
  42 Li     7.403408    6.980000   12.467803    ( 0.0000,  0.0000,  0.0000)
  43 Li     4.935605    8.725000   12.467803    ( 0.0000,  0.0000,  0.0000)
  44 Li     4.942636    6.998018   14.900402    ( 0.0000,  0.0000,  0.0000)
  45 Li     7.407898    8.724640   14.859123    ( 0.0000,  0.0000,  0.0000)
  46 Li     7.372131    6.996446   17.227686    ( 0.0000,  0.0000,  0.0000)
  47 Li     4.845825    8.810054   17.314879    ( 0.0000,  0.0000,  0.0000)
  48 Li     9.871211    0.000000   10.000000    ( 0.0000,  0.0000,  0.0000)
  49 Li    12.339013    1.745000   10.000000    ( 0.0000,  0.0000,  0.0000)
  50 Li    12.339013    0.000000   12.467803    ( 0.0000,  0.0000,  0.0000)
  51 Li     9.871211    1.745000   12.467803    ( 0.0000,  0.0000,  0.0000)
  52 Li     9.865733    0.001210   14.866375    ( 0.0000,  0.0000,  0.0000)
  53 Li    12.342963    1.744212   14.853412    ( 0.0000,  0.0000,  0.0000)
  54 Li    12.412724    0.067983   17.313469    ( 0.0000,  0.0000,  0.0000)
  55 Li     9.889699    1.745364   17.220462    ( 0.0000,  0.0000,  0.0000)
  56 Li     9.871211    3.490000   10.000000    ( 0.0000,  0.0000,  0.0000)
  57 Li    12.339013    5.235000   10.000000    ( 0.0000,  0.0000,  0.0000)
  58 Li    12.339013    3.490000   12.467803    ( 0.0000,  0.0000,  0.0000)
  59 Li     9.871211    5.235000   12.467803    ( 0.0000,  0.0000,  0.0000)
  60 Li     9.865717    3.490245   14.857961    ( 0.0000,  0.0000,  0.0000)
  61 Li    12.331654    5.217851   14.902482    ( 0.0000,  0.0000,  0.0000)
  62 Li    12.426304    3.405656   17.315636    ( 0.0000,  0.0000,  0.0000)
  63 Li     9.902859    5.218685   17.226370    ( 0.0000,  0.0000,  0.0000)
  64 Li     9.871211    6.980000   10.000000    ( 0.0000,  0.0000,  0.0000)
  65 Li    12.339013    8.725000   10.000000    ( 0.0000,  0.0000,  0.0000)
  66 Li    12.339013    6.980000   12.467803    ( 0.0000,  0.0000,  0.0000)
  67 Li     9.871211    8.725000   12.467803    ( 0.0000,  0.0000,  0.0000)
  68 Li     9.873503    6.978740   14.860727    ( 0.0000,  0.0000,  0.0000)
  69 Li    12.324266    8.743495   14.898544    ( 0.0000,  0.0000,  0.0000)
  70 Li    12.397779    6.997711   17.255824    ( 0.0000,  0.0000,  0.0000)
  71 Li     9.902551    8.741399   17.222243    ( 0.0000,  0.0000,  0.0000)
  72 Li     1.234414    0.872918   19.315139    ( 0.0000,  0.0000,  0.0000)

Unit cell:
           periodic     x           y           z      points  spacing
  1. axis:    yes   14.806816    0.000000    0.000000    76     0.1948
  2. axis:    yes    0.000000   10.470000    0.000000    52     0.2013
  3. axis:    no     0.000000    0.000000   27.403408   136     0.2015

  Lengths:  14.806816  10.470000  27.403408
  Angles:   90.000000  90.000000  90.000000

Effective grid spacing dv^(1/3) = 0.1992

     iter     time        total  log10-change:
                         energy   eigst   dens
iter:   1 05:11:13  -127.045866        c
iter:   2 05:11:24  -127.045908        c -3.78
iter:   3 05:11:35  -127.045977c       c -3.90
iter:   4 05:11:47  -127.046003c       c -4.15c

Converged after 4 iterations.

Dipole moment: (-16.866456, -11.280087, 0.278984) |e|*Ang

Energy contributions relative to reference atoms: (reference = -14803.510878)

Kinetic:       +135.076548
Potential:     -116.021545
External:        +0.000000
XC:            -144.140613
Entropy (-ST):   -2.108931
Local:           -0.905928
SIC:             +0.000000
--------------------------
Free energy:   -128.100468
Extrapolated:  -127.046003

 Band  Eigenvalues  Occupancy
    0     -6.38160    2.00000
    1     -5.86852    2.00000
    2     -5.85622    2.00000
    3     -5.79642    2.00000
    4     -5.34323    2.00000
    5     -5.33494    2.00000
    6     -5.27470    2.00000
    7     -5.25371    2.00000
    8     -4.84005    2.00000
    9     -4.82770    1.99999
   10     -4.81801    1.99999
   11     -4.81536    1.99999
   12     -4.77494    1.99999
   13     -4.74426    1.99999
   14     -4.68741    1.99999
   15     -4.32665    1.99985
   16     -4.30512    1.99982
   17     -4.27360    1.99978
   18     -4.24941    1.99974
   19     -4.23183    1.99971
   20     -4.22716    1.99970
   21     -4.15956    1.99954
   22     -4.11814    1.99939
   23     -3.73112    1.99194
   24     -3.66925    1.98786
   25     -3.65186    1.98637
   26     -3.63764    1.98503
   27     -3.43387    1.94299
   28     -3.26139    1.83041
   29     -3.25941    1.82835
   30     -3.25704    1.82585
   31     -3.24886    1.81699
   32     -3.17021    1.70917
   33     -3.16550    1.70128
   34     -3.15003    1.67412
   35     -3.13631    1.64838
   36     -2.86027    0.85345
   37     -2.74830    0.52166
   38     -2.67728    0.36035
   39     -2.67549    0.35684
   40     -2.65668    0.32154
   41     -2.65296    0.31492
   42     -2.48355    0.11392
   43     -2.47530    0.10816
   44     -2.35617    0.05038
   45     -2.33343    0.04344
   46     -2.22153    0.02084
   47     -2.08224    0.00829

Fermi level: -2.90455

Gap: 0.276 eV
Transition (v -> c):
  (s=0, k=0, n=35, [0.00, 0.00, 0.00]) -> (s=0, k=0, n=36, [0.00, 0.00, 0.00])
No difference between direct/indirect transitions

Forces in eV/Ang:
  0 Li   -0.00099    0.00426    0.09688
  1 Li    0.00141   -0.00235    0.09778
  2 Li    0.00364   -0.01506   -0.08068
  3 Li   -0.00574    0.01687   -0.08041
  4 Li   -0.00946   -0.00526    0.00555
  5 Li    0.01613   -0.00036    0.01072
  6 Li    0.14524   -0.12336   -0.18725
  7 Li   -0.14800    0.12425   -0.18718
  8 Li   -0.00576   -0.01041    0.09986
  9 Li    0.01175   -0.00615    0.10017
 10 Li    0.00514    0.04970   -0.10652
 11 Li   -0.00204    0.02911   -0.05453
 12 Li   -0.00440    0.00361   -0.00604
 13 Li   -0.01037   -0.00230   -0.02629
 14 Li    0.00796   -0.01236   -0.02300
 15 Li    0.01323    0.02336   -0.00547
 16 Li   -0.01248    0.00604    0.09891
 17 Li    0.00622    0.00864    0.10101
 18 Li    0.00055   -0.03048   -0.05844
 19 Li   -0.00711   -0.04971   -0.10388
 20 Li    0.00605    0.00152   -0.02913
 21 Li    0.00355    0.00317    0.00453
 22 Li   -0.01173   -0.02438   -0.00596
 23 Li   -0.00858    0.01580   -0.02000
 24 Li    0.00357   -0.00190    0.08658
 25 Li    0.00466    0.00688    0.08566
 26 Li   -0.00496   -0.00034   -0.07135
 27 Li    0.00915    0.01306   -0.07805
 28 Li   -0.01190    0.00403    0.03569
 29 Li    0.00088   -0.00390   -0.01126
 30 Li    0.01601    0.00053   -0.01558
 31 Li    0.01273    0.03951   -0.00106
 32 Li    0.01110    0.00048    0.08474
 33 Li    0.01173    0.00763    0.06558
 34 Li    0.00133   -0.00002   -0.06784
 35 Li    0.00363    0.00002   -0.02291
 36 Li   -0.00546   -0.00418   -0.00991
 37 Li    0.00239    0.00353   -0.00354
 38 Li    0.00334    0.00339   -0.00134
 39 Li    0.00326    0.00487   -0.00143
 40 Li    0.02167    0.00138    0.08549
 41 Li    0.00698   -0.01464    0.07479
 42 Li    0.00144    0.00023   -0.06765
 43 Li    0.01030   -0.01372   -0.07276
 44 Li    0.00090   -0.00338    0.00323
 45 Li    0.00113   -0.00068   -0.00957
 46 Li    0.00133   -0.00520   -0.00514
 47 Li    0.04056   -0.04097   -0.03901
 48 Li   -0.00531   -0.00693    0.08706
 49 Li   -0.00333    0.00378    0.08629
 50 Li   -0.00599   -0.01231   -0.07709
 51 Li    0.00345    0.00121   -0.07060
 52 Li    0.00006    0.00557   -0.00752
 53 Li    0.00459   -0.00212    0.03496
 54 Li   -0.00915   -0.04065   -0.00078
 55 Li   -0.01874    0.00030   -0.01658
 56 Li   -0.00662    0.01287    0.07583
 57 Li   -0.02135    0.00053    0.08595
 58 Li   -0.00667    0.01243   -0.07112
 59 Li   -0.00312    0.00035   -0.06745
 60 Li    0.00053   -0.00249   -0.00572
 61 Li    0.00439    0.00365   -0.00049
 62 Li   -0.03859    0.04090   -0.03858
 63 Li   -0.00266    0.00769   -0.00507
 64 Li   -0.01131   -0.00580    0.06636
 65 Li   -0.01188   -0.00424    0.08478
 66 Li   -0.00033    0.00069   -0.02231
 67 Li   -0.00306   -0.00137   -0.06804
 68 Li   -0.00329   -0.00227    0.00063
 69 Li    0.00721    0.00361   -0.01242
 70 Li   -0.00384   -0.00323    0.00129
 71 Li   -0.00327   -0.00462   -0.00134
 72 Li    0.00297   -0.00173    0.26699

System changes: positions 

Initializing position-dependent things.

Density initialized from wave functions
       .-----------------------------------.  
      /|                                   |  
     / |                                   |  
    /  |                                   |  
   /   |                                   |  
  /    |                                   |  
 *     |                                   |  
 |     |                                   |  
 |     |                                   |  
 |     |                                   |  
 |     |                                   |  
 |     |                                   |  
 |     |                                   |  
 |    Li          Li                       |  
 |     |   Li                 Li           |  
 |     |               Li          Li      |  
 |  LLiLi       Li          Li             |  
 |     | Li Li       Li Li       Li Li   Li|  
 |Li   |  Li  Li Li       Li LiLi          |  
 |     Li          Li Li          Li       |  
 |    Li       Li Li       Li Li       Li  |  
 |     |Li Li       Li Li       Li Li      |  
 |  Li |     Li Li       Li Li             |  
 |     | Li Li       Li Li       Li Li     |  
 |Li Li|      Li Li       Li Li            |  
 |     Li Li       Li Li       Li Li       |  
 | Li  |       Li          Li              |  
 |     |Li          Li          Li         |  
 Li    |     Li          Li                |  
 |     |                                   |  
 |     |                                   |  
 |     |                                   |  
 |     |                                   |  
 |     |                                   |  
 |     .-----------------------------------.  
 |    /                                   /   
 |   /                                   /    
 |  /                                   /     
 | /                                   /      
 |/                                   /       
 *-----------------------------------*        

Atomic positions and initial magnetic moments

Positions:
   0 Li     0.000000    0.000000   10.000000    ( 0.0000,  0.0000,  0.0000)
   1 Li     2.467803    1.745000   10.000000    ( 0.0000,  0.0000,  0.0000)
   2 Li     2.467803    0.000000   12.467803    ( 0.0000,  0.0000,  0.0000)
   3 Li     0.000000    1.745000   12.467803    ( 0.0000,  0.0000,  0.0000)
   4 Li     0.003938   -0.042853   14.779329    ( 0.0000,  0.0000,  0.0000)
   5 Li     2.459596    1.791537   14.775815    ( 0.0000,  0.0000,  0.0000)
   6 Li     2.414042    0.064629   17.043950    ( 0.0000,  0.0000,  0.0000)
   7 Li     0.053595    1.678462   17.047569    ( 0.0000,  0.0000,  0.0000)
   8 Li     0.000000    3.490000   10.000000    ( 0.0000,  0.0000,  0.0000)
   9 Li     2.467803    5.235000   10.000000    ( 0.0000,  0.0000,  0.0000)
  10 Li     2.467803    3.490000   12.467803    ( 0.0000,  0.0000,  0.0000)
  11 Li     0.000000    5.235000   12.467803    ( 0.0000,  0.0000,  0.0000)
  12 Li    -0.009757    3.515166   14.828043    ( 0.0000,  0.0000,  0.0000)
  13 Li     2.478190    5.217746   14.941513    ( 0.0000,  0.0000,  0.0000)
  14 Li     2.410482    3.365336   17.362630    ( 0.0000,  0.0000,  0.0000)
  15 Li     0.027747    5.180123   17.304018    ( 0.0000,  0.0000,  0.0000)
  16 Li     0.000000    6.980000   10.000000    ( 0.0000,  0.0000,  0.0000)
  17 Li     2.467803    8.725000   10.000000    ( 0.0000,  0.0000,  0.0000)
  18 Li     2.467803    6.980000   12.467803    ( 0.0000,  0.0000,  0.0000)
  19 Li     0.000000    8.725000   12.467803    ( 0.0000,  0.0000,  0.0000)
  20 Li    -0.009443    6.998628   14.944452    ( 0.0000,  0.0000,  0.0000)
  21 Li     2.477938    8.696252   14.821242    ( 0.0000,  0.0000,  0.0000)
  22 Li     2.438748    7.036542   17.302926    ( 0.0000,  0.0000,  0.0000)
  23 Li     0.057862    8.850475   17.362152    ( 0.0000,  0.0000,  0.0000)
  24 Li     4.935605    0.000000   10.000000    ( 0.0000,  0.0000,  0.0000)
  25 Li     7.403408    1.745000   10.000000    ( 0.0000,  0.0000,  0.0000)
  26 Li     7.403408    0.000000   12.467803    ( 0.0000,  0.0000,  0.0000)
  27 Li     4.935605    1.745000   12.467803    ( 0.0000,  0.0000,  0.0000)
  28 Li     4.935251    0.001273   14.853329    ( 0.0000,  0.0000,  0.0000)
  29 Li     7.407913    1.744059   14.867333    ( 0.0000,  0.0000,  0.0000)
  30 Li     7.386301    0.000356   17.220025    ( 0.0000,  0.0000,  0.0000)
  31 Li     4.858494    1.677545   17.313600    ( 0.0000,  0.0000,  0.0000)
  32 Li     4.935605    3.490000   10.000000    ( 0.0000,  0.0000,  0.0000)
  33 Li     7.403408    5.235000   10.000000    ( 0.0000,  0.0000,  0.0000)
  34 Li     7.403408    3.490000   12.467803    ( 0.0000,  0.0000,  0.0000)
  35 Li     4.935605    5.235000   12.467803    ( 0.0000,  0.0000,  0.0000)
  36 Li     4.950289    3.470858   14.897363    ( 0.0000,  0.0000,  0.0000)
  37 Li     7.400632    5.236494   14.862452    ( 0.0000,  0.0000,  0.0000)
  38 Li     7.372222    3.473365   17.223316    ( 0.0000,  0.0000,  0.0000)
  39 Li     4.876986    5.218757   17.255880    ( 0.0000,  0.0000,  0.0000)
  40 Li     4.935605    6.980000   10.000000    ( 0.0000,  0.0000,  0.0000)
  41 Li     7.403408    8.725000   10.000000    ( 0.0000,  0.0000,  0.0000)
  42 Li     7.403408    6.980000   12.467803    ( 0.0000,  0.0000,  0.0000)
  43 Li     4.935605    8.725000   12.467803    ( 0.0000,  0.0000,  0.0000)
  44 Li     4.942655    6.997948   14.900465    ( 0.0000,  0.0000,  0.0000)
  45 Li     7.407919    8.724626   14.858930    ( 0.0000,  0.0000,  0.0000)
  46 Li     7.372159    6.996340   17.227578    ( 0.0000,  0.0000,  0.0000)
  47 Li     4.846639    8.809229   17.314084    ( 0.0000,  0.0000,  0.0000)
  48 Li     9.871211    0.000000   10.000000    ( 0.0000,  0.0000,  0.0000)
  49 Li    12.339013    1.745000   10.000000    ( 0.0000,  0.0000,  0.0000)
  50 Li    12.339013    0.000000   12.467803    ( 0.0000,  0.0000,  0.0000)
  51 Li     9.871211    1.745000   12.467803    ( 0.0000,  0.0000,  0.0000)
  52 Li     9.865734    0.001323   14.866225    ( 0.0000,  0.0000,  0.0000)
  53 Li    12.343056    1.744171   14.854117    ( 0.0000,  0.0000,  0.0000)
  54 Li    12.412548    0.067171   17.313457    ( 0.0000,  0.0000,  0.0000)
  55 Li     9.889321    1.745370   17.220126    ( 0.0000,  0.0000,  0.0000)
  56 Li     9.871211    3.490000   10.000000    ( 0.0000,  0.0000,  0.0000)
  57 Li    12.339013    5.235000   10.000000    ( 0.0000,  0.0000,  0.0000)
  58 Li    12.339013    3.490000   12.467803    ( 0.0000,  0.0000,  0.0000)
  59 Li     9.871211    5.235000   12.467803    ( 0.0000,  0.0000,  0.0000)
  60 Li     9.865728    3.490194   14.857848    ( 0.0000,  0.0000,  0.0000)
  61 Li    12.331739    5.217924   14.902476    ( 0.0000,  0.0000,  0.0000)
  62 Li    12.425535    3.406470   17.314864    ( 0.0000,  0.0000,  0.0000)
  63 Li     9.902810    5.218837   17.226264    ( 0.0000,  0.0000,  0.0000)
  64 Li     9.871211    6.980000   10.000000    ( 0.0000,  0.0000,  0.0000)
  65 Li    12.339013    8.725000   10.000000    ( 0.0000,  0.0000,  0.0000)
  66 Li    12.339013    6.980000   12.467803    ( 0.0000,  0.0000,  0.0000)
  67 Li     9.871211    8.725000   12.467803    ( 0.0000,  0.0000,  0.0000)
  68 Li     9.873437    6.978694   14.860743    ( 0.0000,  0.0000,  0.0000)
  69 Li    12.324409    8.743568   14.898297    ( 0.0000,  0.0000,  0.0000)
  70 Li    12.397700    6.997643   17.255848    ( 0.0000,  0.0000,  0.0000)
  71 Li     9.902488    8.741308   17.222214    ( 0.0000,  0.0000,  0.0000)
  72 Li     1.234359    0.872965   19.320578    ( 0.0000,  0.0000,  0.0000)

Unit cell:
           periodic     x           y           z      points  spacing
  1. axis:    yes   14.806816    0.000000    0.000000    76     0.1948
  2. axis:    yes    0.000000   10.470000    0.000000    52     0.2013
  3. axis:    no     0.000000    0.000000   27.403408   136     0.2015

  Lengths:  14.806816  10.470000  27.403408
  Angles:   90.000000  90.000000  90.000000

Effective grid spacing dv^(1/3) = 0.1992

     iter     time        total  log10-change:
                         energy   eigst   dens
iter:   1 05:18:20  -127.049960        c
iter:   2 05:18:34  -127.050209        c -3.24
iter:   3 05:18:46  -127.050425c       c -3.46
iter:   4 05:18:57  -127.050651c       c -3.79
iter:   5 05:19:08  -127.050587c       c -4.02c

Converged after 5 iterations.

Dipole moment: (-16.812822, -11.238305, 0.281265) |e|*Ang

Energy contributions relative to reference atoms: (reference = -14803.510878)

Kinetic:       +135.043805
Potential:     -115.999693
External:        +0.000000
XC:            -144.133871
Entropy (-ST):   -2.109057
Local:           -0.906300
SIC:             +0.000000
--------------------------
Free energy:   -128.105116
Extrapolated:  -127.050587

 Band  Eigenvalues  Occupancy
    0     -6.38062    2.00000
    1     -5.86751    2.00000
    2     -5.85527    2.00000
    3     -5.79538    2.00000
    4     -5.34220    2.00000
    5     -5.33399    2.00000
    6     -5.27358    2.00000
    7     -5.25282    2.00000
    8     -4.83891    2.00000
    9     -4.82669    1.99999
   10     -4.81707    1.99999
   11     -4.81446    1.99999
   12     -4.77369    1.99999
   13     -4.74330    1.99999
   14     -4.68644    1.99999
   15     -4.32553    1.99985
   16     -4.30415    1.99982
   17     -4.27245    1.99978
   18     -4.24832    1.99974
   19     -4.23089    1.99971
   20     -4.22637    1.99970
   21     -4.15858    1.99954
   22     -4.11709    1.99939
   23     -3.72987    1.99193
   24     -3.66818    1.98785
   25     -3.65104    1.98639
   26     -3.63643    1.98501
   27     -3.43294    1.94303
   28     -3.26037    1.83042
   29     -3.25838    1.82835
   30     -3.25598    1.82582
   31     -3.24800    1.81717
   32     -3.16914    1.70911
   33     -3.16426    1.70092
   34     -3.14892    1.67398
   35     -3.13534    1.64850
   36     -2.85933    0.85375
   37     -2.74706    0.52111
   38     -2.67622    0.36029
   39     -2.67435    0.35663
   40     -2.65573    0.32170
   41     -2.65228    0.31553
   42     -2.48239    0.11384
   43     -2.47421    0.10812
   44     -2.35553    0.05050
   45     -2.33252    0.04348
   46     -2.22017    0.02080
   47     -2.08143    0.00830

Fermi level: -2.90352

Gap: 0.276 eV
Transition (v -> c):
  (s=0, k=0, n=35, [0.00, 0.00, 0.00]) -> (s=0, k=0, n=36, [0.00, 0.00, 0.00])
No difference between direct/indirect transitions

Forces in eV/Ang:
  0 Li   -0.00095    0.00420    0.09717
  1 Li    0.00137   -0.00229    0.09807
  2 Li    0.00368   -0.01503   -0.08058
  3 Li   -0.00578    0.01681   -0.08035
  4 Li   -0.00893   -0.00565    0.00414
  5 Li    0.01538    0.00030    0.00912
  6 Li    0.13392   -0.11528   -0.17303
  7 Li   -0.13672    0.11618   -0.17304
  8 Li   -0.00567   -0.01038    0.10015
  9 Li    0.01164   -0.00616    0.10028
 10 Li    0.00511    0.04953   -0.10684
 11 Li   -0.00202    0.02906   -0.05495
 12 Li   -0.00423    0.00541   -0.00799
 13 Li   -0.01014   -0.00249   -0.02562
 14 Li    0.00666   -0.01263   -0.02272
 15 Li    0.01273    0.02267   -0.00583
 16 Li   -0.01236    0.00605    0.09901
 17 Li    0.00613    0.00861    0.10129
 18 Li    0.00052   -0.03035   -0.05871
 19 Li   -0.00707   -0.04959   -0.10430
 20 Li    0.00596    0.00178   -0.02836
 21 Li    0.00344    0.00105    0.00223
 22 Li   -0.01128   -0.02361   -0.00626
 23 Li   -0.00722    0.01593   -0.01980
 24 Li    0.00347   -0.00187    0.08684
 25 Li    0.00461    0.00684    0.08584
 26 Li   -0.00510   -0.00037   -0.07143
 27 Li    0.00914    0.01281   -0.07803
 28 Li   -0.01086    0.00404    0.03395
 29 Li    0.00083   -0.00371   -0.01114
 30 Li    0.01549    0.00051   -0.01557
 31 Li    0.01332    0.03860   -0.00091
 32 Li    0.01093    0.00045    0.08496
 33 Li    0.01166    0.00759    0.06585
 34 Li    0.00123    0.00000   -0.06783
 35 Li    0.00359    0.00005   -0.02292
 36 Li   -0.00533   -0.00390   -0.00959
 37 Li    0.00223    0.00336   -0.00353
 38 Li    0.00347    0.00358   -0.00170
 39 Li    0.00307    0.00441   -0.00168
 40 Li    0.02153    0.00139    0.08572
 41 Li    0.00698   -0.01457    0.07505
 42 Li    0.00141    0.00022   -0.06768
 43 Li    0.01033   -0.01351   -0.07250
 44 Li    0.00079   -0.00347    0.00269
 45 Li    0.00114   -0.00068   -0.00941
 46 Li    0.00171   -0.00528   -0.00546
 47 Li    0.04085   -0.04120   -0.03829
 48 Li   -0.00526   -0.00691    0.08724
 49 Li   -0.00324    0.00375    0.08654
 50 Li   -0.00599   -0.01205   -0.07709
 51 Li    0.00359    0.00124   -0.07065
 52 Li    0.00008    0.00529   -0.00753
 53 Li    0.00392   -0.00222    0.03331
 54 Li   -0.00993   -0.03971   -0.00066
 55 Li   -0.01809    0.00029   -0.01646
 56 Li   -0.00661    0.01280    0.07608
 57 Li   -0.02121    0.00052    0.08618
 58 Li   -0.00672    0.01222   -0.07091
 59 Li   -0.00309    0.00035   -0.06740
 60 Li    0.00047   -0.00230   -0.00570
 61 Li    0.00429    0.00376   -0.00088
 62 Li   -0.03896    0.04114   -0.03786
 63 Li   -0.00301    0.00770   -0.00537
 64 Li   -0.01124   -0.00575    0.06663
 65 Li   -0.01172   -0.00421    0.08499
 66 Li   -0.00029    0.00066   -0.02236
 67 Li   -0.00296   -0.00139   -0.06797
 68 Li   -0.00302   -0.00216    0.00050
 69 Li    0.00701    0.00336   -0.01199
 70 Li   -0.00362   -0.00283    0.00095
 71 Li   -0.00341   -0.00473   -0.00165
 72 Li    0.00286   -0.00170    0.24576

System changes: positions 

Initializing position-dependent things.

Density initialized from wave functions
       .-----------------------------------.  
      /|                                   |  
     / |                                   |  
    /  |                                   |  
   /   |                                   |  
  /    |                                   |  
 *     |                                   |  
 |     |                                   |  
 |     |                                   |  
 |     |                                   |  
 |     |                                   |  
 |     |                                   |  
 |     |                                   |  
 |    Li          Li                       |  
 |     |                      Li           |  
 |     |   Li          Li          Li      |  
 |  LLiLi       Li          Li             |  
 |     | Li Li       Li Li       Li Li   Li|  
 |Li   |  Li  Li Li       Li LiLi          |  
 |     Li          Li Li          Li       |  
 |    Li       Li Li       Li Li       Li  |  
 |     |Li Li       Li Li       Li Li      |  
 |  Li |     Li Li       Li Li             |  
 |     | Li Li       Li Li       Li Li     |  
 |Li Li|      Li Li       Li Li            |  
 |     Li Li       Li Li       Li Li       |  
 | Li  |       Li          Li              |  
 |     |Li          Li          Li         |  
 Li    |     Li          Li                |  
 |     |                                   |  
 |     |                                   |  
 |     |                                   |  
 |     |                                   |  
 |     |                                   |  
 |     .-----------------------------------.  
 |    /                                   /   
 |   /                                   /    
 |  /                                   /     
 | /                                   /      
 |/                                   /       
 *-----------------------------------*        

Atomic positions and initial magnetic moments

Positions:
   0 Li     0.000000    0.000000   10.000000    ( 0.0000,  0.0000,  0.0000)
   1 Li     2.467803    1.745000   10.000000    ( 0.0000,  0.0000,  0.0000)
   2 Li     2.467803    0.000000   12.467803    ( 0.0000,  0.0000,  0.0000)
   3 Li     0.000000    1.745000   12.467803    ( 0.0000,  0.0000,  0.0000)
   4 Li     0.003657   -0.043021   14.779481    ( 0.0000,  0.0000,  0.0000)
   5 Li     2.460075    1.791526   14.776139    ( 0.0000,  0.0000,  0.0000)
   6 Li     2.418325    0.060980   17.038455    ( 0.0000,  0.0000,  0.0000)
   7 Li     0.049213    1.682157   17.041982    ( 0.0000,  0.0000,  0.0000)
   8 Li     0.000000    3.490000   10.000000    ( 0.0000,  0.0000,  0.0000)
   9 Li     2.467803    5.235000   10.000000    ( 0.0000,  0.0000,  0.0000)
  10 Li     2.467803    3.490000   12.467803    ( 0.0000,  0.0000,  0.0000)
  11 Li     0.000000    5.235000   12.467803    ( 0.0000,  0.0000,  0.0000)
  12 Li    -0.009887    3.515299   14.827830    ( 0.0000,  0.0000,  0.0000)
  13 Li     2.477881    5.217674   14.940723    ( 0.0000,  0.0000,  0.0000)
  14 Li     2.410704    3.364958   17.361939    ( 0.0000,  0.0000,  0.0000)
  15 Li     0.028139    5.180815   17.303848    ( 0.0000,  0.0000,  0.0000)
  16 Li     0.000000    6.980000   10.000000    ( 0.0000,  0.0000,  0.0000)
  17 Li     2.467803    8.725000   10.000000    ( 0.0000,  0.0000,  0.0000)
  18 Li     2.467803    6.980000   12.467803    ( 0.0000,  0.0000,  0.0000)
  19 Li     0.000000    8.725000   12.467803    ( 0.0000,  0.0000,  0.0000)
  20 Li    -0.009260    6.998673   14.943580    ( 0.0000,  0.0000,  0.0000)
  21 Li     2.478046    8.696338   14.821375    ( 0.0000,  0.0000,  0.0000)
  22 Li     2.438394    7.035804   17.302736    ( 0.0000,  0.0000,  0.0000)
  23 Li     0.057606    8.850953   17.361541    ( 0.0000,  0.0000,  0.0000)
  24 Li     4.935605    0.000000   10.000000    ( 0.0000,  0.0000,  0.0000)
  25 Li     7.403408    1.745000   10.000000    ( 0.0000,  0.0000,  0.0000)
  26 Li     7.403408    0.000000   12.467803    ( 0.0000,  0.0000,  0.0000)
  27 Li     4.935605    1.745000   12.467803    ( 0.0000,  0.0000,  0.0000)
  28 Li     4.934904    0.001395   14.854393    ( 0.0000,  0.0000,  0.0000)
  29 Li     7.407938    1.743943   14.866995    ( 0.0000,  0.0000,  0.0000)
  30 Li     7.386784    0.000372   17.219549    ( 0.0000,  0.0000,  0.0000)
  31 Li     4.858889    1.678741   17.313555    ( 0.0000,  0.0000,  0.0000)
  32 Li     4.935605    3.490000   10.000000    ( 0.0000,  0.0000,  0.0000)
  33 Li     7.403408    5.235000   10.000000    ( 0.0000,  0.0000,  0.0000)
  34 Li     7.403408    3.490000   12.467803    ( 0.0000,  0.0000,  0.0000)
  35 Li     4.935605    5.235000   12.467803    ( 0.0000,  0.0000,  0.0000)
  36 Li     4.950126    3.470738   14.897061    ( 0.0000,  0.0000,  0.0000)
  37 Li     7.400703    5.236600   14.862346    ( 0.0000,  0.0000,  0.0000)
  38 Li     7.372329    3.473471   17.223267    ( 0.0000,  0.0000,  0.0000)
  39 Li     4.877083    5.218898   17.255827    ( 0.0000,  0.0000,  0.0000)
  40 Li     4.935605    6.980000   10.000000    ( 0.0000,  0.0000,  0.0000)
  41 Li     7.403408    8.725000   10.000000    ( 0.0000,  0.0000,  0.0000)
  42 Li     7.403408    6.980000   12.467803    ( 0.0000,  0.0000,  0.0000)
  43 Li     4.935605    8.725000   12.467803    ( 0.0000,  0.0000,  0.0000)
  44 Li     4.942681    6.997841   14.900553    ( 0.0000,  0.0000,  0.0000)
  45 Li     7.407952    8.724604   14.858642    ( 0.0000,  0.0000,  0.0000)
  46 Li     7.372207    6.996180   17.227414    ( 0.0000,  0.0000,  0.0000)
  47 Li     4.847872    8.807981   17.312897    ( 0.0000,  0.0000,  0.0000)
  48 Li     9.871211    0.000000   10.000000    ( 0.0000,  0.0000,  0.0000)
  49 Li    12.339013    1.745000   10.000000    ( 0.0000,  0.0000,  0.0000)
  50 Li    12.339013    0.000000   12.467803    ( 0.0000,  0.0000,  0.0000)
  51 Li     9.871211    1.745000   12.467803    ( 0.0000,  0.0000,  0.0000)
  52 Li     9.865736    0.001489   14.865998    ( 0.0000,  0.0000,  0.0000)
  53 Li    12.343189    1.744107   14.855157    ( 0.0000,  0.0000,  0.0000)
  54 Li    12.412270    0.065959   17.313443    ( 0.0000,  0.0000,  0.0000)
  55 Li     9.888762    1.745379   17.219624    ( 0.0000,  0.0000,  0.0000)
  56 Li     9.871211    3.490000   10.000000    ( 0.0000,  0.0000,  0.0000)
  57 Li    12.339013    5.235000   10.000000    ( 0.0000,  0.0000,  0.0000)
  58 Li    12.339013    3.490000   12.467803    ( 0.0000,  0.0000,  0.0000)
  59 Li     9.871211    5.235000   12.467803    ( 0.0000,  0.0000,  0.0000)
  60 Li     9.865744    3.490121   14.857676    ( 0.0000,  0.0000,  0.0000)
  61 Li    12.331867    5.218034   14.902462    ( 0.0000,  0.0000,  0.0000)
  62 Li    12.424368    3.407702   17.313713    ( 0.0000,  0.0000,  0.0000)
  63 Li     9.902731    5.219068   17.226104    ( 0.0000,  0.0000,  0.0000)
  64 Li     9.871211    6.980000   10.000000    ( 0.0000,  0.0000,  0.0000)
  65 Li    12.339013    8.725000   10.000000    ( 0.0000,  0.0000,  0.0000)
  66 Li    12.339013    6.980000   12.467803    ( 0.0000,  0.0000,  0.0000)
  67 Li     9.871211    8.725000   12.467803    ( 0.0000,  0.0000,  0.0000)
  68 Li     9.873340    6.978626   14.860763    ( 0.0000,  0.0000,  0.0000)
  69 Li    12.324623    8.743676   14.897930    ( 0.0000,  0.0000,  0.0000)
  70 Li    12.397585    6.997546   17.255882    ( 0.0000,  0.0000,  0.0000)
  71 Li     9.902392    8.741170   17.222168    ( 0.0000,  0.0000,  0.0000)
  72 Li     1.234282    0.873030   19.328468    ( 0.0000,  0.0000,  0.0000)

Unit cell:
           periodic     x           y           z      points  spacing
  1. axis:    yes   14.806816    0.000000    0.000000    76     0.1948
  2. axis:    yes    0.000000   10.470000    0.000000    52     0.2013
  3. axis:    no     0.000000    0.000000   27.403408   136     0.2015

  Lengths:  14.806816  10.470000  27.403408
  Angles:   90.000000  90.000000  90.000000

Effective grid spacing dv^(1/3) = 0.1992

     iter     time        total  log10-change:
                         energy   eigst   dens
iter:   1 05:26:40  -127.056155        c
iter:   2 05:26:51  -127.056371        c -3.20
iter:   3 05:27:03  -127.056595c       c -3.35
iter:   4 05:27:14  -127.056816c       c -3.65
iter:   5 05:27:25  -127.056711c       c -3.80
iter:   6 05:27:35  -127.056688c       c -4.09c

Converged after 6 iterations.

Dipole moment: (-16.734930, -11.176607, 0.284659) |e|*Ang

Energy contributions relative to reference atoms: (reference = -14803.510878)

Kinetic:       +134.989851
Potential:     -115.962923
External:        +0.000000
XC:            -144.122680
Entropy (-ST):   -2.109202
Local:           -0.906334
SIC:             +0.000000
--------------------------
Free energy:   -128.111289
Extrapolated:  -127.056688

 Band  Eigenvalues  Occupancy
    0     -6.37957    2.00000
    1     -5.86642    2.00000
    2     -5.85428    2.00000
    3     -5.79425    2.00000
    4     -5.34109    2.00000
    5     -5.33299    2.00000
    6     -5.27233    2.00000
    7     -5.25188    2.00000
    8     -4.83764    2.00000
    9     -4.82562    1.99999
   10     -4.81608    1.99999
   11     -4.81354    1.99999
   12     -4.77227    1.99999
   13     -4.74226    1.99999
   14     -4.68532    1.99999
   15     -4.32428    1.99985
   16     -4.30312    1.99982
   17     -4.27115    1.99978
   18     -4.24711    1.99974
   19     -4.22986    1.99971
   20     -4.22558    1.99971
   21     -4.15747    1.99954
   22     -4.11585    1.99939
   23     -3.72842    1.99192
   24     -3.66698    1.98785
   25     -3.65017    1.98642
   26     -3.63498    1.98498
   27     -3.43188    1.94307
   28     -3.25927    1.83050
   29     -3.25727    1.82842
   30     -3.25483    1.82586
   31     -3.24712    1.81751
   32     -3.16787    1.70895
   33     -3.16276    1.70038
   34     -3.14760    1.67372
   35     -3.13421    1.64861
   36     -2.85823    0.85401
   37     -2.74552    0.52019
   38     -2.67503    0.36028
   39     -2.67304    0.35637
   40     -2.65472    0.32199
   41     -2.65163    0.31647
   42     -2.48099    0.11368
   43     -2.47291    0.10804
   44     -2.35494    0.05070
   45     -2.33154    0.04353
   46     -2.21853    0.02073
   47     -2.08051    0.00831

Fermi level: -2.90234

Gap: 0.276 eV
Transition (v -> c):
  (s=0, k=0, n=35, [0.00, 0.00, 0.00]) -> (s=0, k=0, n=36, [0.00, 0.00, 0.00])
No difference between direct/indirect transitions

Forces in eV/Ang:
  0 Li   -0.00093    0.00414    0.09707
  1 Li    0.00135   -0.00223    0.09797
  2 Li    0.00375   -0.01506   -0.08010
  3 Li   -0.00583    0.01681   -0.07993
  4 Li   -0.00819   -0.00631    0.00178
  5 Li    0.01430    0.00135    0.00648
  6 Li    0.11776   -0.10364   -0.15250
  7 Li   -0.12060    0.10464   -0.15259
  8 Li   -0.00559   -0.01033    0.10014
  9 Li    0.01152   -0.00615    0.10018
 10 Li    0.00508    0.04937   -0.10710
 11 Li   -0.00202    0.02904   -0.05545
 12 Li   -0.00401    0.00814   -0.01096
 13 Li   -0.00987   -0.00273   -0.02461
 14 Li    0.00502   -0.01253   -0.02237
 15 Li    0.01182    0.02165   -0.00637
 16 Li   -0.01225    0.00604    0.09891
 17 Li    0.00605    0.00856    0.10129
 18 Li    0.00052   -0.03020   -0.05896
 19 Li   -0.00704   -0.04951   -0.10471
 20 Li    0.00592    0.00211   -0.02720
 21 Li    0.00332   -0.00216   -0.00128
 22 Li   -0.01042   -0.02248   -0.00669
 23 Li   -0.00549    0.01560   -0.01956
 24 Li    0.00340   -0.00184    0.08676
 25 Li    0.00454    0.00678    0.08580
 26 Li   -0.00518   -0.00040   -0.07149
 27 Li    0.00923    0.01250   -0.07786
 28 Li   -0.00943    0.00397    0.03141
 29 Li    0.00076   -0.00339   -0.01103
 30 Li    0.01469    0.00042   -0.01514
 31 Li    0.01446    0.03725   -0.00058
 32 Li    0.01076    0.00040    0.08493
 33 Li    0.01156    0.00753    0.06599
 34 Li    0.00115    0.00006   -0.06779
 35 Li    0.00357    0.00017   -0.02291
 36 Li   -0.00511   -0.00347   -0.00918
 37 Li    0.00199    0.00310   -0.00350
 38 Li    0.00368    0.00395   -0.00189
 39 Li    0.00291    0.00383   -0.00172
 40 Li    0.02137    0.00140    0.08580
 41 Li    0.00693   -0.01446    0.07513
 42 Li    0.00138    0.00018   -0.06774
 43 Li    0.01040   -0.01334   -0.07201
 44 Li    0.00057   -0.00358    0.00187
 45 Li    0.00114   -0.00072   -0.00915
 46 Li    0.00229   -0.00542   -0.00553
 47 Li    0.04134   -0.04165   -0.03700
 48 Li   -0.00518   -0.00684    0.08720
 49 Li   -0.00318    0.00372    0.08646
 50 Li   -0.00606   -0.01172   -0.07693
 51 Li    0.00366    0.00126   -0.07066
 52 Li    0.00008    0.00483   -0.00760
 53 Li    0.00303   -0.00227    0.03091
 54 Li   -0.01134   -0.03832   -0.00038
 55 Li   -0.01709    0.00033   -0.01588
 56 Li   -0.00656    0.01269    0.07615
 57 Li   -0.02105    0.00051    0.08626
 58 Li   -0.00680    0.01204   -0.07050
 59 Li   -0.00305    0.00039   -0.06735
 60 Li    0.00039   -0.00198   -0.00565
 61 Li    0.00417    0.00391   -0.00149
 62 Li   -0.03956    0.04160   -0.03658
 63 Li   -0.00354    0.00775   -0.00542
 64 Li   -0.01115   -0.00570    0.06676
 65 Li   -0.01155   -0.00416    0.08496
 66 Li   -0.00026    0.00055   -0.02240
 67 Li   -0.00288   -0.00144   -0.06785
 68 Li   -0.00265   -0.00201    0.00031
 69 Li    0.00670    0.00298   -0.01142
 70 Li   -0.00339   -0.00233    0.00080
 71 Li   -0.00365   -0.00499   -0.00176
 72 Li    0.00277   -0.00165    0.21592

System changes: positions 

Initializing position-dependent things.

Density initialized from wave functions
       .-----------------------------------.  
      /|                                   |  
     / |                                   |  
    /  |                                   |  
   /   |                                   |  
  /    |                                   |  
 *     |                                   |  
 |     |                                   |  
 |     |                                   |  
 |     |                                   |  
 |     |                                   |  
 |     |                                   |  
 |     |                                   |  
 |    Li          Li                       |  
 |     |                      Li           |  
 |     |   Li          Li          Li      |  
 |  LLiLi       Li          Li             |  
 |     | Li Li       Li Li       Li Li   Li|  
 |Li   |  Li  Li Li       Li LiLi          |  
 |     Li          Li Li          Li       |  
 |    Li       Li Li       Li Li       Li  |  
 |     |Li Li       Li Li       Li Li      |  
 |  Li |     Li Li       Li Li             |  
 |     | Li Li       Li Li       Li Li     |  
 |Li Li|      Li Li       Li Li            |  
 |     Li Li       Li Li       Li Li       |  
 | Li  |       Li          Li              |  
 |     |Li          Li          Li         |  
 Li    |     Li          Li                |  
 |     |                                   |  
 |     |                                   |  
 |     |                                   |  
 |     |                                   |  
 |     |                                   |  
 |     .-----------------------------------.  
 |    /                                   /   
 |   /                                   /    
 |  /                                   /     
 | /                                   /      
 |/                                   /       
 *-----------------------------------*        

Atomic positions and initial magnetic moments

Positions:
   0 Li     0.000000    0.000000   10.000000    ( 0.0000,  0.0000,  0.0000)
   1 Li     2.467803    1.745000   10.000000    ( 0.0000,  0.0000,  0.0000)
   2 Li     2.467803    0.000000   12.467803    ( 0.0000,  0.0000,  0.0000)
   3 Li     0.000000    1.745000   12.467803    ( 0.0000,  0.0000,  0.0000)
   4 Li     0.003293   -0.043259   14.779640    ( 0.0000,  0.0000,  0.0000)
   5 Li     2.460701    1.791531   14.776523    ( 0.0000,  0.0000,  0.0000)
   6 Li     2.423776    0.056292   17.031457    ( 0.0000,  0.0000,  0.0000)
   7 Li     0.043628    1.686906   17.034863    ( 0.0000,  0.0000,  0.0000)
   8 Li     0.000000    3.490000   10.000000    ( 0.0000,  0.0000,  0.0000)
   9 Li     2.467803    5.235000   10.000000    ( 0.0000,  0.0000,  0.0000)
  10 Li     2.467803    3.490000   12.467803    ( 0.0000,  0.0000,  0.0000)
  11 Li     0.000000    5.235000   12.467803    ( 0.0000,  0.0000,  0.0000)
  12 Li    -0.010058    3.515533   14.827484    ( 0.0000,  0.0000,  0.0000)
  13 Li     2.477469    5.217571   14.939678    ( 0.0000,  0.0000,  0.0000)
  14 Li     2.410970    3.364447   17.361015    ( 0.0000,  0.0000,  0.0000)
  15 Li     0.028651    5.181730   17.303610    ( 0.0000,  0.0000,  0.0000)
  16 Li     0.000000    6.980000   10.000000    ( 0.0000,  0.0000,  0.0000)
  17 Li     2.467803    8.725000   10.000000    ( 0.0000,  0.0000,  0.0000)
  18 Li     2.467803    6.980000   12.467803    ( 0.0000,  0.0000,  0.0000)
  19 Li     0.000000    8.725000   12.467803    ( 0.0000,  0.0000,  0.0000)
  20 Li    -0.009015    6.998741   14.942426    ( 0.0000,  0.0000,  0.0000)
  21 Li     2.478188    8.696389   14.821482    ( 0.0000,  0.0000,  0.0000)
  22 Li     2.437932    7.034833   17.302472    ( 0.0000,  0.0000,  0.0000)
  23 Li     0.057299    8.851594   17.360724    ( 0.0000,  0.0000,  0.0000)
  24 Li     4.935605    0.000000   10.000000    ( 0.0000,  0.0000,  0.0000)
  25 Li     7.403408    1.745000   10.000000    ( 0.0000,  0.0000,  0.0000)
  26 Li     7.403408    0.000000   12.467803    ( 0.0000,  0.0000,  0.0000)
  27 Li     4.935605    1.745000   12.467803    ( 0.0000,  0.0000,  0.0000)
  28 Li     4.934464    0.001558   14.855778    ( 0.0000,  0.0000,  0.0000)
  29 Li     7.407971    1.743792   14.866541    ( 0.0000,  0.0000,  0.0000)
  30 Li     7.387419    0.000392   17.218916    ( 0.0000,  0.0000,  0.0000)
  31 Li     4.859442    1.680327   17.313503    ( 0.0000,  0.0000,  0.0000)
  32 Li     4.935605    3.490000   10.000000    ( 0.0000,  0.0000,  0.0000)
  33 Li     7.403408    5.235000   10.000000    ( 0.0000,  0.0000,  0.0000)
  34 Li     7.403408    3.490000   12.467803    ( 0.0000,  0.0000,  0.0000)
  35 Li     4.935605    5.235000   12.467803    ( 0.0000,  0.0000,  0.0000)
  36 Li     4.949909    3.470583   14.896663    ( 0.0000,  0.0000,  0.0000)
  37 Li     7.400795    5.236737   14.862202    ( 0.0000,  0.0000,  0.0000)
  38 Li     7.372477    3.473621   17.223197    ( 0.0000,  0.0000,  0.0000)
  39 Li     4.877209    5.219076   17.255754    ( 0.0000,  0.0000,  0.0000)
  40 Li     4.935605    6.980000   10.000000    ( 0.0000,  0.0000,  0.0000)
  41 Li     7.403408    8.725000   10.000000    ( 0.0000,  0.0000,  0.0000)
  42 Li     7.403408    6.980000   12.467803    ( 0.0000,  0.0000,  0.0000)
  43 Li     4.935605    8.725000   12.467803    ( 0.0000,  0.0000,  0.0000)
  44 Li     4.942712    6.997696   14.900656    ( 0.0000,  0.0000,  0.0000)
  45 Li     7.407996    8.724575   14.858259    ( 0.0000,  0.0000,  0.0000)
  46 Li     7.372282    6.995962   17.227191    ( 0.0000,  0.0000,  0.0000)
  47 Li     4.849543    8.806290   17.311323    ( 0.0000,  0.0000,  0.0000)
  48 Li     9.871211    0.000000   10.000000    ( 0.0000,  0.0000,  0.0000)
  49 Li    12.339013    1.745000   10.000000    ( 0.0000,  0.0000,  0.0000)
  50 Li    12.339013    0.000000   12.467803    ( 0.0000,  0.0000,  0.0000)
  51 Li     9.871211    1.745000   12.467803    ( 0.0000,  0.0000,  0.0000)
  52 Li     9.865738    0.001704   14.865689    ( 0.0000,  0.0000,  0.0000)
  53 Li    12.343350    1.744018   14.856513    ( 0.0000,  0.0000,  0.0000)
  54 Li    12.411868    0.064351   17.313430    ( 0.0000,  0.0000,  0.0000)
  55 Li     9.888027    1.745392   17.218956    ( 0.0000,  0.0000,  0.0000)
  56 Li     9.871211    3.490000   10.000000    ( 0.0000,  0.0000,  0.0000)
  57 Li    12.339013    5.235000   10.000000    ( 0.0000,  0.0000,  0.0000)
  58 Li    12.339013    3.490000   12.467803    ( 0.0000,  0.0000,  0.0000)
  59 Li     9.871211    5.235000   12.467803    ( 0.0000,  0.0000,  0.0000)
  60 Li     9.865763    3.490028   14.857445    ( 0.0000,  0.0000,  0.0000)
  61 Li    12.332039    5.218185   14.902430    ( 0.0000,  0.0000,  0.0000)
  62 Li    12.422783    3.409372   17.312184    ( 0.0000,  0.0000,  0.0000)
  63 Li     9.902613    5.219379   17.225887    ( 0.0000,  0.0000,  0.0000)
  64 Li     9.871211    6.980000   10.000000    ( 0.0000,  0.0000,  0.0000)
  65 Li    12.339013    8.725000   10.000000    ( 0.0000,  0.0000,  0.0000)
  66 Li    12.339013    6.980000   12.467803    ( 0.0000,  0.0000,  0.0000)
  67 Li     9.871211    8.725000   12.467803    ( 0.0000,  0.0000,  0.0000)
  68 Li     9.873218    6.978538   14.860785    ( 0.0000,  0.0000,  0.0000)
  69 Li    12.324906    8.743814   14.897446    ( 0.0000,  0.0000,  0.0000)
  70 Li    12.397436    6.997427   17.255925    ( 0.0000,  0.0000,  0.0000)
  71 Li     9.902257    8.740979   17.222103    ( 0.0000,  0.0000,  0.0000)
  72 Li     1.234191    0.873108   19.338500    ( 0.0000,  0.0000,  0.0000)

Unit cell:
           periodic     x           y           z      points  spacing
  1. axis:    yes   14.806816    0.000000    0.000000    76     0.1948
  2. axis:    yes    0.000000   10.470000    0.000000    52     0.2013
  3. axis:    no     0.000000    0.000000   27.403408   136     0.2015

  Lengths:  14.806816  10.470000  27.403408
  Angles:   90.000000  90.000000  90.000000

Effective grid spacing dv^(1/3) = 0.1992

     iter     time        total  log10-change:
                         energy   eigst   dens
iter:   1 05:35:01  -127.062906        c
iter:   2 05:35:12  -127.063151        c -3.11
iter:   3 05:35:23  -127.063410c       c -3.25
iter:   4 05:35:34  -127.063700c       c -3.53
iter:   5 05:35:44  -127.063569c       c -3.68
iter:   6 05:35:54  -127.063517c       c -3.97
iter:   7 05:36:05  -127.063515c       c -4.08c

Converged after 7 iterations.

Dipole moment: (-16.634968, -11.095600, 0.289048) |e|*Ang

Energy contributions relative to reference atoms: (reference = -14803.510878)

Kinetic:       +134.923714
Potential:     -115.917265
External:        +0.000000
XC:            -144.109090
Entropy (-ST):   -2.109349
Local:           -0.906200
SIC:             +0.000000
--------------------------
Free energy:   -128.118190
Extrapolated:  -127.063515

 Band  Eigenvalues  Occupancy
    0     -6.37825    2.00000
    1     -5.86506    2.00000
    2     -5.85303    2.00000
    3     -5.79280    2.00000
    4     -5.33969    2.00000
    5     -5.33174    2.00000
    6     -5.27072    2.00000
    7     -5.25067    2.00000
    8     -4.83603    2.00000
    9     -4.82429    1.99999
   10     -4.81484    1.99999
   11     -4.81240    1.99999
   12     -4.77047    1.99999
   13     -4.74093    1.99999
   14     -4.68390    1.99999
   15     -4.32273    1.99985
   16     -4.30185    1.99982
   17     -4.26947    1.99978
   18     -4.24557    1.99974
   19     -4.22855    1.99971
   20     -4.22456    1.99971
   21     -4.15605    1.99954
   22     -4.11428    1.99939
   23     -3.72656    1.99190
   24     -3.66546    1.98785
   25     -3.64906    1.98646
   26     -3.63315    1.98495
   27     -3.43053    1.94313
   28     -3.25790    1.83063
   29     -3.25589    1.82854
   30     -3.25341    1.82594
   31     -3.24603    1.81796
   32     -3.16624    1.70874
   33     -3.16087    1.69972
   34     -3.14592    1.67338
   35     -3.13279    1.64876
   36     -2.85681    0.85426
   37     -2.74357    0.51902
   38     -2.67352    0.36024
   39     -2.67136    0.35602
   40     -2.65343    0.32237
   41     -2.65081    0.31767
   42     -2.47922    0.11348
   43     -2.47128    0.10795
   44     -2.35422    0.05095
   45     -2.33032    0.04361
   46     -2.21646    0.02065
   47     -2.07934    0.00833

Fermi level: -2.90085

Gap: 0.276 eV
Transition (v -> c):
  (s=0, k=0, n=35, [0.00, 0.00, 0.00]) -> (s=0, k=0, n=36, [0.00, 0.00, 0.00])
No difference between direct/indirect transitions

Forces in eV/Ang:
  0 Li   -0.00094    0.00408    0.09704
  1 Li    0.00137   -0.00218    0.09793
  2 Li    0.00383   -0.01506   -0.07948
  3 Li   -0.00589    0.01676   -0.07938
  4 Li   -0.00717   -0.00705   -0.00110
  5 Li    0.01283    0.00260    0.00321
  6 Li    0.09768   -0.08896   -0.12691
  7 Li   -0.10049    0.09020   -0.12716
  8 Li   -0.00552   -0.01032    0.10017
  9 Li    0.01141   -0.00617    0.10003
 10 Li    0.00506    0.04906   -0.10746
 11 Li   -0.00204    0.02899   -0.05613
 12 Li   -0.00371    0.01154   -0.01466
 13 Li   -0.00952   -0.00302   -0.02320
 14 Li    0.00300   -0.01233   -0.02204
 15 Li    0.01059    0.02026   -0.00717
 16 Li   -0.01213    0.00606    0.09875
 17 Li    0.00598    0.00854    0.10130
 18 Li    0.00052   -0.02999   -0.05933
 19 Li   -0.00701   -0.04931   -0.10526
 20 Li    0.00586    0.00253   -0.02558
 21 Li    0.00315   -0.00619   -0.00571
 22 Li   -0.00926   -0.02093   -0.00735
 23 Li   -0.00334    0.01511   -0.01938
 24 Li    0.00339   -0.00176    0.08666
 25 Li    0.00449    0.00668    0.08565
 26 Li   -0.00531   -0.00040   -0.07163
 27 Li    0.00932    0.01205   -0.07765
 28 Li   -0.00758    0.00388    0.02811
 29 Li    0.00062   -0.00300   -0.01078
 30 Li    0.01363    0.00033   -0.01462
 31 Li    0.01582    0.03538   -0.00026
 32 Li    0.01062    0.00029    0.08485
 33 Li    0.01149    0.00744    0.06605
 34 Li    0.00105    0.00010   -0.06785
 35 Li    0.00356    0.00027   -0.02292
 36 Li   -0.00484   -0.00295   -0.00860
 37 Li    0.00164    0.00274   -0.00338
 38 Li    0.00397    0.00436   -0.00217
 39 Li    0.00267    0.00309   -0.00181
 40 Li    0.02124    0.00143    0.08583
 41 Li    0.00694   -0.01427    0.07512
 42 Li    0.00135    0.00014   -0.06792
 43 Li    0.01049   -0.01301   -0.07137
 44 Li    0.00025   -0.00371    0.00087
 45 Li    0.00107   -0.00070   -0.00871
 46 Li    0.00301   -0.00558   -0.00565
 47 Li    0.04184   -0.04211   -0.03536
 48 Li   -0.00513   -0.00674    0.08704
 49 Li   -0.00317    0.00364    0.08636
 50 Li   -0.00614   -0.01125   -0.07674
 51 Li    0.00378    0.00126   -0.07073
 52 Li    0.00014    0.00425   -0.00760
 53 Li    0.00190   -0.00235    0.02779
 54 Li   -0.01306   -0.03641   -0.00013
 55 Li   -0.01577    0.00036   -0.01516
 56 Li   -0.00656    0.01250    0.07615
 57 Li   -0.02092    0.00048    0.08628
 58 Li   -0.00689    0.01172   -0.06996
 59 Li   -0.00302    0.00041   -0.06738
 60 Li    0.00036   -0.00162   -0.00548
 61 Li    0.00404    0.00409   -0.00221
 62 Li   -0.04021    0.04208   -0.03495
 63 Li   -0.00420    0.00778   -0.00549
 64 Li   -0.01108   -0.00560    0.06682
 65 Li   -0.01142   -0.00405    0.08489
 66 Li   -0.00024    0.00046   -0.02248
 67 Li   -0.00278   -0.00146   -0.06779
 68 Li   -0.00213   -0.00176    0.00014
 69 Li    0.00629    0.00253   -0.01064
 70 Li   -0.00308   -0.00169    0.00054
 71 Li   -0.00395   -0.00525   -0.00194
 72 Li    0.00267   -0.00162    0.17893

System changes: positions 

Initializing position-dependent things.

Density initialized from wave functions
       .-----------------------------------.  
      /|                                   |  
     / |                                   |  
    /  |                                   |  
   /   |                                   |  
  /    |                                   |  
 *     |                                   |  
 |     |                                   |  
 |     |                                   |  
 |     |                                   |  
 |     |                                   |  
 |     |                                   |  
 |     |                                   |  
 |    Li          Li                       |  
 |     |                      Li           |  
 |   Li|   Li          Li          Li      |  
 |  Li Li       Li          Li             |  
 |     | Li Li       Li Li       Li Li   Li|  
 |Li   |  Li  Li Li       Li LiLi          |  
 |     Li          Li Li          Li       |  
 |    Li       Li Li       Li Li       Li  |  
 |     |Li Li       Li Li       Li Li      |  
 |  Li |     Li Li       Li Li             |  
 |     | Li Li       Li Li       Li Li     |  
 |Li Li|      Li Li       Li Li            |  
 |     Li Li       Li Li       Li Li       |  
 | Li  |       Li          Li              |  
 |     |Li          Li          Li         |  
 Li    |     Li          Li                |  
 |     |                                   |  
 |     |                                   |  
 |     |                                   |  
 |     |                                   |  
 |     |                                   |  
 |     .-----------------------------------.  
 |    /                                   /   
 |   /                                   /    
 |  /                                   /     
 | /                                   /      
 |/                                   /       
 *-----------------------------------*        

Atomic positions and initial magnetic moments

Positions:
   0 Li     0.000000    0.000000   10.000000    ( 0.0000,  0.0000,  0.0000)
   1 Li     2.467803    1.745000   10.000000    ( 0.0000,  0.0000,  0.0000)
   2 Li     2.467803    0.000000   12.467803    ( 0.0000,  0.0000,  0.0000)
   3 Li     0.000000    1.745000   12.467803    ( 0.0000,  0.0000,  0.0000)
   4 Li     0.002855   -0.043585   14.779763    ( 0.0000,  0.0000,  0.0000)
   5 Li     2.461460    1.791574   14.776920    ( 0.0000,  0.0000,  0.0000)
   6 Li     2.430180    0.050710   17.023227    ( 0.0000,  0.0000,  0.0000)
   7 Li     0.037056    1.692570   17.026486    ( 0.0000,  0.0000,  0.0000)
   8 Li     0.000000    3.490000   10.000000    ( 0.0000,  0.0000,  0.0000)
   9 Li     2.467803    5.235000   10.000000    ( 0.0000,  0.0000,  0.0000)
  10 Li     2.467803    3.490000   12.467803    ( 0.0000,  0.0000,  0.0000)
  11 Li     0.000000    5.235000   12.467803    ( 0.0000,  0.0000,  0.0000)
  12 Li    -0.010268    3.515923   14.826942    ( 0.0000,  0.0000,  0.0000)
  13 Li     2.476952    5.217430   14.938381    ( 0.0000,  0.0000,  0.0000)
  14 Li     2.411253    3.363798   17.359845    ( 0.0000,  0.0000,  0.0000)
  15 Li     0.029273    5.182861   17.303286    ( 0.0000,  0.0000,  0.0000)
  16 Li     0.000000    6.980000   10.000000    ( 0.0000,  0.0000,  0.0000)
  17 Li     2.467803    8.725000   10.000000    ( 0.0000,  0.0000,  0.0000)
  18 Li     2.467803    6.980000   12.467803    ( 0.0000,  0.0000,  0.0000)
  19 Li     0.000000    8.725000   12.467803    ( 0.0000,  0.0000,  0.0000)
  20 Li    -0.008704    6.998841   14.940994    ( 0.0000,  0.0000,  0.0000)
  21 Li     2.478365    8.696342   14.821497    ( 0.0000,  0.0000,  0.0000)
  22 Li     2.437373    7.033634   17.302121    ( 0.0000,  0.0000,  0.0000)
  23 Li     0.056968    8.852402   17.359689    ( 0.0000,  0.0000,  0.0000)
  24 Li     4.935605    0.000000   10.000000    ( 0.0000,  0.0000,  0.0000)
  25 Li     7.403408    1.745000   10.000000    ( 0.0000,  0.0000,  0.0000)
  26 Li     7.403408    0.000000   12.467803    ( 0.0000,  0.0000,  0.0000)
  27 Li     4.935605    1.745000   12.467803    ( 0.0000,  0.0000,  0.0000)
  28 Li     4.933952    0.001765   14.857456    ( 0.0000,  0.0000,  0.0000)
  29 Li     7.408010    1.743611   14.865966    ( 0.0000,  0.0000,  0.0000)
  30 Li     7.388201    0.000415   17.218120    ( 0.0000,  0.0000,  0.0000)
  31 Li     4.860186    1.682301   17.313447    ( 0.0000,  0.0000,  0.0000)
  32 Li     4.935605    3.490000   10.000000    ( 0.0000,  0.0000,  0.0000)
  33 Li     7.403408    5.235000   10.000000    ( 0.0000,  0.0000,  0.0000)
  34 Li     7.403408    3.490000   12.467803    ( 0.0000,  0.0000,  0.0000)
  35 Li     4.935605    5.235000   12.467803    ( 0.0000,  0.0000,  0.0000)
  36 Li     4.949640    3.470400   14.896171    ( 0.0000,  0.0000,  0.0000)
  37 Li     7.400902    5.236903   14.862020    ( 0.0000,  0.0000,  0.0000)
  38 Li     7.372672    3.473823   17.223100    ( 0.0000,  0.0000,  0.0000)
  39 Li     4.877363    5.219283   17.255660    ( 0.0000,  0.0000,  0.0000)
  40 Li     4.935605    6.980000   10.000000    ( 0.0000,  0.0000,  0.0000)
  41 Li     7.403408    8.725000   10.000000    ( 0.0000,  0.0000,  0.0000)
  42 Li     7.403408    6.980000   12.467803    ( 0.0000,  0.0000,  0.0000)
  43 Li     4.935605    8.725000   12.467803    ( 0.0000,  0.0000,  0.0000)
  44 Li     4.942743    6.997507   14.900761    ( 0.0000,  0.0000,  0.0000)
  45 Li     7.408053    8.724538   14.857779    ( 0.0000,  0.0000,  0.0000)
  46 Li     7.372398    6.995679   17.226903    ( 0.0000,  0.0000,  0.0000)
  47 Li     4.851692    8.804119   17.309358    ( 0.0000,  0.0000,  0.0000)
  48 Li     9.871211    0.000000   10.000000    ( 0.0000,  0.0000,  0.0000)
  49 Li    12.339013    1.745000   10.000000    ( 0.0000,  0.0000,  0.0000)
  50 Li    12.339013    0.000000   12.467803    ( 0.0000,  0.0000,  0.0000)
  51 Li     9.871211    1.745000   12.467803    ( 0.0000,  0.0000,  0.0000)
  52 Li     9.865742    0.001963   14.865295    ( 0.0000,  0.0000,  0.0000)
  53 Li    12.343524    1.743902   14.858159    ( 0.0000,  0.0000,  0.0000)
  54 Li    12.411308    0.062348   17.313419    ( 0.0000,  0.0000,  0.0000)
  55 Li     9.887124    1.745409   17.218123    ( 0.0000,  0.0000,  0.0000)
  56 Li     9.871211    3.490000   10.000000    ( 0.0000,  0.0000,  0.0000)
  57 Li    12.339013    5.235000   10.000000    ( 0.0000,  0.0000,  0.0000)
  58 Li    12.339013    3.490000   12.467803    ( 0.0000,  0.0000,  0.0000)
  59 Li     9.871211    5.235000   12.467803    ( 0.0000,  0.0000,  0.0000)
  60 Li     9.865786    3.489919   14.857153    ( 0.0000,  0.0000,  0.0000)
  61 Li    12.332255    5.218383   14.902370    ( 0.0000,  0.0000,  0.0000)
  62 Li    12.420739    3.411520   17.310274    ( 0.0000,  0.0000,  0.0000)
  63 Li     9.902444    5.219779   17.225607    ( 0.0000,  0.0000,  0.0000)
  64 Li     9.871211    6.980000   10.000000    ( 0.0000,  0.0000,  0.0000)
  65 Li    12.339013    8.725000   10.000000    ( 0.0000,  0.0000,  0.0000)
  66 Li    12.339013    6.980000   12.467803    ( 0.0000,  0.0000,  0.0000)
[...]
 48 Li   -0.00508   -0.00656    0.08640
 49 Li   -0.00331    0.00341    0.08592
 50 Li   -0.00644   -0.01006   -0.07617
 51 Li    0.00401    0.00126   -0.07100
 52 Li    0.00039    0.00269   -0.00742
 53 Li   -0.00096   -0.00253    0.01958
 54 Li   -0.01698   -0.03094    0.00042
 55 Li   -0.01229    0.00040   -0.01312
 56 Li   -0.00669    0.01212    0.07589
 57 Li   -0.02079    0.00048    0.08612
 58 Li   -0.00724    0.01086   -0.06856
 59 Li   -0.00306    0.00058   -0.06768
 60 Li    0.00034   -0.00070   -0.00491
 61 Li    0.00353    0.00470   -0.00402
 62 Li   -0.04109    0.04255   -0.03049
 63 Li   -0.00590    0.00787   -0.00560
 64 Li   -0.01104   -0.00537    0.06676
 65 Li   -0.01130   -0.00382    0.08449
 66 Li   -0.00035    0.00027   -0.02283
 67 Li   -0.00258   -0.00160   -0.06778
 68 Li   -0.00080   -0.00106   -0.00034
 69 Li    0.00503    0.00140   -0.00858
 70 Li   -0.00234   -0.00002   -0.00015
 71 Li   -0.00476   -0.00579   -0.00241
 72 Li    0.00211   -0.00163    0.09304

System changes: positions 

Initializing position-dependent things.

Density initialized from wave functions
       .-----------------------------------.  
      /|                                   |  
     / |                                   |  
    /  |                                   |  
   /   |                                   |  
  /    |                                   |  
 *     |                                   |  
 |     |                                   |  
 |     |                                   |  
 |     |                                   |  
 |     |                                   |  
 |     |                                   |  
 |     |                                   |  
 |    Li          Li                       |  
 |     |                      Li           |  
 |   Li|   Li          Li          Li      |  
 |  Li Li       Li          Li             |  
 |     | Li Li       Li Li       Li Li   Li|  
 |Li   |  Li  Li Li       Li LiLi          |  
 |     Li          Li Li          Li       |  
 |    Li       Li Li       Li Li       Li  |  
 |     |Li Li       Li Li       Li Li      |  
 |  Li |     Li Li       Li Li             |  
 |     | Li Li       Li Li       Li Li     |  
 |Li Li|      Li Li       Li Li            |  
 |     Li Li       Li Li       Li Li       |  
 | Li  |       Li          Li              |  
 |     |Li          Li          Li         |  
 Li    |     Li          Li                |  
 |     |                                   |  
 |     |                                   |  
 |     |                                   |  
 |     |                                   |  
 |     |                                   |  
 |     .-----------------------------------.  
 |    /                                   /   
 |   /                                   /    
 |  /                                   /     
 | /                                   /      
 |/                                   /       
 *-----------------------------------*        

Atomic positions and initial magnetic moments

Positions:
   0 Li     0.000000    0.000000   10.000000    ( 0.0000,  0.0000,  0.0000)
   1 Li     2.467803    1.745000   10.000000    ( 0.0000,  0.0000,  0.0000)
   2 Li     2.467803    0.000000   12.467803    ( 0.0000,  0.0000,  0.0000)
   3 Li     0.000000    1.745000   12.467803    ( 0.0000,  0.0000,  0.0000)
   4 Li     0.001813   -0.044591   14.779651    ( 0.0000,  0.0000,  0.0000)
   5 Li     2.463317    1.791891   14.777494    ( 0.0000,  0.0000,  0.0000)
   6 Li     2.444712    0.037613   17.004511    ( 0.0000,  0.0000,  0.0000)
   7 Li     0.022079    1.705904   17.007400    ( 0.0000,  0.0000,  0.0000)
   8 Li     0.000000    3.490000   10.000000    ( 0.0000,  0.0000,  0.0000)
   9 Li     2.467803    5.235000   10.000000    ( 0.0000,  0.0000,  0.0000)
  10 Li     2.467803    3.490000   12.467803    ( 0.0000,  0.0000,  0.0000)
  11 Li     0.000000    5.235000   12.467803    ( 0.0000,  0.0000,  0.0000)
  12 Li    -0.010803    3.517536   14.824864    ( 0.0000,  0.0000,  0.0000)
  13 Li     2.475585    5.216997   14.935033    ( 0.0000,  0.0000,  0.0000)
  14 Li     2.411721    3.362043   17.356657    ( 0.0000,  0.0000,  0.0000)
  15 Li     0.030786    5.185764   17.302253    ( 0.0000,  0.0000,  0.0000)
  16 Li     0.000000    6.980000   10.000000    ( 0.0000,  0.0000,  0.0000)
  17 Li     2.467803    8.725000   10.000000    ( 0.0000,  0.0000,  0.0000)
  18 Li     2.467803    6.980000   12.467803    ( 0.0000,  0.0000,  0.0000)
  19 Li     0.000000    8.725000   12.467803    ( 0.0000,  0.0000,  0.0000)
  20 Li    -0.007857    6.999187   14.937306    ( 0.0000,  0.0000,  0.0000)
  21 Li     2.478828    8.695565   14.820816    ( 0.0000,  0.0000,  0.0000)
  22 Li     2.436027    7.030581   17.301041    ( 0.0000,  0.0000,  0.0000)
  23 Li     0.056397    8.854553   17.356855    ( 0.0000,  0.0000,  0.0000)
  24 Li     4.935605    0.000000   10.000000    ( 0.0000,  0.0000,  0.0000)
  25 Li     7.403408    1.745000   10.000000    ( 0.0000,  0.0000,  0.0000)
  26 Li     7.403408    0.000000   12.467803    ( 0.0000,  0.0000,  0.0000)
  27 Li     4.935605    1.745000   12.467803    ( 0.0000,  0.0000,  0.0000)
  28 Li     4.932838    0.002322   14.861555    ( 0.0000,  0.0000,  0.0000)
  29 Li     7.408091    1.743175   14.864422    ( 0.0000,  0.0000,  0.0000)
  30 Li     7.390187    0.000465   17.216012    ( 0.0000,  0.0000,  0.0000)
  31 Li     4.862456    1.687440   17.313350    ( 0.0000,  0.0000,  0.0000)
  32 Li     4.935605    3.490000   10.000000    ( 0.0000,  0.0000,  0.0000)
  33 Li     7.403408    5.235000   10.000000    ( 0.0000,  0.0000,  0.0000)
  34 Li     7.403408    3.490000   12.467803    ( 0.0000,  0.0000,  0.0000)
  35 Li     4.935605    5.235000   12.467803    ( 0.0000,  0.0000,  0.0000)
  36 Li     4.948947    3.469973   14.894907    ( 0.0000,  0.0000,  0.0000)
  37 Li     7.401143    5.237300   14.861536    ( 0.0000,  0.0000,  0.0000)
  38 Li     7.373257    3.474446   17.222787    ( 0.0000,  0.0000,  0.0000)
  39 Li     4.877755    5.219735   17.255388    ( 0.0000,  0.0000,  0.0000)
  40 Li     4.935605    6.980000   10.000000    ( 0.0000,  0.0000,  0.0000)
  41 Li     7.403408    8.725000   10.000000    ( 0.0000,  0.0000,  0.0000)
  42 Li     7.403408    6.980000   12.467803    ( 0.0000,  0.0000,  0.0000)
  43 Li     4.935605    8.725000   12.467803    ( 0.0000,  0.0000,  0.0000)
  44 Li     4.942784    6.996960   14.900888    ( 0.0000,  0.0000,  0.0000)
  45 Li     7.408195    8.724438   14.856529    ( 0.0000,  0.0000,  0.0000)
  46 Li     7.372834    6.994871   17.226091    ( 0.0000,  0.0000,  0.0000)
  47 Li     4.857706    8.798054   17.304205    ( 0.0000,  0.0000,  0.0000)
  48 Li     9.871211    0.000000   10.000000    ( 0.0000,  0.0000,  0.0000)
  49 Li    12.339013    1.745000   10.000000    ( 0.0000,  0.0000,  0.0000)
  50 Li    12.339013    0.000000   12.467803    ( 0.0000,  0.0000,  0.0000)
  51 Li     9.871211    1.745000   12.467803    ( 0.0000,  0.0000,  0.0000)
  52 Li     9.865767    0.002585   14.864208    ( 0.0000,  0.0000,  0.0000)
  53 Li    12.343820    1.743569   14.862200    ( 0.0000,  0.0000,  0.0000)
  54 Li    12.409481    0.057122   17.313425    ( 0.0000,  0.0000,  0.0000)
  55 Li     9.884842    1.745459   17.215941    ( 0.0000,  0.0000,  0.0000)
  56 Li     9.871211    3.490000   10.000000    ( 0.0000,  0.0000,  0.0000)
  57 Li    12.339013    5.235000   10.000000    ( 0.0000,  0.0000,  0.0000)
  58 Li    12.339013    3.490000   12.467803    ( 0.0000,  0.0000,  0.0000)
  59 Li     9.871211    5.235000   12.467803    ( 0.0000,  0.0000,  0.0000)
  60 Li     9.865845    3.489675   14.856375    ( 0.0000,  0.0000,  0.0000)
  61 Li    12.332827    5.218968   14.902082    ( 0.0000,  0.0000,  0.0000)
  62 Li    12.414989    3.417533   17.305258    ( 0.0000,  0.0000,  0.0000)
  63 Li     9.901864    5.220891   17.224824    ( 0.0000,  0.0000,  0.0000)
  64 Li     9.871211    6.980000   10.000000    ( 0.0000,  0.0000,  0.0000)
  65 Li    12.339013    8.725000   10.000000    ( 0.0000,  0.0000,  0.0000)
  66 Li    12.339013    6.980000   12.467803    ( 0.0000,  0.0000,  0.0000)
  67 Li     9.871211    8.725000   12.467803    ( 0.0000,  0.0000,  0.0000)
  68 Li     9.872763    6.978180   14.860841    ( 0.0000,  0.0000,  0.0000)
  69 Li    12.326157    8.744357   14.895322    ( 0.0000,  0.0000,  0.0000)
  70 Li    12.396799    6.997030   17.256063    ( 0.0000,  0.0000,  0.0000)
  71 Li     9.901523    8.739989   17.221744    ( 0.0000,  0.0000,  0.0000)
  72 Li     1.233896    0.873356   19.377028    ( 0.0000,  0.0000,  0.0000)

Unit cell:
           periodic     x           y           z      points  spacing
  1. axis:    yes   14.806816    0.000000    0.000000    76     0.1948
  2. axis:    yes    0.000000   10.470000    0.000000    52     0.2013
  3. axis:    no     0.000000    0.000000   27.403408   136     0.2015

  Lengths:  14.806816  10.470000  27.403408
  Angles:   90.000000  90.000000  90.000000

Effective grid spacing dv^(1/3) = 0.1992

     iter     time        total  log10-change:
                         energy   eigst   dens
iter:   1 06:03:22  -127.079656        c
iter:   2 06:03:35  -127.080037        c -2.89
iter:   3 06:03:46  -127.080476c       c -3.06
iter:   4 06:03:57  -127.080965c       c -3.40
iter:   5 06:04:07  -127.080742c       c -3.53
iter:   6 06:04:18  -127.080721c       c -3.82
iter:   7 06:04:30  -127.080727c       c -3.95
iter:   8 06:04:41  -127.080721c       c -4.07c

Converged after 8 iterations.

Dipole moment: (-16.246614, -10.752182, 0.305809) |e|*Ang

Energy contributions relative to reference atoms: (reference = -14803.510878)

Kinetic:       +134.715550
Potential:     -115.769366
External:        +0.000000
XC:            -144.066761
Entropy (-ST):   -2.109562
Local:           -0.905363
SIC:             +0.000000
--------------------------
Free energy:   -128.135502
Extrapolated:  -127.080721

 Band  Eigenvalues  Occupancy
    0     -6.37358    2.00000
    1     -5.86018    2.00000
    2     -5.84861    2.00000
    3     -5.78741    2.00000
    4     -5.33469    2.00000
    5     -5.32742    2.00000
    6     -5.26469    2.00000
    7     -5.24618    2.00000
    8     -4.83024    2.00000
    9     -4.81964    1.99999
   10     -4.81041    1.99999
   11     -4.80844    1.99999
   12     -4.76362    1.99999
   13     -4.73607    1.99999
   14     -4.67867    1.99999
   15     -4.31707    1.99985
   16     -4.29735    1.99983
   17     -4.26311    1.99978
   18     -4.23993    1.99974
   19     -4.22365    1.99971
   20     -4.22088    1.99971
   21     -4.15074    1.99954
   22     -4.10849    1.99939
   23     -3.71957    1.99182
   24     -3.65990    1.98784
   25     -3.64495    1.98658
   26     -3.62640    1.98482
   27     -3.42541    1.94327
   28     -3.25303    1.83127
   29     -3.25114    1.82932
   30     -3.24841    1.82646
   31     -3.24231    1.81991
   32     -3.16025    1.70791
   33     -3.15401    1.69738
   34     -3.13961    1.67189
   35     -3.12757    1.64927
   36     -2.85153    0.85494
   37     -2.73622    0.51428
   38     -2.66785    0.35990
   39     -2.66497    0.35426
   40     -2.64879    0.32390
   41     -2.64798    0.32244
   42     -2.47264    0.11271
   43     -2.46536    0.10766
   44     -2.35191    0.05202
   45     -2.32585    0.04390
   46     -2.20886    0.02037
   47     -2.07499    0.00839

Fermi level: -2.89535

Gap: 0.276 eV
Transition (v -> c):
  (s=0, k=0, n=35, [0.00, 0.00, 0.00]) -> (s=0, k=0, n=36, [0.00, 0.00, 0.00])
No difference between direct/indirect transitions

Forces in eV/Ang:
  0 Li   -0.00107    0.00382    0.09671
  1 Li    0.00153   -0.00192    0.09757
  2 Li    0.00421   -0.01500   -0.07712
  3 Li   -0.00620    0.01648   -0.07740
  4 Li   -0.00263   -0.00877   -0.01073
  5 Li    0.00632    0.00647   -0.00812
  6 Li    0.02714   -0.03440   -0.03499
  7 Li   -0.02876    0.03585   -0.03480
  8 Li   -0.00524   -0.01024    0.10003
  9 Li    0.01110   -0.00627    0.09911
 10 Li    0.00511    0.04788   -0.10948
 11 Li   -0.00217    0.02932   -0.05996
 12 Li   -0.00255    0.02321   -0.02729
 13 Li   -0.00752   -0.00398   -0.01696
 14 Li   -0.00396   -0.01078   -0.02067
 15 Li    0.00500    0.01386   -0.01053
 16 Li   -0.01181    0.00616    0.09781
 17 Li    0.00570    0.00847    0.10114
 18 Li    0.00059   -0.02964   -0.06180
 19 Li   -0.00704   -0.04856   -0.10813
 20 Li    0.00518    0.00405   -0.01852
 21 Li    0.00255   -0.02060   -0.02165
 22 Li   -0.00400   -0.01390   -0.01009
 23 Li    0.00412    0.01230   -0.01867
 24 Li    0.00348   -0.00142    0.08610
 25 Li    0.00436    0.00638    0.08487
 26 Li   -0.00564   -0.00044   -0.07247
 27 Li    0.00984    0.01026   -0.07677
 28 Li   -0.00023    0.00341    0.01432
 29 Li   -0.00007   -0.00120   -0.00934
 30 Li    0.00918    0.00003   -0.01224
 31 Li    0.01974    0.02644    0.00077
 32 Li    0.01030   -0.00007    0.08435
 33 Li    0.01136    0.00709    0.06617
 34 Li    0.00074    0.00038   -0.06832
 35 Li    0.00377    0.00060   -0.02325
 36 Li   -0.00332   -0.00085   -0.00622
 37 Li    0.00028    0.00114   -0.00305
 38 Li    0.00513    0.00578   -0.00342
 39 Li    0.00177   -0.00002   -0.00221
 40 Li    0.02094    0.00145    0.08570
 41 Li    0.00709   -0.01366    0.07494
 42 Li    0.00143   -0.00017   -0.06901
 43 Li    0.01102   -0.01169   -0.06883
 44 Li   -0.00068   -0.00466   -0.00334
 45 Li    0.00071   -0.00073   -0.00665
 46 Li    0.00600   -0.00636   -0.00607
 47 Li    0.04179   -0.04207   -0.02813
 48 Li   -0.00499   -0.00645    0.08626
 49 Li   -0.00328    0.00330    0.08578
 50 Li   -0.00660   -0.00939   -0.07594
 51 Li    0.00406    0.00127   -0.07125
 52 Li    0.00050    0.00170   -0.00723
 53 Li   -0.00247   -0.00260    0.01473
 54 Li   -0.01849   -0.02733    0.00078
 55 Li   -0.01024    0.00042   -0.01197
 56 Li   -0.00670    0.01189    0.07596
 57 Li   -0.02062    0.00047    0.08617
 58 Li   -0.00746    0.01039   -0.06784
 59 Li   -0.00310    0.00068   -0.06781
 60 Li    0.00028   -0.00008   -0.00461
 61 Li    0.00313    0.00520   -0.00516
 62 Li   -0.04069    0.04211   -0.02775
 63 Li   -0.00692    0.00801   -0.00571
 64 Li   -0.01095   -0.00524    0.06692
 65 Li   -0.01111   -0.00370    0.08441
 66 Li   -0.00038    0.00016   -0.02313
 67 Li   -0.00248   -0.00169   -0.06777
 68 Li   -0.00006   -0.00066   -0.00080
 69 Li    0.00423    0.00070   -0.00738
 70 Li   -0.00185    0.00099   -0.00058
 71 Li   -0.00521   -0.00608   -0.00277
 72 Li    0.00186   -0.00162    0.04929

Timing:                                       incl.     excl.
--------------------------------------------------------------------
Basic WFS set positions:                      0.057     0.022   0.0% |
 Redistribute:                                0.035     0.035   0.0% |
Basis functions set positions:               11.304    11.304   0.2% |
Forces:                                     219.335     5.460   0.1% |
 LCAO forces:                               213.875     0.300   0.0% |
  Atomic Hamiltonian force:                   0.853     0.853   0.0% |
  Initial:                                    0.084     0.000   0.0% |
   Get density matrix:                        0.084     0.084   0.0% |
  Paw correction:                             1.000     1.000   0.0% |
  Potential:                                200.712   200.712   3.6% ||
  TCI derivative:                            10.925    10.925   0.2% |
  Wait for sum:                               0.001     0.001   0.0% |
LCAO WFS Initialize:                         66.713     0.269   0.0% |
 Density initialized from wave functions:    46.652    14.014   0.3% |
  Calculate density matrix:                   0.142     0.142   0.0% |
  Construct density:                         32.495    32.495   0.6% |
  Symmetrize density:                         0.000     0.000   0.0% |
 Hamiltonian:                                19.791     0.005   0.0% |
  Atomic:                                     5.317     0.025   0.0% |
   XC Correction:                             5.292     5.292   0.1% |
  Calculate atomic Hamiltonians:              0.334     0.334   0.0% |
  Communicate:                                0.000     0.000   0.0% |
  Hartree integrate/restrict:                 0.498     0.498   0.0% |
  Initialize Hamiltonian:                     0.000     0.000   0.0% |
  Poisson:                                    6.786     2.934   0.1% |
   Communicate from 1D:                       0.340     0.340   0.0% |
   Communicate from 2D:                       0.302     0.302   0.0% |
   Communicate to 1D:                         0.233     0.233   0.0% |
   Communicate to 2D:                         0.562     0.562   0.0% |
   FFT 1D:                                    1.111     1.111   0.0% |
   FFT 2D:                                    1.303     1.303   0.0% |
  XC 3D grid:                                 5.239     5.239   0.1% |
  vbar:                                       1.613     1.613   0.0% |
P tci:                                        3.992     3.992   0.1% |
Redistribute:                                 0.004     0.004   0.0% |
SCF-cycle:                                  740.297     0.198   0.0% |
 Density:                                   265.421     0.002   0.0% |
  Atomic density matrices:                    0.194     0.194   0.0% |
  Mix:                                       11.255    11.255   0.2% |
  Multipole moments:                          0.045     0.045   0.0% |
  Normalize:                                  0.023     0.023   0.0% |
  Pseudo density:                           253.902     0.156   0.0% |
   Calculate density matrix:                  0.028     0.028   0.0% |
   Construct density:                       253.714   253.714   4.6% |-|
   Symmetrize density:                        0.004     0.004   0.0% |
 Hamiltonian:                               117.799     0.009   0.0% |
  Atomic:                                    43.044     0.213   0.0% |
   XC Correction:                            42.831    42.831   0.8% |
  Calculate atomic Hamiltonians:              2.215     2.215   0.0% |
  Communicate:                                0.001     0.001   0.0% |
  Hartree integrate/restrict:                 1.174     1.174   0.0% |
  Poisson:                                   30.560     1.742   0.0% |
   Communicate from 1D:                       2.921     2.921   0.1% |
   Communicate from 2D:                       2.308     2.308   0.0% |
   Communicate to 1D:                         1.739     1.739   0.0% |
   Communicate to 2D:                         3.788     3.788   0.1% |
   FFT 1D:                                    8.104     8.104   0.1% |
   FFT 2D:                                    9.958     9.958   0.2% |
  XC 3D grid:                                39.005    39.005   0.7% |
  vbar:                                       1.790     1.790   0.0% |
 LCAO eigensolver:                          356.878     0.044   0.0% |
  Calculate projections:                      0.111     0.111   0.0% |
  DenseAtomicCorrection:                      1.390     1.390   0.0% |
  Distribute overlap matrix:                  0.004     0.004   0.0% |
  Orbital Layouts:                            2.429     2.429   0.0% |
  Potential matrix:                         352.899   352.899   6.3% |--|
ST tci:                                       2.253     2.253   0.0% |
Set symmetry:                                 0.002     0.002   0.0% |
TCI: Evaluate splines:                        0.012     0.012   0.0% |
mktci:                                        0.480     0.480   0.0% |
Other:                                     4518.022  4518.022  81.2% |-------------------------------|
--------------------------------------------------------------------
Total:                                               5562.472 100.0%

Memory usage: 3.67 GiB
Date: Wed Nov 26 06:16:31 2025
