73
Lattice="17.94637010651458 0.0 0.0 0.0 12.690000000000001 0.0 0.0 0.0 28.97318505325729" Properties=species:S:1:pos:R:3:move_mask:L:1:tags:I:1:magmoms:R:1:forces:R:3 energy=-87.77993584112063 free_energy=-89.08462775188278 dipole="-22.620969119806123 -12.995349608843526 0.30590074570722714" magmom=0.0 pbc="T T F"
Na       0.00000000       0.00000000      10.00000000  F        4       0.00000000       0.00000000       0.00431183      -0.00408003
Na       2.99106168       2.11500000      10.00000000  F        4       0.00000000      -0.00067041      -0.00080888      -0.00882907
Na       2.99106168       0.00000000      12.99106168  F        3       0.00000000       0.00569329      -0.00501195      -0.00356802
Na       5.98212337       2.11500000      12.99106168  F        3       0.00000000      -0.00086464      -0.00121509       0.00634537
Na       0.00000000      -0.12145895      15.81238343  T        2       0.00000000       0.00000000       0.00152945      -0.00157892
Na       3.00807152       2.11361352      15.94500741  T        2       0.00000000      -0.01489033       0.00065664       0.00200618
Na       2.94531269       0.04460184      19.04302642  T        1       0.00000000      -0.01258114       0.01987011       0.02634990
Na       0.00000000       2.11344161      18.39630140  T        1       0.00000000       0.00000000      -0.00087184      -0.03543667
Na       0.00000000       4.23000000      10.00000000  F        4       0.00000000       0.00000000      -0.00374624      -0.00516866
Na       2.99106168       6.34500000      10.00000000  F        4       0.00000000       0.00667097      -0.00482995      -0.00024902
Na       2.99106168       4.23000000      12.99106168  F        3       0.00000000       0.00551288       0.00626945      -0.00429582
Na       5.98212337       6.34500000      12.99106168  F        3       0.00000000       0.00279888       0.00007069       0.01009566
Na      -0.00000000       4.35190166      15.81364586  T        2       0.00000000       0.00000000      -0.00245773      -0.00131963
Na       2.99817466       6.33989068      15.97326682  T        2       0.00000000       0.01187124      -0.00339403       0.01446944
Na       2.94491758       4.18745787      19.04292633  T        1       0.00000000      -0.01220928      -0.01867112       0.02530361
Na      -0.00000000       6.29948764      19.02719442  T        1       0.00000000       0.00000000      -0.01838298       0.01141795
Na       0.00000000       8.46000000      10.00000000  F        4       0.00000000       0.00000000      -0.00059097       0.00586151
Na       2.99106168      10.57500000      10.00000000  F        4       0.00000000       0.00572742       0.00563841      -0.00096347
Na       2.99106168       8.46000000      12.99106168  F        3       0.00000000       0.00439726      -0.00114287       0.01425074
Na       5.98212337      10.57500000      12.99106168  F        3       0.00000000       0.00297484       0.00114520       0.00939761
Na      -0.00000000       8.45829690      15.97667707  T        2       0.00000000       0.00000000      -0.00028591       0.01593780
Na       2.99774356      10.58164526      15.97464201  T        2       0.00000000       0.01141391       0.00347064       0.01512589
Na       2.99072324       8.45891979      18.98319770  T        1       0.00000000      -0.00962475      -0.00053753       0.00343252
Na       0.00000000      10.62056508      19.02812560  T        1       0.00000000       0.00000000       0.01792051       0.01101253
Na       5.98212337       0.00000000      10.00000000  F        4       0.00000000       0.00067983      -0.00273073      -0.00564734
Na       8.97318505       2.11500000      10.00000000  F        4       0.00000000       0.00000000      -0.00058231      -0.00408560
Na       8.97318505       0.00000000      12.99106168  F        3       0.00000000       0.00000000      -0.00181112       0.00419456
Na      11.96424674       2.11500000      12.99106168  F        3       0.00000000       0.00086464      -0.00121509       0.00634537
Na       5.98151753       0.00108970      15.97267354  T        2       0.00000000       0.00201111       0.00000222       0.00022772
Na       8.97318505       2.11329811      15.97254172  T        2       0.00000000       0.00000000       0.00002273       0.00066148
Na       8.97318505       0.00070631      18.97726114  T        1       0.00000000       0.00000000      -0.00045534      -0.00033807
Na       5.98211031       2.11395004      18.97779909  T        1       0.00000000      -0.00544400      -0.00032113      -0.00139352
Na       5.98212337       4.23000000      10.00000000  F        4       0.00000000       0.00161320       0.00354213      -0.00634261
Na       8.97318505       6.34500000      10.00000000  F        4       0.00000000       0.00000000       0.00623807      -0.01475231
Na       8.97318505       4.23000000      12.99106168  F        3       0.00000000       0.00000000       0.00322474       0.00396518
Na      11.96424674       6.34500000      12.99106168  F        3       0.00000000      -0.00279888       0.00007069       0.01009566
Na       5.98187539       4.23042737      15.97397145  T        2       0.00000000       0.00234951       0.00007597       0.00053585
Na       8.97318505       6.34678678      15.96407272  T        2       0.00000000       0.00000000      -0.00012435      -0.00070820
Na       8.97318505       4.23022439      18.97844709  T        1       0.00000000       0.00000000       0.00108891      -0.00026706
Na       5.97913014       6.34172100      18.97660976  T        1       0.00000000      -0.00994482      -0.00548704      -0.00077630
Na       5.98212337       8.46000000      10.00000000  F        4       0.00000000       0.00900902      -0.00081414      -0.00944330
Na       8.97318505      10.57500000      10.00000000  F        4       0.00000000       0.00000000      -0.00565060      -0.01583944
Na       8.97318505       8.46000000      12.99106168  F        3       0.00000000       0.00000000      -0.00142132       0.00707999
Na      11.96424674      10.57500000      12.99106168  F        3       0.00000000      -0.00297484       0.00114520       0.00939761
Na       5.98152151       8.45848037      15.96559578  T        2       0.00000000       0.00022500       0.00010178      -0.00085199
Na       8.97318505      10.57493057      15.96498338  T        2       0.00000000       0.00000000      -0.00005216      -0.00034991
Na       8.97318505       8.45905739      18.97754033  T        1       0.00000000       0.00000000      -0.00054252      -0.00051043
Na       5.98022974      10.57936706      18.97723379  T        1       0.00000000      -0.00982997       0.00599678      -0.00078541
Na      11.96424674       0.00000000      10.00000000  F        4       0.00000000      -0.00067983      -0.00273073      -0.00564734
Na      14.95530842       2.11500000      10.00000000  F        4       0.00000000       0.00067041      -0.00080888      -0.00882907
Na      14.95530842       0.00000000      12.99106168  F        3       0.00000000      -0.00569329      -0.00501195      -0.00356802
Na      17.94637011       2.11500000      12.99106168  F        3       0.00000000       0.00000000      -0.00151558      -0.00558733
Na      11.96485258       0.00108970      15.97267354  T        2       0.00000000      -0.00201111       0.00000222       0.00022772
Na      14.93829858       2.11361352      15.94500741  T        2       0.00000000       0.01489033       0.00065664       0.00200618
Na      15.00105742       0.04460184      19.04302642  T        1       0.00000000       0.01258114       0.01987011       0.02634990
Na      11.96425979       2.11395004      18.97779909  T        1       0.00000000       0.00544400      -0.00032113      -0.00139352
Na      11.96424674       4.23000000      10.00000000  F        4       0.00000000      -0.00161320       0.00354213      -0.00634261
Na      14.95530842       6.34500000      10.00000000  F        4       0.00000000      -0.00667097      -0.00482995      -0.00024902
Na      14.95530842       4.23000000      12.99106168  F        3       0.00000000      -0.00551288       0.00626945      -0.00429582
Na      17.94637011       6.34500000      12.99106168  F        3       0.00000000       0.00000000       0.02842620      -0.04290439
Na      11.96449472       4.23042737      15.97397145  T        2       0.00000000      -0.00234951       0.00007597       0.00053585
Na      14.94819545       6.33989068      15.97326682  T        2       0.00000000      -0.01187124      -0.00339403       0.01446944
Na      15.00145253       4.18745787      19.04292633  T        1       0.00000000       0.01220928      -0.01867112       0.02530361
Na      11.96723997       6.34172100      18.97660976  T        1       0.00000000       0.00994482      -0.00548704      -0.00077630
Na      11.96424674       8.46000000      10.00000000  F        4       0.00000000      -0.00900902      -0.00081414      -0.00944330
Na      14.95530842      10.57500000      10.00000000  F        4       0.00000000      -0.00572742       0.00563841      -0.00096347
Na      14.95530842       8.46000000      12.99106168  F        3       0.00000000      -0.00439726      -0.00114287       0.01425074
Na      17.94637011      10.57500000      12.99106168  F        3       0.00000000       0.00000000      -0.02724055      -0.04341653
Na      11.96484860       8.45848037      15.96559578  T        2       0.00000000      -0.00022500       0.00010178      -0.00085199
Na      14.94862655      10.58164526      15.97464201  T        2       0.00000000      -0.01141391       0.00347064       0.01512589
Na      14.95564687       8.45891979      18.98319770  T        1       0.00000000       0.00962475      -0.00053753       0.00343252
Na      11.96614037      10.57936706      18.97723379  T        1       0.00000000       0.00982997       0.00599678      -0.00078541
Na       0.00000000       2.11424575      21.57074340  T        0       0.00000000       0.00000000       0.00031123      -0.03886228
