
  ___ ___ ___ _ _ _  
 |   |   |_  | | | | 
 | | | | | . | | | | 
 |__ |  _|___|_____|  25.7.0
 |___|_|             

User:   tew@Mathuss-MacBook-Air-357.local
Date:   Wed Nov 26 08:32:00 2025
Arch:   arm64
Pid:    88448
CWD:    /Users/tew/Documents/Project/GitHub/chem-com
Python: 3.13.5
gpaw:   /Users/tew/Documents/Project/GitHub/chem-com/.venv/lib/python3.13/site-packages/gpaw
_gpaw:  /Users/tew/Documents/Project/GitHub/chem-com/.venv/lib/python3.13/site-packages/
        _gpaw.cpython-313-darwin.so
ase:    /Users/tew/Documents/Project/GitHub/chem-com/.venv/lib/python3.13/site-packages/ase (version 3.26.0)
numpy:  /Users/tew/Documents/Project/GitHub/chem-com/.venv/lib/python3.13/site-packages/numpy (version 2.3.5)
scipy:  /Users/tew/Documents/Project/GitHub/chem-com/.venv/lib/python3.13/site-packages/scipy (version 1.16.3)
libxc:  2.x.y
units:  Angstrom and eV
cores: 1
OpenMP: False
OMP_NUM_THREADS: 1

Input parameters:
  basis: dzp
  convergence: {density: 0.0001,
                eigenstates: 5e-06}
  kpts: [1 1 1]
  mode: {interpolation: 3,
         name: lcao}
  occupations: {fixmagmom: False,
                name: fermi-dirac,
                width: 0.15}
  xc: PBE

System changes: positions, numbers, cell, pbc, initial_charges, initial_magmoms 

Initialize ...

species:
  Na:
    name: Sodium
    id: d7ecbc49209718622bcbe287195dca2a
    Z: 11.0
    valence: 7
    core: 4
    charge: 0.0
    file: /Users/tew/Documents/Project/GitHub/chem-com/.venv/lib/python3.13/site-packages/gpaw_data/setups/Na.PBE.gz
    compensation charges: {type: gauss,
                           rc: 0.37,
                           lmax: 2}
    cutoffs: {filter: 2.17,
              core: 2.59}
    projectors:
      #              energy  rcut
      - 3s(1.00)    -2.744   1.201
      - 2p(6.00)   -28.672   1.217
      - 3p(0.00)    -0.743   1.217
      -  s          24.468   1.201
      -  d           0.000   1.238
  
    # LCAO basis set for Na:
    #   Name: dzp
    #   File: /Users/tew/Documents/Project/GitHub/chem-com/.venv/lib/python3.13/site-packages/gpaw_data/setups/Na.dzp.basis.gz
    #   Number of radial functions: 7
    #   Number of spherical harmonics: 17
    #     l=0, rc=11.4062 Bohr: 3s-sz confined orbital
    #     l=1, rc=3.6719 Bohr: 2p-sz confined orbital
    #     l=1, rc=15.9375 Bohr: 3p-sz confined orbital
    #     l=0, rc=6.9531 Bohr: 3s-dz split-valence wave
    #     l=1, rc=2.4219 Bohr: 2p-dz split-valence wave
    #     l=1, rc=10.0469 Bohr: 3p-dz split-valence wave
    #     l=1, rc=11.4062 Bohr: p-type Gaussian polarization
    #   Number of RI-basis functions 0

Reference energy: -322558.566329  # eV

Spin-paired calculation

Convergence criteria:
 Maximum [total energy] change in last 3 cyles: 0.0005 eV / valence electron
 Maximum integral of absolute [dens]ity change: 0.0001 electrons / valence electron
 Maximum integral of absolute [eigenst]ate change: 5e-06 eV^2 / valence electron
 Maximum number of scf [iter]ations: 333
 (Square brackets indicate name in SCF output, whereas a 'c' in
 the SCF output indicates the quantity has converged.)

Symmetries present (total): 2

  ( 1  0  0)  (-1  0  0)
  ( 0  1  0)  ( 0  1  0)
  ( 0  0  1)  ( 0  0  1)

1 k-point (Gamma)
1 k-point in the irreducible part of the Brillouin zone
       k-points in crystal coordinates                weights
   0:     0.00000000    0.00000000    0.00000000          1/1

Wave functions: LCAO
  Diagonalizer: Serial LAPACK
  Atomic Correction: dense with blas
  Data-type: float
 

Occupation numbers: Fermi-Dirac:
  width: 0.1500  # eV
 

Eigensolver
   LCAO using direct dense diagonalizer 

Densities:
  Coarse grid: 88*64*144 grid
  Fine grid: 176*128*288 grid
  Total Charge: 0.000000 

Density mixing:
  Method: separate
  Backend: pulay
  Linear mixing parameter: 0.05
  old densities: 5
  Damping of long wavelength oscillations: 50 

Hamiltonian:
  XC and Coulomb potentials evaluated on a 176*128*288 grid
  Using the PBE Exchange-Correlation functional
  Interpolation: tri-quintic (5. degree polynomial)
  Poisson solver: FastPoissonSolver using
    Stencil: 6*3+1=19 point O(h^6) finite-difference Laplacian
    FFT axes: [np.int64(0), np.int64(1)]
    FST axes: [np.int64(2)]
 

XC parameters: PBE with 2 nearest neighbor stencil

Memory estimate:
  Process memory now: 3762.67 MiB
  Calculator: 1616.02 MiB
    Density: 540.29 MiB
      Arrays: 160.27 MiB
      Localized functions: 318.57 MiB
      Mixer: 61.45 MiB
    Hamiltonian: 128.23 MiB
      Arrays: 104.80 MiB
      XC: 0.00 MiB
      Poisson: 0.00 MiB
      vbar: 23.43 MiB
    Wavefunctions: 947.50 MiB
      C [qnM]: 2.94 MiB
      S, T [2 x qmm]: 23.50 MiB
      P [aqMi]: 1.12 MiB
      BasisFunctions: 919.93 MiB
      Eigensolver: 0.00 MiB

Total number of cores used: 1

Number of atoms: 73
Number of atomic orbitals: 1241
Number of bands in calculation: 311
Number of valence electrons: 511
Bands to converge: occupied

... initialized

Initializing position-dependent things.

Density initialized from atomic densities
         .-------------------------------------------.  
        /|                                           |  
       / |                                           |  
      /  |                                           |  
     /   |                                           |  
    /    |                                           |  
   /     |                                           |  
  /      |                                           |  
 *       |                                           |  
 |       |                                           |  
 |       |                                           |  
 |       |                                           |  
 |       |                                           |  
 |       |                                           |  
 |      Na            Na             Na              |  
 |       |    Na            Na             Na        |  
 |   Na  |          Na            Na                 |  
 |Na     |     Na             Na            Na       |  
 |       | Na             Na            Na           |  
 |Na  Na |       Na  Na         Na  Na               |  
 |      Na  Na         Na  Na         Na  Na         |  
 |  Na  Na        Na  Na         Na  Na              |  
 |       |                                           |  
 |       |Na  Na        Na  Na         Na  Na        |  
 Na  Na  |      Na  Na        Na  Na                 |  
 |       | Na  Na         Na  Na        Na  Na       |  
 |    Na |           Na             Na               |  
 |Na     |       Na             Na                   |  
 |      Na  Na         Na  Na         Na  Na         |  
 |  Na   |        Na             Na                  |  
 |       |Na            Na             Na            |  
 |       |                                           |  
 Na      |      Na            Na                     |  
 |       |                                           |  
 |       |                                           |  
 |       |                                           |  
 |       .-------------------------------------------.  
 |      /                                           /   
 |     /                                           /    
 |    /                                           /     
 |   /                                           /      
 |  /                                           /       
 | /                                           /        
 |/                                           /         
 *-------------------------------------------*          

Atomic positions and initial magnetic moments

Positions:
   0 Na     0.000000    0.000000   10.000000    ( 0.0000,  0.0000,  0.0000)
   1 Na     2.991062    2.115000   10.000000    ( 0.0000,  0.0000,  0.0000)
   2 Na     2.991062    0.000000   12.991062    ( 0.0000,  0.0000,  0.0000)
   3 Na     5.982123    2.115000   12.991062    ( 0.0000,  0.0000,  0.0000)
   4 Na     0.000000    0.000000   15.982123    ( 0.0000,  0.0000,  0.0000)
   5 Na     2.991062    2.115000   15.982123    ( 0.0000,  0.0000,  0.0000)
   6 Na     2.991062    0.000000   18.973185    ( 0.0000,  0.0000,  0.0000)
   7 Na     0.000000    2.115000   18.973185    ( 0.0000,  0.0000,  0.0000)
   8 Na     0.000000    4.230000   10.000000    ( 0.0000,  0.0000,  0.0000)
   9 Na     2.991062    6.345000   10.000000    ( 0.0000,  0.0000,  0.0000)
  10 Na     2.991062    4.230000   12.991062    ( 0.0000,  0.0000,  0.0000)
  11 Na     5.982123    6.345000   12.991062    ( 0.0000,  0.0000,  0.0000)
  12 Na     0.000000    4.230000   15.982123    ( 0.0000,  0.0000,  0.0000)
  13 Na     2.991062    6.345000   15.982123    ( 0.0000,  0.0000,  0.0000)
  14 Na     2.991062    4.230000   18.973185    ( 0.0000,  0.0000,  0.0000)
  15 Na     0.000000    6.345000   18.973185    ( 0.0000,  0.0000,  0.0000)
  16 Na     0.000000    8.460000   10.000000    ( 0.0000,  0.0000,  0.0000)
  17 Na     2.991062   10.575000   10.000000    ( 0.0000,  0.0000,  0.0000)
  18 Na     2.991062    8.460000   12.991062    ( 0.0000,  0.0000,  0.0000)
  19 Na     5.982123   10.575000   12.991062    ( 0.0000,  0.0000,  0.0000)
  20 Na     0.000000    8.460000   15.982123    ( 0.0000,  0.0000,  0.0000)
  21 Na     2.991062   10.575000   15.982123    ( 0.0000,  0.0000,  0.0000)
  22 Na     2.991062    8.460000   18.973185    ( 0.0000,  0.0000,  0.0000)
  23 Na     0.000000   10.575000   18.973185    ( 0.0000,  0.0000,  0.0000)
  24 Na     5.982123    0.000000   10.000000    ( 0.0000,  0.0000,  0.0000)
  25 Na     8.973185    2.115000   10.000000    ( 0.0000,  0.0000,  0.0000)
  26 Na     8.973185    0.000000   12.991062    ( 0.0000,  0.0000,  0.0000)
  27 Na    11.964247    2.115000   12.991062    ( 0.0000,  0.0000,  0.0000)
  28 Na     5.982123    0.000000   15.982123    ( 0.0000,  0.0000,  0.0000)
  29 Na     8.973185    2.115000   15.982123    ( 0.0000,  0.0000,  0.0000)
  30 Na     8.973185    0.000000   18.973185    ( 0.0000,  0.0000,  0.0000)
  31 Na     5.982123    2.115000   18.973185    ( 0.0000,  0.0000,  0.0000)
  32 Na     5.982123    4.230000   10.000000    ( 0.0000,  0.0000,  0.0000)
  33 Na     8.973185    6.345000   10.000000    ( 0.0000,  0.0000,  0.0000)
  34 Na     8.973185    4.230000   12.991062    ( 0.0000,  0.0000,  0.0000)
  35 Na    11.964247    6.345000   12.991062    ( 0.0000,  0.0000,  0.0000)
  36 Na     5.982123    4.230000   15.982123    ( 0.0000,  0.0000,  0.0000)
  37 Na     8.973185    6.345000   15.982123    ( 0.0000,  0.0000,  0.0000)
  38 Na     8.973185    4.230000   18.973185    ( 0.0000,  0.0000,  0.0000)
  39 Na     5.982123    6.345000   18.973185    ( 0.0000,  0.0000,  0.0000)
  40 Na     5.982123    8.460000   10.000000    ( 0.0000,  0.0000,  0.0000)
  41 Na     8.973185   10.575000   10.000000    ( 0.0000,  0.0000,  0.0000)
  42 Na     8.973185    8.460000   12.991062    ( 0.0000,  0.0000,  0.0000)
  43 Na    11.964247   10.575000   12.991062    ( 0.0000,  0.0000,  0.0000)
  44 Na     5.982123    8.460000   15.982123    ( 0.0000,  0.0000,  0.0000)
  45 Na     8.973185   10.575000   15.982123    ( 0.0000,  0.0000,  0.0000)
  46 Na     8.973185    8.460000   18.973185    ( 0.0000,  0.0000,  0.0000)
  47 Na     5.982123   10.575000   18.973185    ( 0.0000,  0.0000,  0.0000)
  48 Na    11.964247    0.000000   10.000000    ( 0.0000,  0.0000,  0.0000)
  49 Na    14.955308    2.115000   10.000000    ( 0.0000,  0.0000,  0.0000)
  50 Na    14.955308    0.000000   12.991062    ( 0.0000,  0.0000,  0.0000)
  51 Na    17.946370    2.115000   12.991062    ( 0.0000,  0.0000,  0.0000)
  52 Na    11.964247    0.000000   15.982123    ( 0.0000,  0.0000,  0.0000)
  53 Na    14.955308    2.115000   15.982123    ( 0.0000,  0.0000,  0.0000)
  54 Na    14.955308    0.000000   18.973185    ( 0.0000,  0.0000,  0.0000)
  55 Na    11.964247    2.115000   18.973185    ( 0.0000,  0.0000,  0.0000)
  56 Na    11.964247    4.230000   10.000000    ( 0.0000,  0.0000,  0.0000)
  57 Na    14.955308    6.345000   10.000000    ( 0.0000,  0.0000,  0.0000)
  58 Na    14.955308    4.230000   12.991062    ( 0.0000,  0.0000,  0.0000)
  59 Na    17.946370    6.345000   12.991062    ( 0.0000,  0.0000,  0.0000)
  60 Na    11.964247    4.230000   15.982123    ( 0.0000,  0.0000,  0.0000)
  61 Na    14.955308    6.345000   15.982123    ( 0.0000,  0.0000,  0.0000)
  62 Na    14.955308    4.230000   18.973185    ( 0.0000,  0.0000,  0.0000)
  63 Na    11.964247    6.345000   18.973185    ( 0.0000,  0.0000,  0.0000)
  64 Na    11.964247    8.460000   10.000000    ( 0.0000,  0.0000,  0.0000)
  65 Na    14.955308   10.575000   10.000000    ( 0.0000,  0.0000,  0.0000)
  66 Na    14.955308    8.460000   12.991062    ( 0.0000,  0.0000,  0.0000)
  67 Na    17.946370   10.575000   12.991062    ( 0.0000,  0.0000,  0.0000)
  68 Na    11.964247    8.460000   15.982123    ( 0.0000,  0.0000,  0.0000)
  69 Na    14.955308   10.575000   15.982123    ( 0.0000,  0.0000,  0.0000)
  70 Na    14.955308    8.460000   18.973185    ( 0.0000,  0.0000,  0.0000)
  71 Na    11.964247   10.575000   18.973185    ( 0.0000,  0.0000,  0.0000)
  72 Na     0.000000    2.115000   20.973185    ( 0.0000,  0.0000,  0.0000)

Unit cell:
           periodic     x           y           z      points  spacing
  1. axis:    yes   17.946370    0.000000    0.000000    88     0.2039
  2. axis:    yes    0.000000   12.690000    0.000000    64     0.1983
  3. axis:    no     0.000000    0.000000   28.973185   144     0.2012

  Lengths:  17.946370  12.690000  28.973185
  Angles:   90.000000  90.000000  90.000000

Effective grid spacing dv^(1/3) = 0.2011

     iter     time        total  log10-change:
                         energy   eigst   dens
iter:   1 08:32:50   -88.002456        c
iter:   2 08:33:44   -87.224233        c -1.61
iter:   3 08:34:49   -86.691722        c -1.71
iter:   4 08:35:50   -86.652120        c -1.87
iter:   5 08:36:45   -86.687890c       c -2.11
iter:   6 08:38:03   -86.572001c       c -2.10
iter:   7 08:39:02   -86.516035c       c -2.31
iter:   8 08:39:57   -86.502180c       c -2.69
iter:   9 08:41:07   -86.500390c       c -3.08
iter:  10 08:42:10   -86.498959c       c -3.19
iter:  11 08:43:18   -86.498772c       c -3.26
iter:  12 08:44:21   -86.499038c       c -3.37
iter:  13 08:45:37   -86.499143c       c -3.44
iter:  14 08:47:03   -86.498579c       c -3.72
iter:  15 08:48:15   -86.498421c       c -3.92
iter:  16 08:49:46   -86.498435c       c -4.10c

Converged after 16 iterations.

Dipole moment: (-22.651105, -13.756444, 0.100500) |e|*Ang

Energy contributions relative to reference atoms: (reference = -322558.566329)

Kinetic:       +151.217087
Potential:     -135.809953
External:        +0.000000
XC:            -100.791609
Entropy (-ST):   -2.627692
Local:           +0.199886
SIC:             +0.000000
--------------------------
Free energy:    -87.812281
Extrapolated:   -86.498435

 Band  Eigenvalues  Occupancy
    0    -29.85551    2.00000
    1    -29.25149    2.00000
    2    -29.25033    2.00000
    3    -28.57772    2.00000
    4    -28.57637    2.00000
    5    -28.42090    2.00000
    6    -27.99961    2.00000
    7    -27.98945    2.00000
    8    -27.98393    2.00000
    9    -27.97318    2.00000
   10    -27.97308    2.00000
   11    -27.96880    2.00000
   12    -27.96858    2.00000
   13    -27.96845    2.00000
   14    -27.96817    2.00000
   15    -27.96662    2.00000
   16    -27.96645    2.00000
   17    -27.96624    2.00000
   18    -27.96511    2.00000
   19    -27.96457    2.00000
   20    -27.96409    2.00000
   21    -27.96310    2.00000
   22    -27.96190    2.00000
   23    -27.96121    2.00000
   24    -27.96065    2.00000
   25    -27.96035    2.00000
   26    -27.95939    2.00000
   27    -27.95937    2.00000
   28    -27.95931    2.00000
   29    -27.95918    2.00000
   30    -27.95892    2.00000
   31    -27.95841    2.00000
   32    -27.95829    2.00000
   33    -27.95818    2.00000
   34    -27.95766    2.00000
   35    -27.95764    2.00000
   36    -27.95751    2.00000
   37    -27.95740    2.00000
   38    -27.95701    2.00000
   39    -27.95657    2.00000
   40    -27.95637    2.00000
   41    -27.95613    2.00000
   42    -27.95612    2.00000
   43    -27.95600    2.00000
   44    -27.95591    2.00000
   45    -27.95579    2.00000
   46    -27.95452    2.00000
   47    -27.95419    2.00000
   48    -27.95403    2.00000
   49    -27.95398    2.00000
   50    -27.95366    2.00000
   51    -27.95359    2.00000
   52    -27.95328    2.00000
   53    -27.95322    2.00000
   54    -27.95120    2.00000
   55    -27.94984    2.00000
   56    -27.94806    2.00000
   57    -27.94803    2.00000
   58    -27.94745    2.00000
   59    -27.94727    2.00000
   60    -27.94721    2.00000
   61    -27.94707    2.00000
   62    -27.94672    2.00000
   63    -27.94650    2.00000
   64    -27.94522    2.00000
   65    -27.94384    2.00000
   66    -27.94366    2.00000
   67    -27.94320    2.00000
   68    -27.94295    2.00000
   69    -27.94240    2.00000
   70    -27.94126    2.00000
   71    -27.93967    2.00000
   72    -27.93947    2.00000
   73    -27.93946    2.00000
   74    -27.93917    2.00000
   75    -27.93846    2.00000
   76    -27.93831    2.00000
   77    -27.93813    2.00000
   78    -27.93782    2.00000
   79    -27.93776    2.00000
   80    -27.93775    2.00000
   81    -27.93724    2.00000
   82    -27.93606    2.00000
   83    -27.93602    2.00000
   84    -27.93591    2.00000
   85    -27.93561    2.00000
   86    -27.93556    2.00000
   87    -27.93544    2.00000
   88    -27.93517    2.00000
   89    -27.92812    2.00000
   90    -27.92761    2.00000
   91    -27.92747    2.00000
   92    -27.92702    2.00000
   93    -27.92417    2.00000
   94    -27.92219    2.00000
   95    -27.91180    2.00000
   96    -27.91158    2.00000
   97    -27.90991    2.00000
   98    -27.90899    2.00000
   99    -27.90554    2.00000
  100    -27.90554    2.00000
  101    -27.90525    2.00000
  102    -27.90524    2.00000
  103    -27.89441    2.00000
  104    -27.89404    2.00000
  105    -27.89366    2.00000
  106    -27.89339    2.00000
  107    -27.88917    2.00000
  108    -27.88910    2.00000
  109    -27.88767    2.00000
  110    -27.88766    2.00000
  111    -27.78268    2.00000
  112    -27.78177    2.00000
  113    -27.78143    2.00000
  114    -27.78094    2.00000
  115    -27.77661    2.00000
  116    -27.77584    2.00000
  117    -27.77479    2.00000
  118    -27.77427    2.00000
  119    -27.77292    2.00000
  120    -27.77109    2.00000
  121    -27.77096    2.00000
  122    -27.77045    2.00000
  123    -27.76942    2.00000
  124    -27.76892    2.00000
  125    -27.76872    2.00000
  126    -27.76755    2.00000
  127    -27.76635    2.00000
  128    -27.76610    2.00000
  129    -27.76606    2.00000
  130    -27.76605    2.00000
  131    -27.76596    2.00000
  132    -27.76555    2.00000
  133    -27.76533    2.00000
  134    -27.76473    2.00000
  135    -27.76467    2.00000
  136    -27.76456    2.00000
  137    -27.76362    2.00000
  138    -27.76297    2.00000
  139    -27.76274    2.00000
  140    -27.76273    2.00000
  141    -27.76260    2.00000
  142    -27.76209    2.00000
  143    -27.76144    2.00000
  144    -27.76099    2.00000
  145    -27.76084    2.00000
  146    -27.76003    2.00000
  147    -27.75958    2.00000
  148    -27.75892    2.00000
  149    -27.75889    2.00000
  150    -27.75874    2.00000
  151    -27.75837    2.00000
  152    -27.75787    2.00000
  153    -27.75739    2.00000
  154    -27.75697    2.00000
  155    -27.75697    2.00000
  156    -27.75696    2.00000
  157    -27.75635    2.00000
  158    -27.75623    2.00000
  159    -27.75566    2.00000
  160    -27.75513    2.00000
  161    -27.75459    2.00000
  162    -27.75447    2.00000
  163    -27.75395    2.00000
  164    -27.75339    2.00000
  165    -27.75333    2.00000
  166    -27.75313    2.00000
  167    -27.75287    2.00000
  168    -27.75275    2.00000
  169    -27.75224    2.00000
  170    -27.75204    2.00000
  171    -27.75185    2.00000
  172    -27.75144    2.00000
  173    -27.75101    2.00000
  174    -27.75048    2.00000
  175    -27.75020    2.00000
  176    -27.75015    2.00000
  177    -27.74947    2.00000
  178    -27.74937    2.00000
  179    -27.74894    2.00000
  180    -27.74838    2.00000
  181    -27.74835    2.00000
  182    -27.74782    2.00000
  183    -27.74697    2.00000
  184    -27.74647    2.00000
  185    -27.74634    2.00000
  186    -27.74621    2.00000
  187    -27.74586    2.00000
  188    -27.74580    2.00000
  189    -27.74568    2.00000
  190    -27.74558    2.00000
  191    -27.74556    2.00000
  192    -27.74551    2.00000
  193    -27.74525    2.00000
  194    -27.74525    2.00000
  195    -27.74427    2.00000
  196    -27.74418    2.00000
  197    -27.74403    2.00000
  198    -27.74356    2.00000
  199    -27.74355    2.00000
  200    -27.74313    2.00000
  201    -27.74273    2.00000
  202    -27.74237    2.00000
  203    -27.74171    2.00000
  204    -27.74159    2.00000
  205    -27.74094    2.00000
  206    -27.74016    2.00000
  207    -27.73890    2.00000
  208    -27.73887    2.00000
  209    -27.73848    2.00000
  210    -27.73840    2.00000
  211    -27.73780    2.00000
  212    -27.73729    2.00000
  213    -27.73696    2.00000
  214    -27.73567    2.00000
  215    -27.73561    2.00000
  216    -27.73478    2.00000
  217    -27.73439    2.00000
  218    -27.73274    2.00000
  219     -5.93829    2.00000
  220     -5.45717    2.00000
  221     -5.44679    2.00000
  222     -5.39828    2.00000
  223     -4.98577    2.00000
  224     -4.97027    2.00000
  225     -4.93607    2.00000
  226     -4.91230    2.00000
  227     -4.54224    1.99997
  228     -4.50166    1.99997
  229     -4.49977    1.99997
  230     -4.49806    1.99996
  231     -4.48262    1.99996
  232     -4.44381    1.99995
  233     -4.43932    1.99995
  234     -4.08476    1.99945
  235     -4.03196    1.99921
  236     -4.02205    1.99916
  237     -3.98587    1.99893
  238     -3.97572    1.99886
  239     -3.96984    1.99881
  240     -3.96602    1.99878
  241     -3.96113    1.99874
  242     -3.59816    1.98594
  243     -3.52990    1.97793
  244     -3.51297    1.97532
  245     -3.50184    1.97344
  246     -3.31823    1.91247
  247     -3.12314    1.71229
  248     -3.11788    1.70355
  249     -3.11467    1.69809
  250     -3.10792    1.68639
  251     -3.09403    1.66111
  252     -3.07423    1.62232
  253     -3.06073    1.59398
  254     -3.04550    1.56014
  255     -2.86594    1.03449
  256     -2.79091    0.78768
  257     -2.62796    0.35963
  258     -2.61597    0.33666
  259     -2.59598    0.30097
  260     -2.58011    0.27491
  261     -2.57988    0.27455
  262     -2.57841    0.27224
  263     -2.43216    0.11220
  264     -2.37156    0.07633
  265     -2.22503    0.02944
  266     -2.18989    0.02336
  267     -2.18499    0.02262
  268     -1.98735    0.00611
  269     -1.97879    0.00577
  270     -1.96280    0.00519
  271     -1.92725    0.00410
  272     -1.88319    0.00305
  273     -1.80013    0.00176
  274     -1.78821    0.00162
  275     -1.78533    0.00159
  276     -1.75491    0.00130
  277     -1.75362    0.00129
  278     -1.75292    0.00128
  279     -1.75228    0.00128
  280     -1.74631    0.00123
  281     -1.74334    0.00120
  282     -1.70782    0.00095
  283     -1.68795    0.00083
  284     -1.68578    0.00082
  285     -1.48858    0.00022
  286     -1.45409    0.00018
  287     -1.43286    0.00015
  288     -1.39081    0.00011
  289     -1.33660    0.00008
  290     -1.29742    0.00006
  291     -1.09071    0.00002
  292     -1.08856    0.00002
  293     -1.08295    0.00001
  294     -1.06471    0.00001
  295     -1.06365    0.00001
  296     -1.05600    0.00001
  297     -1.02341    0.00001
  298     -0.93660    0.00001
  299     -0.88900    0.00000
  300     -0.87043    0.00000
  301     -0.84750    0.00000
  302     -0.84281    0.00000
  303     -0.79952    0.00000
  304     -0.75861    0.00000
  305     -0.64482    0.00000
  306     -0.64159    0.00000
  307     -0.63568    0.00000
  308     -0.58406    0.00000
  309     -0.56837    0.00000
  310     -0.50710    0.00000

Fermi level: -2.85559

Gap: 0.075 eV
Transition (v -> c):
  (s=0, k=0, n=255, [0.00, 0.00, 0.00]) -> (s=0, k=0, n=256, [0.00, 0.00, 0.00])
No difference between direct/indirect transitions

Forces in eV/Ang:
  0 Na    0.00000    0.00519   -0.00074
  1 Na    0.00089   -0.00083   -0.00522
  2 Na    0.00235    0.00169    0.00832
  3 Na   -0.00059   -0.00138    0.00822
  4 Na    0.00000    0.00589   -0.02118
  5 Na   -0.00271   -0.00140   -0.01104
  6 Na   -0.02599    0.02460    0.04813
  7 Na    0.00000   -0.00075   -3.24926
  8 Na    0.00000   -0.00459   -0.00183
  9 Na    0.00855   -0.00442    0.00055
 10 Na    0.00217   -0.00031    0.00733
 11 Na    0.00370    0.00025    0.01566
 12 Na    0.00000   -0.00430   -0.02058
 13 Na    0.00560    0.00202   -0.02011
 14 Na   -0.02691   -0.02380    0.04878
 15 Na    0.00000   -0.04521    0.05066
 16 Na    0.00000   -0.00060    0.01201
 17 Na    0.00761    0.00525   -0.00012
 18 Na    0.00256   -0.00137    0.01625
 19 Na    0.00389    0.00114    0.01467
 20 Na    0.00000   -0.00157   -0.01856
 21 Na    0.00542   -0.00062   -0.01912
 22 Na    0.00300   -0.00083    0.00795
 23 Na    0.00000    0.04586    0.05174
 24 Na    0.00147   -0.00312   -0.00517
 25 Na    0.00000   -0.00060   -0.00168
 26 Na    0.00000   -0.00357    0.01371
 27 Na    0.00059   -0.00138    0.00822
 28 Na   -0.00036   -0.00087   -0.00880
 29 Na    0.00000   -0.00158   -0.00967
 30 Na    0.00000    0.00146    0.00247
 31 Na    0.00058   -0.00083    0.00434
 32 Na    0.00241    0.00395   -0.00583
 33 Na    0.00000    0.00838   -0.01641
 34 Na    0.00000    0.00514    0.01310
 35 Na   -0.00370    0.00025    0.01566
 36 Na   -0.00018    0.00226   -0.00782
 37 Na    0.00000    0.00111   -0.01925
 38 Na    0.00000   -0.00087    0.00356
 39 Na    0.00172   -0.00028    0.00243
 40 Na    0.01060   -0.00083   -0.01239
 41 Na    0.00000   -0.00778   -0.01749
 42 Na    0.00000   -0.00158    0.01621
 43 Na   -0.00389    0.00114    0.01467
 44 Na    0.00015   -0.00138   -0.01725
 45 Na    0.00000    0.00047   -0.01864
 46 Na    0.00000   -0.00060    0.00607
 47 Na    0.00267    0.00110    0.00309
 48 Na   -0.00147   -0.00312   -0.00517
 49 Na   -0.00089   -0.00083   -0.00522
 50 Na   -0.00235    0.00169    0.00832
 51 Na    0.00000   -0.00158    0.00599
 52 Na    0.00036   -0.00087   -0.00880
 53 Na    0.00271   -0.00140   -0.01104
 54 Na    0.02599    0.02460    0.04813
 55 Na   -0.00058   -0.00083    0.00434
 56 Na   -0.00241    0.00395   -0.00583
 57 Na   -0.00855   -0.00442    0.00055
 58 Na   -0.00217   -0.00031    0.00733
 59 Na    0.00000   -0.00392    0.01763
 60 Na    0.00018    0.00226   -0.00782
 61 Na   -0.00560    0.00202   -0.02011
 62 Na    0.02691   -0.02380    0.04878
 63 Na   -0.00172   -0.00028    0.00243
 64 Na   -0.01060   -0.00083   -0.01239
 65 Na   -0.00761    0.00525   -0.00012
 66 Na   -0.00256   -0.00137    0.01625
 67 Na    0.00000    0.00549    0.01703
 68 Na   -0.00015   -0.00138   -0.01725
 69 Na   -0.00542   -0.00062   -0.01912
 70 Na   -0.00300   -0.00083    0.00795
 71 Na   -0.00267    0.00110    0.00309
 72 Na    0.00000    0.00006    3.04260

System changes: positions 

Initializing position-dependent things.

Density initialized from wave functions
         .-------------------------------------------.  
        /|                                           |  
       / |                                           |  
      /  |                                           |  
     /   |                                           |  
    /    |                                           |  
   /     |                                           |  
  /      |                                           |  
 *       |                                           |  
 |       |                                           |  
 |       |                                           |  
 |       |                                           |  
 |       |                                           |  
 |       |                                           |  
 |      Na            Na             Na              |  
 |       |    Na            Na             Na        |  
 |   Na  |          Na  Na        Na  Na             |  
 |Na     |     Na             Na            Na       |  
 |       | Na             Na            Na           |  
 |Na  Na |       Na  Na         Na  Na               |  
 |      Na  Na         Na  Na         Na  Na         |  
 |  Na  Na        Na  Na         Na  Na              |  
 |       |                                           |  
 |       |Na  Na        Na  Na         Na  Na        |  
 Na  Na  |          Na            Na                 |  
 |       | Na  Na         Na  Na        Na  Na       |  
 |    Na |           Na             Na               |  
 |Na     |       Na             Na                   |  
 |      Na  Na         Na  Na         Na  Na         |  
 |  Na   |        Na             Na                  |  
 |       |Na            Na             Na            |  
 |       |                                           |  
 Na      |      Na            Na                     |  
 |       |                                           |  
 |       |                                           |  
 |       |                                           |  
 |       .-------------------------------------------.  
 |      /                                           /   
 |     /                                           /    
 |    /                                           /     
 |   /                                           /      
 |  /                                           /       
 | /                                           /        
 |/                                           /         
 *-------------------------------------------*          

Atomic positions and initial magnetic moments

Positions:
   0 Na     0.000000    0.000000   10.000000    ( 0.0000,  0.0000,  0.0000)
   1 Na     2.991062    2.115000   10.000000    ( 0.0000,  0.0000,  0.0000)
   2 Na     2.991062    0.000000   12.991062    ( 0.0000,  0.0000,  0.0000)
   3 Na     5.982123    2.115000   12.991062    ( 0.0000,  0.0000,  0.0000)
   4 Na     0.000000    0.000084   15.981821    ( 0.0000,  0.0000,  0.0000)
   5 Na     2.991023    2.114980   15.981966    ( 0.0000,  0.0000,  0.0000)
   6 Na     2.990690    0.000351   18.973873    ( 0.0000,  0.0000,  0.0000)
   7 Na     0.000000    2.114989   18.926767    ( 0.0000,  0.0000,  0.0000)
   8 Na     0.000000    4.230000   10.000000    ( 0.0000,  0.0000,  0.0000)
   9 Na     2.991062    6.345000   10.000000    ( 0.0000,  0.0000,  0.0000)
  10 Na     2.991062    4.230000   12.991062    ( 0.0000,  0.0000,  0.0000)
  11 Na     5.982123    6.345000   12.991062    ( 0.0000,  0.0000,  0.0000)
  12 Na     0.000000    4.229939   15.981829    ( 0.0000,  0.0000,  0.0000)
  13 Na     2.991142    6.345029   15.981836    ( 0.0000,  0.0000,  0.0000)
  14 Na     2.990677    4.229660   18.973882    ( 0.0000,  0.0000,  0.0000)
  15 Na     0.000000    6.344354   18.973909    ( 0.0000,  0.0000,  0.0000)
  16 Na     0.000000    8.460000   10.000000    ( 0.0000,  0.0000,  0.0000)
  17 Na     2.991062   10.575000   10.000000    ( 0.0000,  0.0000,  0.0000)
  18 Na     2.991062    8.460000   12.991062    ( 0.0000,  0.0000,  0.0000)
  19 Na     5.982123   10.575000   12.991062    ( 0.0000,  0.0000,  0.0000)
  20 Na     0.000000    8.459978   15.981858    ( 0.0000,  0.0000,  0.0000)
  21 Na     2.991139   10.574991   15.981850    ( 0.0000,  0.0000,  0.0000)
  22 Na     2.991104    8.459988   18.973299    ( 0.0000,  0.0000,  0.0000)
  23 Na     0.000000   10.575655   18.973924    ( 0.0000,  0.0000,  0.0000)
  24 Na     5.982123    0.000000   10.000000    ( 0.0000,  0.0000,  0.0000)
  25 Na     8.973185    2.115000   10.000000    ( 0.0000,  0.0000,  0.0000)
  26 Na     8.973185    0.000000   12.991062    ( 0.0000,  0.0000,  0.0000)
  27 Na    11.964247    2.115000   12.991062    ( 0.0000,  0.0000,  0.0000)
  28 Na     5.982118   -0.000012   15.981998    ( 0.0000,  0.0000,  0.0000)
  29 Na     8.973185    2.114977   15.981985    ( 0.0000,  0.0000,  0.0000)
  30 Na     8.973185    0.000021   18.973220    ( 0.0000,  0.0000,  0.0000)
  31 Na     5.982132    2.114988   18.973247    ( 0.0000,  0.0000,  0.0000)
  32 Na     5.982123    4.230000   10.000000    ( 0.0000,  0.0000,  0.0000)
  33 Na     8.973185    6.345000   10.000000    ( 0.0000,  0.0000,  0.0000)
  34 Na     8.973185    4.230000   12.991062    ( 0.0000,  0.0000,  0.0000)
  35 Na    11.964247    6.345000   12.991062    ( 0.0000,  0.0000,  0.0000)
  36 Na     5.982121    4.230032   15.982012    ( 0.0000,  0.0000,  0.0000)
  37 Na     8.973185    6.345016   15.981848    ( 0.0000,  0.0000,  0.0000)
  38 Na     8.973185    4.229988   18.973236    ( 0.0000,  0.0000,  0.0000)
  39 Na     5.982148    6.344996   18.973220    ( 0.0000,  0.0000,  0.0000)
  40 Na     5.982123    8.460000   10.000000    ( 0.0000,  0.0000,  0.0000)
  41 Na     8.973185   10.575000   10.000000    ( 0.0000,  0.0000,  0.0000)
  42 Na     8.973185    8.460000   12.991062    ( 0.0000,  0.0000,  0.0000)
  43 Na    11.964247   10.575000   12.991062    ( 0.0000,  0.0000,  0.0000)
  44 Na     5.982125    8.459980   15.981877    ( 0.0000,  0.0000,  0.0000)
  45 Na     8.973185   10.575007   15.981857    ( 0.0000,  0.0000,  0.0000)
  46 Na     8.973185    8.459991   18.973272    ( 0.0000,  0.0000,  0.0000)
  47 Na     5.982162   10.575016   18.973229    ( 0.0000,  0.0000,  0.0000)
  48 Na    11.964247    0.000000   10.000000    ( 0.0000,  0.0000,  0.0000)
  49 Na    14.955308    2.115000   10.000000    ( 0.0000,  0.0000,  0.0000)
  50 Na    14.955308    0.000000   12.991062    ( 0.0000,  0.0000,  0.0000)
  51 Na    17.946370    2.115000   12.991062    ( 0.0000,  0.0000,  0.0000)
  52 Na    11.964252   -0.000012   15.981998    ( 0.0000,  0.0000,  0.0000)
  53 Na    14.955347    2.114980   15.981966    ( 0.0000,  0.0000,  0.0000)
  54 Na    14.955680    0.000351   18.973873    ( 0.0000,  0.0000,  0.0000)
  55 Na    11.964238    2.114988   18.973247    ( 0.0000,  0.0000,  0.0000)
  56 Na    11.964247    4.230000   10.000000    ( 0.0000,  0.0000,  0.0000)
  57 Na    14.955308    6.345000   10.000000    ( 0.0000,  0.0000,  0.0000)
  58 Na    14.955308    4.230000   12.991062    ( 0.0000,  0.0000,  0.0000)
  59 Na    17.946370    6.345000   12.991062    ( 0.0000,  0.0000,  0.0000)
  60 Na    11.964249    4.230032   15.982012    ( 0.0000,  0.0000,  0.0000)
  61 Na    14.955228    6.345029   15.981836    ( 0.0000,  0.0000,  0.0000)
  62 Na    14.955693    4.229660   18.973882    ( 0.0000,  0.0000,  0.0000)
  63 Na    11.964222    6.344996   18.973220    ( 0.0000,  0.0000,  0.0000)
  64 Na    11.964247    8.460000   10.000000    ( 0.0000,  0.0000,  0.0000)
  65 Na    14.955308   10.575000   10.000000    ( 0.0000,  0.0000,  0.0000)
  66 Na    14.955308    8.460000   12.991062    ( 0.0000,  0.0000,  0.0000)
  67 Na    17.946370   10.575000   12.991062    ( 0.0000,  0.0000,  0.0000)
  68 Na    11.964245    8.459980   15.981877    ( 0.0000,  0.0000,  0.0000)
  69 Na    14.955231   10.574991   15.981850    ( 0.0000,  0.0000,  0.0000)
  70 Na    14.955266    8.459988   18.973299    ( 0.0000,  0.0000,  0.0000)
  71 Na    11.964209   10.575016   18.973229    ( 0.0000,  0.0000,  0.0000)
  72 Na     0.000000    2.115001   21.016651    ( 0.0000,  0.0000,  0.0000)

Unit cell:
           periodic     x           y           z      points  spacing
  1. axis:    yes   17.946370    0.000000    0.000000    88     0.2039
  2. axis:    yes    0.000000   12.690000    0.000000    64     0.1983
  3. axis:    no     0.000000    0.000000   28.973185   144     0.2012

  Lengths:  17.946370  12.690000  28.973185
  Angles:   90.000000  90.000000  90.000000

Effective grid spacing dv^(1/3) = 0.2011

     iter     time        total  log10-change:
                         energy   eigst   dens
iter:   1 08:54:29   -86.762434        c
iter:   2 08:55:33   -86.756370        c -2.89
iter:   3 08:56:41   -86.756017c       c -3.18
iter:   4 08:57:49   -86.756974c       c -3.60
iter:   5 08:58:53   -86.755776c       c -3.70
iter:   6 08:59:57   -86.755625c       c -3.91
iter:   7 09:01:04   -86.755767c       c -4.01c

Converged after 7 iterations.

Dipole moment: (-22.649355, -13.777201, 0.112316) |e|*Ang

Energy contributions relative to reference atoms: (reference = -322558.566329)

Kinetic:       +148.934772
Potential:     -134.093116
External:        +0.000000
XC:            -100.520481
Entropy (-ST):   -2.626974
Local:           +0.236545
SIC:             +0.000000
--------------------------
Free energy:    -88.069254
Extrapolated:   -86.755767

 Band  Eigenvalues  Occupancy
    0    -29.54367    2.00000
    1    -29.08838    2.00000
    2    -29.08722    2.00000
    3    -28.41830    2.00000
    4    -28.41721    2.00000
    5    -28.35385    2.00000
    6    -27.99513    2.00000
    7    -27.98500    2.00000
    8    -27.97944    2.00000
    9    -27.97050    2.00000
   10    -27.97040    2.00000
   11    -27.96492    2.00000
   12    -27.96471    2.00000
   13    -27.96470    2.00000
   14    -27.96443    2.00000
   15    -27.96391    2.00000
   16    -27.96248    2.00000
   17    -27.96177    2.00000
   18    -27.96134    2.00000
   19    -27.96031    2.00000
   20    -27.96010    2.00000
   21    -27.95938    2.00000
   22    -27.95887    2.00000
   23    -27.95874    2.00000
   24    -27.95758    2.00000
   25    -27.95715    2.00000
   26    -27.95662    2.00000
   27    -27.95593    2.00000
   28    -27.95571    2.00000
   29    -27.95570    2.00000
   30    -27.95556    2.00000
   31    -27.95535    2.00000
   32    -27.95529    2.00000
   33    -27.95510    2.00000
   34    -27.95461    2.00000
   35    -27.95455    2.00000
   36    -27.95439    2.00000
   37    -27.95395    2.00000
   38    -27.95388    2.00000
   39    -27.95381    2.00000
   40    -27.95364    2.00000
   41    -27.95343    2.00000
   42    -27.95342    2.00000
   43    -27.95334    2.00000
   44    -27.95323    2.00000
   45    -27.95303    2.00000
   46    -27.95300    2.00000
   47    -27.95290    2.00000
   48    -27.95093    2.00000
   49    -27.95091    2.00000
   50    -27.95062    2.00000
   51    -27.95050    2.00000
   52    -27.95038    2.00000
   53    -27.94957    2.00000
   54    -27.94803    2.00000
   55    -27.94587    2.00000
   56    -27.94508    2.00000
   57    -27.94493    2.00000
   58    -27.94451    2.00000
   59    -27.94432    2.00000
   60    -27.94406    2.00000
   61    -27.94385    2.00000
   62    -27.94367    2.00000
   63    -27.94361    2.00000
   64    -27.94236    2.00000
   65    -27.94132    2.00000
   66    -27.94066    2.00000
   67    -27.94049    2.00000
   68    -27.94046    2.00000
   69    -27.93996    2.00000
   70    -27.93871    2.00000
   71    -27.93693    2.00000
   72    -27.93687    2.00000
   73    -27.93677    2.00000
   74    -27.93677    2.00000
   75    -27.93608    2.00000
   76    -27.93580    2.00000
   77    -27.93557    2.00000
   78    -27.93503    2.00000
   79    -27.93465    2.00000
   80    -27.93457    2.00000
   81    -27.93447    2.00000
   82    -27.93440    2.00000
   83    -27.93363    2.00000
   84    -27.93340    2.00000
   85    -27.93326    2.00000
   86    -27.93299    2.00000
   87    -27.93284    2.00000
   88    -27.93237    2.00000
   89    -27.92672    2.00000
   90    -27.92665    2.00000
   91    -27.92660    2.00000
   92    -27.92560    2.00000
   93    -27.92280    2.00000
   94    -27.92079    2.00000
   95    -27.91078    2.00000
   96    -27.91056    2.00000
   97    -27.90896    2.00000
   98    -27.90808    2.00000
   99    -27.90631    2.00000
  100    -27.90630    2.00000
  101    -27.90601    2.00000
  102    -27.90601    2.00000
  103    -27.89519    2.00000
  104    -27.89480    2.00000
  105    -27.89445    2.00000
  106    -27.89417    2.00000
  107    -27.88996    2.00000
  108    -27.88985    2.00000
  109    -27.88847    2.00000
  110    -27.88845    2.00000
  111    -27.77993    2.00000
  112    -27.77899    2.00000
  113    -27.77860    2.00000
  114    -27.77825    2.00000
  115    -27.77336    2.00000
  116    -27.77277    2.00000
  117    -27.77141    2.00000
  118    -27.77090    2.00000
  119    -27.77016    2.00000
  120    -27.76826    2.00000
  121    -27.76791    2.00000
  122    -27.76739    2.00000
  123    -27.76636    2.00000
  124    -27.76588    2.00000
  125    -27.76536    2.00000
  126    -27.76440    2.00000
  127    -27.76383    2.00000
  128    -27.76366    2.00000
  129    -27.76334    2.00000
  130    -27.76332    2.00000
  131    -27.76319    2.00000
  132    -27.76315    2.00000
  133    -27.76276    2.00000
  134    -27.76219    2.00000
  135    -27.76190    2.00000
  136    -27.76187    2.00000
  137    -27.76140    2.00000
  138    -27.76027    2.00000
  139    -27.76019    2.00000
  140    -27.75995    2.00000
  141    -27.75986    2.00000
  142    -27.75938    2.00000
  143    -27.75867    2.00000
  144    -27.75852    2.00000
  145    -27.75837    2.00000
  146    -27.75744    2.00000
  147    -27.75690    2.00000
  148    -27.75624    2.00000
  149    -27.75614    2.00000
  150    -27.75593    2.00000
  151    -27.75550    2.00000
  152    -27.75538    2.00000
  153    -27.75478    2.00000
  154    -27.75445    2.00000
  155    -27.75433    2.00000
  156    -27.75418    2.00000
  157    -27.75388    2.00000
  158    -27.75354    2.00000
  159    -27.75291    2.00000
  160    -27.75266    2.00000
  161    -27.75213    2.00000
  162    -27.75189    2.00000
  163    -27.75130    2.00000
  164    -27.75089    2.00000
  165    -27.75072    2.00000
  166    -27.75036    2.00000
  167    -27.75035    2.00000
  168    -27.75025    2.00000
  169    -27.75019    2.00000
  170    -27.74938    2.00000
  171    -27.74938    2.00000
  172    -27.74906    2.00000
  173    -27.74887    2.00000
  174    -27.74805    2.00000
  175    -27.74790    2.00000
  176    -27.74776    2.00000
  177    -27.74690    2.00000
  178    -27.74682    2.00000
  179    -27.74656    2.00000
  180    -27.74635    2.00000
  181    -27.74581    2.00000
  182    -27.74549    2.00000
  183    -27.74461    2.00000
  184    -27.74412    2.00000
  185    -27.74379    2.00000
  186    -27.74371    2.00000
  187    -27.74343    2.00000
  188    -27.74323    2.00000
  189    -27.74322    2.00000
  190    -27.74296    2.00000
  191    -27.74295    2.00000
  192    -27.74294    2.00000
  193    -27.74252    2.00000
  194    -27.74249    2.00000
  195    -27.74212    2.00000
  196    -27.74204    2.00000
  197    -27.74166    2.00000
  198    -27.74163    2.00000
  199    -27.74130    2.00000
  200    -27.74103    2.00000
  201    -27.74077    2.00000
  202    -27.73998    2.00000
  203    -27.73968    2.00000
  204    -27.73942    2.00000
  205    -27.73835    2.00000
  206    -27.73779    2.00000
  207    -27.73721    2.00000
  208    -27.73627    2.00000
  209    -27.73600    2.00000
  210    -27.73595    2.00000
  211    -27.73564    2.00000
  212    -27.73556    2.00000
  213    -27.73523    2.00000
  214    -27.73427    2.00000
  215    -27.73394    2.00000
  216    -27.73326    2.00000
  217    -27.73244    2.00000
  218    -27.73061    2.00000
  219     -5.93534    2.00000
  220     -5.45462    2.00000
  221     -5.44357    2.00000
  222     -5.39448    2.00000
  223     -4.98260    2.00000
  224     -4.96714    2.00000
  225     -4.93231    2.00000
  226     -4.90898    2.00000
  227     -4.53754    1.99997
  228     -4.49865    1.99997
  229     -4.49654    1.99997
  230     -4.49486    1.99996
  231     -4.47903    1.99996
  232     -4.44026    1.99995
  233     -4.43640    1.99995
  234     -4.07992    1.99944
  235     -4.02876    1.99922
  236     -4.01912    1.99916
  237     -3.98234    1.99893
  238     -3.97195    1.99885
  239     -3.96706    1.99882
  240     -3.96265    1.99878
  241     -3.95796    1.99874
  242     -3.59390    1.98585
  243     -3.52578    1.97781
  244     -3.50912    1.97523
  245     -3.49894    1.97352
  246     -3.31623    1.91320
  247     -3.12022    1.71293
  248     -3.11427    1.70303
  249     -3.11099    1.69746
  250     -3.10489    1.68687
  251     -3.09165    1.66283
  252     -3.06980    1.62002
  253     -3.05689    1.59282
  254     -3.04251    1.56085
  255     -2.86437    1.04026
  256     -2.78697    0.78564
  257     -2.62234    0.35511
  258     -2.61309    0.33747
  259     -2.59167    0.29927
  260     -2.57700    0.27522
  261     -2.57696    0.27517
  262     -2.57540    0.27270
  263     -2.43054    0.11339
  264     -2.36710    0.07577
  265     -2.22277    0.02964
  266     -2.18667    0.02338
  267     -2.18220    0.02270
  268     -1.98588    0.00618
  269     -1.97412    0.00572
  270     -1.95647    0.00508
  271     -1.92321    0.00408
  272     -1.88032    0.00306
  273     -1.79497    0.00174
  274     -1.78432    0.00162
  275     -1.78278    0.00160
  276     -1.75248    0.00131
  277     -1.75042    0.00129
  278     -1.74976    0.00128
  279     -1.74922    0.00128
  280     -1.74319    0.00123
  281     -1.74085    0.00121
  282     -1.70566    0.00096
  283     -1.68476    0.00083
  284     -1.68270    0.00082
  285     -1.48405    0.00022
  286     -1.45186    0.00018
  287     -1.43031    0.00015
  288     -1.38795    0.00012
  289     -1.33504    0.00008
  290     -1.29505    0.00006
  291     -1.08757    0.00002
  292     -1.08663    0.00002
  293     -1.07976    0.00001
  294     -1.06143    0.00001
  295     -1.06013    0.00001
  296     -1.05300    0.00001
  297     -1.02555    0.00001
  298     -0.93169    0.00001
  299     -0.88594    0.00000
  300     -0.86747    0.00000
  301     -0.84475    0.00000
  302     -0.84124    0.00000
  303     -0.79697    0.00000
  304     -0.76011    0.00000
  305     -0.63857    0.00000
  306     -0.63813    0.00000
  307     -0.63289    0.00000
  308     -0.58063    0.00000
  309     -0.56567    0.00000
  310     -0.50632    0.00000

Fermi level: -2.85229

Gap: 0.077 eV
Transition (v -> c):
  (s=0, k=0, n=255, [0.00, 0.00, 0.00]) -> (s=0, k=0, n=256, [0.00, 0.00, 0.00])
No difference between direct/indirect transitions

Forces in eV/Ang:
  0 Na    0.00000    0.00538   -0.00098
  1 Na   -0.00027   -0.00083   -0.00555
  2 Na    0.00179    0.00180    0.00693
  3 Na   -0.00179   -0.00138    0.00737
  4 Na    0.00000   -0.00259   -0.02961
  5 Na    0.00027   -0.00138   -0.01370
  6 Na   -0.02916    0.02699    0.05176
  7 Na    0.00000   -0.00053   -2.69151
  8 Na    0.00000   -0.00478   -0.00207
  9 Na    0.00744   -0.00466    0.00060
 10 Na    0.00161   -0.00042    0.00594
 11 Na    0.00298   -0.00009    0.01511
 12 Na    0.00000    0.00417   -0.02900
 13 Na    0.00582    0.00313   -0.01939
 14 Na   -0.03006   -0.02618    0.05237
 15 Na    0.00000   -0.04483    0.05203
 16 Na    0.00000   -0.00060    0.01198
 17 Na    0.00650    0.00549   -0.00006
 18 Na    0.00172   -0.00136    0.01515
 19 Na    0.00317    0.00147    0.01413
 20 Na    0.00000   -0.00154   -0.01839
 21 Na    0.00563   -0.00175   -0.01840
 22 Na    0.00324   -0.00082    0.00736
 23 Na    0.00000    0.04548    0.05315
 24 Na    0.00047   -0.00290   -0.00534
 25 Na    0.00000   -0.00060   -0.00178
 26 Na    0.00000   -0.00351    0.01235
 27 Na    0.00179   -0.00138    0.00737
 28 Na   -0.00045   -0.00101   -0.00758
 29 Na    0.00000   -0.00156   -0.00723
 30 Na    0.00000    0.00080    0.00208
 31 Na    0.00199   -0.00082    0.00402
 32 Na    0.00141    0.00373   -0.00600
 33 Na    0.00000    0.00805   -0.01623
 34 Na    0.00000    0.00507    0.01175
 35 Na   -0.00298   -0.00009    0.01511
 36 Na   -0.00026    0.00238   -0.00661
 37 Na    0.00000    0.00122   -0.01688
 38 Na    0.00000   -0.00020    0.00316
 39 Na    0.00238    0.00019    0.00214
 40 Na    0.00941   -0.00083   -0.01233
 41 Na    0.00000   -0.00745   -0.01732
 42 Na    0.00000   -0.00157    0.01547
 43 Na   -0.00317    0.00147    0.01413
 44 Na   -0.00058   -0.00136   -0.01521
 45 Na    0.00000    0.00033   -0.01628
 46 Na    0.00000   -0.00060    0.00595
 47 Na    0.00332    0.00063    0.00279
 48 Na   -0.00047   -0.00290   -0.00534
 49 Na    0.00027   -0.00083   -0.00555
 50 Na   -0.00179    0.00180    0.00693
 51 Na    0.00000   -0.00158    0.00460
 52 Na    0.00045   -0.00101   -0.00758
 53 Na   -0.00027   -0.00138   -0.01370
 54 Na    0.02916    0.02699    0.05176
 55 Na   -0.00199   -0.00082    0.00402
 56 Na   -0.00141    0.00373   -0.00600
 57 Na   -0.00744   -0.00466    0.00060
 58 Na   -0.00161   -0.00042    0.00594
 59 Na    0.00000   -0.00383    0.01575
 60 Na    0.00026    0.00238   -0.00661
 61 Na   -0.00582    0.00313   -0.01939
 62 Na    0.03006   -0.02618    0.05237
 63 Na   -0.00238    0.00019    0.00214
 64 Na   -0.00941   -0.00083   -0.01233
 65 Na   -0.00650    0.00549   -0.00006
 66 Na   -0.00172   -0.00136    0.01515
 67 Na    0.00000    0.00540    0.01515
 68 Na    0.00058   -0.00136   -0.01521
 69 Na   -0.00563   -0.00175   -0.01840
 70 Na   -0.00324   -0.00082    0.00736
 71 Na   -0.00332    0.00063    0.00279
 72 Na    0.00000   -0.00144    2.50651

System changes: positions 

Initializing position-dependent things.

Density initialized from wave functions
         .-------------------------------------------.  
        /|                                           |  
       / |                                           |  
      /  |                                           |  
     /   |                                           |  
    /    |                                           |  
   /     |                                           |  
  /      |                                           |  
 *       |                                           |  
 |       |                                           |  
 |       |                                           |  
 |       |                                           |  
 |       |                                           |  
 |       |                                           |  
 |      Na            Na             Na              |  
 |       |    Na            Na             Na        |  
 |Na Na  Na         Na  Na        Na  Na             |  
 |       |     Na             Na            Na       |  
 |       | Na             Na            Na           |  
 |Na  Na |       Na  Na         Na  Na               |  
 |      Na  Na         Na  Na         Na  Na         |  
 |  Na  Na        Na  Na         Na  Na              |  
 |       |                                           |  
 |       |Na  Na        Na  Na         Na  Na        |  
 |   Na  |          Na            Na                 |  
 |       | Na  Na         Na  Na        Na  Na       |  
 |    Na |           Na             Na               |  
 |Na     |       Na             Na                   |  
 |      Na  Na         Na  Na         Na  Na         |  
 |  Na   |        Na             Na                  |  
 |       |Na            Na             Na            |  
 |       |                                           |  
 Na      |      Na            Na                     |  
 |       |                                           |  
 |       |                                           |  
 |       |                                           |  
 |       .-------------------------------------------.  
 |      /                                           /   
 |     /                                           /    
 |    /                                           /     
 |   /                                           /      
 |  /                                           /       
 | /                                           /        
 |/                                           /         
 *-------------------------------------------*          

Atomic positions and initial magnetic moments

Positions:
   0 Na     0.000000    0.000000   10.000000    ( 0.0000,  0.0000,  0.0000)
   1 Na     2.991062    2.115000   10.000000    ( 0.0000,  0.0000,  0.0000)
   2 Na     2.991062    0.000000   12.991062    ( 0.0000,  0.0000,  0.0000)
   3 Na     5.982123    2.115000   12.991062    ( 0.0000,  0.0000,  0.0000)
   4 Na     0.000000   -0.000108   15.979621    ( 0.0000,  0.0000,  0.0000)
   5 Na     2.991043    2.114878   15.980948    ( 0.0000,  0.0000,  0.0000)
   6 Na     2.988524    0.002356   18.977718    ( 0.0000,  0.0000,  0.0000)
   7 Na     0.000000    2.114950   18.726767    ( 0.0000,  0.0000,  0.0000)
   8 Na     0.000000    4.230000   10.000000    ( 0.0000,  0.0000,  0.0000)
   9 Na     2.991062    6.345000   10.000000    ( 0.0000,  0.0000,  0.0000)
  10 Na     2.991062    4.230000   12.991062    ( 0.0000,  0.0000,  0.0000)
  11 Na     5.982123    6.345000   12.991062    ( 0.0000,  0.0000,  0.0000)
  12 Na    -0.000000    4.230248   15.979675    ( 0.0000,  0.0000,  0.0000)
  13 Na     2.991574    6.345261   15.980395    ( 0.0000,  0.0000,  0.0000)
  14 Na     2.988444    4.227715   18.977772    ( 0.0000,  0.0000,  0.0000)
  15 Na    -0.000000    6.341024   18.977774    ( 0.0000,  0.0000,  0.0000)
  16 Na     0.000000    8.460000   10.000000    ( 0.0000,  0.0000,  0.0000)
  17 Na     2.991062   10.575000   10.000000    ( 0.0000,  0.0000,  0.0000)
  18 Na     2.991062    8.460000   12.991062    ( 0.0000,  0.0000,  0.0000)
  19 Na     5.982123   10.575000   12.991062    ( 0.0000,  0.0000,  0.0000)
  20 Na    -0.000000    8.459863   15.980492    ( 0.0000,  0.0000,  0.0000)
  21 Na     2.991558   10.574861   15.980483    ( 0.0000,  0.0000,  0.0000)
  22 Na     2.991345    8.459927   18.973845    ( 0.0000,  0.0000,  0.0000)
  23 Na     0.000000   10.579034   18.977873    ( 0.0000,  0.0000,  0.0000)
  24 Na     5.982123    0.000000   10.000000    ( 0.0000,  0.0000,  0.0000)
  25 Na     8.973185    2.115000   10.000000    ( 0.0000,  0.0000,  0.0000)
  26 Na     8.973185    0.000000   12.991062    ( 0.0000,  0.0000,  0.0000)
  27 Na    11.964247    2.115000   12.991062    ( 0.0000,  0.0000,  0.0000)
  28 Na     5.982085   -0.000088   15.981434    ( 0.0000,  0.0000,  0.0000)
  29 Na     8.973185    2.114861   15.981448    ( 0.0000,  0.0000,  0.0000)
  30 Na     8.973185    0.000080   18.973375    ( 0.0000,  0.0000,  0.0000)
  31 Na     5.982279    2.114927   18.973546    ( 0.0000,  0.0000,  0.0000)
  32 Na     5.982123    4.230000   10.000000    ( 0.0000,  0.0000,  0.0000)
  33 Na     8.973185    6.345000   10.000000    ( 0.0000,  0.0000,  0.0000)
  34 Na     8.973185    4.230000   12.991062    ( 0.0000,  0.0000,  0.0000)
  35 Na    11.964247    6.345000   12.991062    ( 0.0000,  0.0000,  0.0000)
  36 Na     5.982101    4.230209   15.981521    ( 0.0000,  0.0000,  0.0000)
  37 Na     8.973185    6.345107   15.980594    ( 0.0000,  0.0000,  0.0000)
  38 Na     8.973185    4.229973   18.973471    ( 0.0000,  0.0000,  0.0000)
  39 Na     5.982325    6.345010   18.973379    ( 0.0000,  0.0000,  0.0000)
  40 Na     5.982123    8.460000   10.000000    ( 0.0000,  0.0000,  0.0000)
  41 Na     8.973185   10.575000   10.000000    ( 0.0000,  0.0000,  0.0000)
  42 Na     8.973185    8.460000   12.991062    ( 0.0000,  0.0000,  0.0000)
  43 Na    11.964247   10.575000   12.991062    ( 0.0000,  0.0000,  0.0000)
  44 Na     5.982082    8.459879   15.980747    ( 0.0000,  0.0000,  0.0000)
  45 Na     8.973185   10.575032   15.980648    ( 0.0000,  0.0000,  0.0000)
  46 Na     8.973185    8.459947   18.973714    ( 0.0000,  0.0000,  0.0000)
  47 Na     5.982408   10.575062   18.973437    ( 0.0000,  0.0000,  0.0000)
  48 Na    11.964247    0.000000   10.000000    ( 0.0000,  0.0000,  0.0000)
  49 Na    14.955308    2.115000   10.000000    ( 0.0000,  0.0000,  0.0000)
  50 Na    14.955308    0.000000   12.991062    ( 0.0000,  0.0000,  0.0000)
  51 Na    17.946370    2.115000   12.991062    ( 0.0000,  0.0000,  0.0000)
  52 Na    11.964285   -0.000088   15.981434    ( 0.0000,  0.0000,  0.0000)
  53 Na    14.955327    2.114878   15.980948    ( 0.0000,  0.0000,  0.0000)
  54 Na    14.957847    0.002356   18.977718    ( 0.0000,  0.0000,  0.0000)
  55 Na    11.964091    2.114927   18.973546    ( 0.0000,  0.0000,  0.0000)
  56 Na    11.964247    4.230000   10.000000    ( 0.0000,  0.0000,  0.0000)
  57 Na    14.955308    6.345000   10.000000    ( 0.0000,  0.0000,  0.0000)
  58 Na    14.955308    4.230000   12.991062    ( 0.0000,  0.0000,  0.0000)
  59 Na    17.946370    6.345000   12.991062    ( 0.0000,  0.0000,  0.0000)
  60 Na    11.964269    4.230209   15.981521    ( 0.0000,  0.0000,  0.0000)
  61 Na    14.954796    6.345261   15.980395    ( 0.0000,  0.0000,  0.0000)
  62 Na    14.957926    4.227715   18.977772    ( 0.0000,  0.0000,  0.0000)
  63 Na    11.964045    6.345010   18.973379    ( 0.0000,  0.0000,  0.0000)
  64 Na    11.964247    8.460000   10.000000    ( 0.0000,  0.0000,  0.0000)
  65 Na    14.955308   10.575000   10.000000    ( 0.0000,  0.0000,  0.0000)
  66 Na    14.955308    8.460000   12.991062    ( 0.0000,  0.0000,  0.0000)
  67 Na    17.946370   10.575000   12.991062    ( 0.0000,  0.0000,  0.0000)
  68 Na    11.964288    8.459879   15.980747    ( 0.0000,  0.0000,  0.0000)
  69 Na    14.954812   10.574861   15.980483    ( 0.0000,  0.0000,  0.0000)
  70 Na    14.955025    8.459927   18.973845    ( 0.0000,  0.0000,  0.0000)
  71 Na    11.963962   10.575062   18.973437    ( 0.0000,  0.0000,  0.0000)
  72 Na    -0.000000    2.114894   21.202905    ( 0.0000,  0.0000,  0.0000)

Unit cell:
           periodic     x           y           z      points  spacing
  1. axis:    yes   17.946370    0.000000    0.000000    88     0.2039
  2. axis:    yes    0.000000   12.690000    0.000000    64     0.1983
  3. axis:    no     0.000000    0.000000   28.973185   144     0.2012

  Lengths:  17.946370  12.690000  28.973185
  Angles:   90.000000  90.000000  90.000000

Effective grid spacing dv^(1/3) = 0.2011

     iter     time        total  log10-change:
                         energy   eigst   dens
iter:   1 09:05:06   -87.682441        c
iter:   2 09:06:05   -87.476543        c -2.17
iter:   3 09:07:02   -87.448001c       c -2.49
iter:   4 09:08:10   -87.439520c       c -2.94
iter:   5 09:09:19   -87.432228c       c -3.06
iter:   6 09:10:37   -87.429522c       c -3.30
iter:   7 09:11:52   -87.429783c       c -3.37
iter:   8 09:13:03   -87.429564c       c -3.53
iter:   9 09:14:05   -87.429461c       c -3.74
iter:  10 09:15:12   -87.429057c       c -3.80
iter:  11 09:16:27   -87.428932c       c -3.94
iter:  12 09:17:38   -87.429125c       c -4.14c

Converged after 12 iterations.

Dipole moment: (-22.638143, -13.892405, 0.202410) |e|*Ang

Energy contributions relative to reference atoms: (reference = -322558.566329)

Kinetic:       +146.196770
Potential:     -132.424104
External:        +0.000000
XC:            -100.130022
Entropy (-ST):   -2.626667
Local:           +0.241564
SIC:             +0.000000
--------------------------
Free energy:    -88.742459
Extrapolated:   -87.429125

 Band  Eigenvalues  Occupancy
    0    -28.79427    2.00000
    1    -28.66158    2.00000
    2    -28.65994    2.00000
    3    -28.00036    2.00000
    4    -27.97590    2.00000
    5    -27.96575    2.00000
    6    -27.96010    2.00000
    7    -27.94821    2.00000
    8    -27.94803    2.00000
    9    -27.94629    2.00000
   10    -27.94615    2.00000
   11    -27.94608    2.00000
   12    -27.94586    2.00000
   13    -27.94353    2.00000
   14    -27.94229    2.00000
   15    -27.94182    2.00000
   16    -27.94158    2.00000
   17    -27.94147    2.00000
   18    -27.94129    2.00000
   19    -27.94123    2.00000
   20    -27.94049    2.00000
   21    -27.93972    2.00000
   22    -27.93949    2.00000
   23    -27.93937    2.00000
   24    -27.93924    2.00000
   25    -27.93855    2.00000
   26    -27.93833    2.00000
   27    -27.93686    2.00000
   28    -27.93670    2.00000
   29    -27.93658    2.00000
   30    -27.93636    2.00000
   31    -27.93596    2.00000
   32    -27.93581    2.00000
   33    -27.93548    2.00000
   34    -27.93533    2.00000
   35    -27.93502    2.00000
   36    -27.93486    2.00000
   37    -27.93482    2.00000
   38    -27.93457    2.00000
   39    -27.93453    2.00000
   40    -27.93446    2.00000
   41    -27.93434    2.00000
   42    -27.93407    2.00000
   43    -27.93391    2.00000
   44    -27.93335    2.00000
   45    -27.93216    2.00000
   46    -27.93200    2.00000
   47    -27.93182    2.00000
   48    -27.93180    2.00000
   49    -27.93144    2.00000
   50    -27.93096    2.00000
   51    -27.93094    2.00000
   52    -27.93075    2.00000
   53    -27.92886    2.00000
   54    -27.92880    2.00000
   55    -27.92840    2.00000
   56    -27.92709    2.00000
   57    -27.92672    2.00000
   58    -27.92552    2.00000
   59    -27.92539    2.00000
   60    -27.92530    2.00000
   61    -27.92473    2.00000
   62    -27.92439    2.00000
   63    -27.92429    2.00000
   64    -27.92248    2.00000
   65    -27.92218    2.00000
   66    -27.92208    2.00000
   67    -27.92120    2.00000
   68    -27.92103    2.00000
   69    -27.92038    2.00000
   70    -27.92023    2.00000
   71    -27.92019    2.00000
   72    -27.91941    2.00000
   73    -27.91884    2.00000
   74    -27.91860    2.00000
   75    -27.91749    2.00000
   76    -27.91675    2.00000
   77    -27.91661    2.00000
   78    -27.91600    2.00000
   79    -27.91555    2.00000
   80    -27.91552    2.00000
   81    -27.91549    2.00000
   82    -27.91547    2.00000
   83    -27.91375    2.00000
   84    -27.91360    2.00000
   85    -27.91326    2.00000
   86    -27.91248    2.00000
   87    -27.91219    2.00000
   88    -27.91170    2.00000
   89    -27.90963    2.00000
   90    -27.90890    2.00000
   91    -27.90839    2.00000
   92    -27.90831    2.00000
   93    -27.90576    2.00000
   94    -27.90420    2.00000
   95    -27.90063    2.00000
   96    -27.90038    2.00000
   97    -27.90030    2.00000
   98    -27.90021    2.00000
   99    -27.89296    2.00000
  100    -27.89268    2.00000
  101    -27.89095    2.00000
  102    -27.88995    2.00000
  103    -27.88919    2.00000
  104    -27.88874    2.00000
  105    -27.88853    2.00000
  106    -27.88833    2.00000
  107    -27.88467    2.00000
  108    -27.88342    2.00000
  109    -27.88317    2.00000
  110    -27.88271    2.00000
  111    -27.76219    2.00000
  112    -27.76147    2.00000
  113    -27.76132    2.00000
  114    -27.76048    2.00000
  115    -27.75794    2.00000
  116    -27.75688    2.00000
  117    -27.75311    2.00000
  118    -27.75278    2.00000
  119    -27.75240    2.00000
  120    -27.75086    2.00000
  121    -27.75079    2.00000
  122    -27.74889    2.00000
  123    -27.74855    2.00000
  124    -27.74835    2.00000
  125    -27.74782    2.00000
  126    -27.74561    2.00000
  127    -27.74501    2.00000
  128    -27.74456    2.00000
  129    -27.74435    2.00000
  130    -27.74432    2.00000
  131    -27.74389    2.00000
  132    -27.74352    2.00000
  133    -27.74331    2.00000
  134    -27.74307    2.00000
  135    -27.74304    2.00000
  136    -27.74278    2.00000
  137    -27.74203    2.00000
  138    -27.74130    2.00000
  139    -27.74116    2.00000
  140    -27.74096    2.00000
  141    -27.74062    2.00000
  142    -27.74037    2.00000
  143    -27.74016    2.00000
  144    -27.73955    2.00000
  145    -27.73950    2.00000
  146    -27.73895    2.00000
  147    -27.73868    2.00000
  148    -27.73844    2.00000
  149    -27.73806    2.00000
  150    -27.73710    2.00000
  151    -27.73701    2.00000
  152    -27.73675    2.00000
  153    -27.73585    2.00000
  154    -27.73573    2.00000
  155    -27.73543    2.00000
  156    -27.73530    2.00000
  157    -27.73443    2.00000
  158    -27.73440    2.00000
  159    -27.73420    2.00000
  160    -27.73328    2.00000
  161    -27.73317    2.00000
  162    -27.73255    2.00000
  163    -27.73217    2.00000
  164    -27.73134    2.00000
  165    -27.73127    2.00000
  166    -27.73106    2.00000
  167    -27.73102    2.00000
  168    -27.73056    2.00000
  169    -27.73049    2.00000
  170    -27.73026    2.00000
  171    -27.72967    2.00000
  172    -27.72946    2.00000
  173    -27.72921    2.00000
  174    -27.72895    2.00000
  175    -27.72816    2.00000
  176    -27.72796    2.00000
  177    -27.72768    2.00000
  178    -27.72764    2.00000
  179    -27.72759    2.00000
  180    -27.72715    2.00000
  181    -27.72652    2.00000
  182    -27.72625    2.00000
  183    -27.72587    2.00000
  184    -27.72581    2.00000
  185    -27.72560    2.00000
  186    -27.72548    2.00000
  187    -27.72458    2.00000
  188    -27.72436    2.00000
  189    -27.72314    2.00000
  190    -27.72304    2.00000
  191    -27.72281    2.00000
  192    -27.72239    2.00000
  193    -27.72216    2.00000
  194    -27.72178    2.00000
  195    -27.72169    2.00000
  196    -27.72116    2.00000
  197    -27.72079    2.00000
  198    -27.72035    2.00000
  199    -27.72003    2.00000
  200    -27.71966    2.00000
  201    -27.71938    2.00000
  202    -27.71916    2.00000
  203    -27.71912    2.00000
  204    -27.71835    2.00000
  205    -27.71717    2.00000
  206    -27.71689    2.00000
  207    -27.71668    2.00000
  208    -27.71664    2.00000
  209    -27.71492    2.00000
  210    -27.71487    2.00000
  211    -27.71484    2.00000
  212    -27.71355    2.00000
  213    -27.71309    2.00000
  214    -27.71289    2.00000
  215    -27.71230    2.00000
  216    -27.70972    2.00000
  217    -27.70874    2.00000
  218    -27.70628    2.00000
  219     -5.91730    2.00000
  220     -5.43733    2.00000
  221     -5.42432    2.00000
  222     -5.37383    2.00000
  223     -4.96405    2.00000
  224     -4.94827    2.00000
  225     -4.91038    2.00000
  226     -4.88908    2.00000
  227     -4.51189    1.99997
  228     -4.48019    1.99997
  229     -4.47737    1.99997
  230     -4.47550    1.99996
  231     -4.45859    1.99996
  232     -4.42008    1.99995
  233     -4.41864    1.99995
  234     -4.05095    1.99940
  235     -4.00998    1.99922
  236     -4.00099    1.99917
  237     -3.96180    1.99892
  238     -3.95103    1.99884
  239     -3.95004    1.99883
  240     -3.94276    1.99878
  241     -3.93835    1.99874
  242     -3.57021    1.98542
  243     -3.50357    1.97736
  244     -3.48790    1.97490
  245     -3.48104    1.97374
  246     -3.30350    1.91670
  247     -3.10151    1.71369
  248     -3.09446    1.70197
  249     -3.09029    1.69485
  250     -3.08634    1.68798
  251     -3.07508    1.66769
  252     -3.04568    1.60978
  253     -3.03505    1.58705
  254     -3.02398    1.56233
  255     -2.85272    1.06528
  256     -2.76606    0.78016
  257     -2.59516    0.33980
  258     -2.59381    0.33727
  259     -2.56843    0.29245
  260     -2.55943    0.27779
  261     -2.55805    0.27559
  262     -2.55733    0.27445
  263     -2.42113    0.12057
  264     -2.34492    0.07432
  265     -2.20982    0.03088
  266     -2.16746    0.02337
  267     -2.16485    0.02297
  268     -1.97338    0.00646
  269     -1.95084    0.00556
  270     -1.92608    0.00472
  271     -1.90127    0.00400
  272     -1.86299    0.00310
  273     -1.76914    0.00166
  274     -1.76780    0.00165
  275     -1.76194    0.00158
  276     -1.73679    0.00134
  277     -1.73117    0.00129
  278     -1.73092    0.00129
  279     -1.73085    0.00129
  280     -1.72425    0.00123
  281     -1.72380    0.00123
  282     -1.69166    0.00099
  283     -1.66548    0.00083
  284     -1.66411    0.00082
  285     -1.46002    0.00021
  286     -1.44009    0.00019
  287     -1.41447    0.00016
  288     -1.37017    0.00012
  289     -1.32802    0.00009
  290     -1.28223    0.00006
  291     -1.07563    0.00002
  292     -1.06922    0.00002
  293     -1.06083    0.00001
  294     -1.04244    0.00001
  295     -1.03967    0.00001
  296     -1.03697    0.00001
  297     -1.03417    0.00001
  298     -0.90648    0.00001
  299     -0.86793    0.00000
  300     -0.84945    0.00000
  301     -0.82989    0.00000
  302     -0.82939    0.00000
  303     -0.78144    0.00000
  304     -0.76157    0.00000
  305     -0.61777    0.00000
  306     -0.61566    0.00000
  307     -0.60758    0.00000
  308     -0.56069    0.00000
  309     -0.54926    0.00000
  310     -0.50092    0.00000

Fermi level: -2.83311

Gap: 0.087 eV
Transition (v -> c):
  (s=0, k=0, n=255, [0.00, 0.00, 0.00]) -> (s=0, k=0, n=256, [0.00, 0.00, 0.00])
No difference between direct/indirect transitions

Forces in eV/Ang:
  0 Na    0.00000    0.00450   -0.00305
  1 Na   -0.00017   -0.00083   -0.00767
  2 Na    0.00230    0.00135    0.00831
  3 Na   -0.00149   -0.00136    0.00931
  4 Na    0.00000   -0.03423   -0.07210
  5 Na    0.00714   -0.00129   -0.02226
  6 Na   -0.02884    0.02724    0.04858
  7 Na    0.00000   -0.00046   -1.12216
  8 Na    0.00000   -0.00390   -0.00413
  9 Na    0.00721   -0.00450   -0.00002
 10 Na    0.00212    0.00002    0.00735
 11 Na    0.00394    0.00107    0.01433
 12 Na    0.00000    0.03567   -0.07145
 13 Na    0.00449   -0.00142   -0.01347
 14 Na   -0.02958   -0.02634    0.04896
 15 Na    0.00000   -0.03620    0.04345
 16 Na    0.00000   -0.00060    0.01041
 17 Na    0.00628    0.00533   -0.00068
 18 Na    0.00416   -0.00134    0.01352
 19 Na    0.00412    0.00031    0.01337
 20 Na    0.00000   -0.00142   -0.01086
 21 Na    0.00428    0.00272   -0.01247
 22 Na    0.00229   -0.00079    0.00573
 23 Na    0.00000    0.03684    0.04471
 24 Na    0.00132   -0.00284   -0.00620
 25 Na    0.00000   -0.00059   -0.00313
 26 Na    0.00000   -0.00404    0.01080
 27 Na    0.00149   -0.00136    0.00931
 28 Na   -0.00204    0.00069   -0.00704
 29 Na    0.00000   -0.00145   -0.00742
 30 Na    0.00000    0.00155    0.00335
 31 Na    0.00163   -0.00079    0.00275
 32 Na    0.00225    0.00366   -0.00686
 33 Na    0.00000    0.00777   -0.01503
 34 Na    0.00000    0.00560    0.01024
 35 Na   -0.00394    0.00107    0.01433
 36 Na   -0.00184    0.00058   -0.00608
 37 Na    0.00000    0.00159   -0.01638
 38 Na    0.00000   -0.00095    0.00435
 39 Na   -0.00007   -0.00153    0.00233
 40 Na    0.00984   -0.00083   -0.01049
 41 Na    0.00000   -0.00717   -0.01611
 42 Na    0.00000   -0.00156    0.01415
 43 Na   -0.00412    0.00031    0.01337
 44 Na   -0.00065   -0.00128   -0.01445
 45 Na    0.00000   -0.00013   -0.01576
 46 Na    0.00000   -0.00061    0.00499
 47 Na    0.00082    0.00233    0.00291
 48 Na   -0.00132   -0.00284   -0.00620
 49 Na    0.00017   -0.00083   -0.00767
 50 Na   -0.00230    0.00135    0.00831
 51 Na    0.00000   -0.00157    0.01128
 52 Na    0.00204    0.00069   -0.00704
 53 Na   -0.00714   -0.00129   -0.02226
 54 Na    0.02884    0.02724    0.04858
 55 Na   -0.00163   -0.00079    0.00275
 56 Na   -0.00225    0.00366   -0.00686
 57 Na   -0.00721   -0.00450   -0.00002
 58 Na   -0.00212    0.00002    0.00735
 59 Na    0.00000   -0.00437    0.01198
 60 Na    0.00184    0.00058   -0.00608
 61 Na   -0.00449   -0.00142   -0.01347
 62 Na    0.02958   -0.02634    0.04896
 63 Na    0.00007   -0.00153    0.00233
 64 Na   -0.00984   -0.00083   -0.01049
 65 Na   -0.00628    0.00533   -0.00068
 66 Na   -0.00416   -0.00134    0.01352
 67 Na    0.00000    0.00593    0.01141
 68 Na    0.00065   -0.00128   -0.01445
 69 Na   -0.00428    0.00272   -0.01247
 70 Na   -0.00229   -0.00079    0.00573
 71 Na   -0.00082    0.00233    0.00291
 72 Na    0.00000   -0.00129    1.02197

System changes: positions 

Initializing position-dependent things.

Density initialized from wave functions
         .-------------------------------------------.  
        /|                                           |  
       / |                                           |  
      /  |                                           |  
     /   |                                           |  
    /    |                                           |  
   /     |                                           |  
  /      |                                           |  
 *       |                                           |  
 |       |                                           |  
 |       |                                           |  
 |       |                                           |  
 |       |                                           |  
 |       |                                           |  
 |      Na            Na             Na              |  
 |       |    Na            Na             Na        |  
 |Na Na  Na         Na  Na        Na  Na             |  
 |       |     Na             Na            Na       |  
 |       | Na             Na            Na           |  
 |    Na |       Na  Na         Na  Na               |  
 |Na    Na  Na         Na  Na         Na  Na         |  
 |  Na  Na        Na  Na         Na  Na              |  
 |       |                                           |  
 |       |Na  Na        Na  Na         Na  Na        |  
 |   Na  |          Na            Na                 |  
 |       | Na  Na         Na  Na        Na  Na       |  
 |    Na |           Na             Na               |  
 |Na     |       Na             Na                   |  
 |      Na  Na         Na  Na         Na  Na         |  
 |  Na   |        Na             Na                  |  
 |       |Na            Na             Na            |  
 |       |                                           |  
 Na      |      Na            Na                     |  
 |       |                                           |  
 |       |                                           |  
 |       |                                           |  
 |       .-------------------------------------------.  
 |      /                                           /   
 |     /                                           /    
 |    /                                           /     
 |   /                                           /      
 |  /                                           /       
 | /                                           /        
 |/                                           /         
 *-------------------------------------------*          

Atomic positions and initial magnetic moments

Positions:
   0 Na     0.000000    0.000000   10.000000    ( 0.0000,  0.0000,  0.0000)
   1 Na     2.991062    2.115000   10.000000    ( 0.0000,  0.0000,  0.0000)
   2 Na     2.991062    0.000000   12.991062    ( 0.0000,  0.0000,  0.0000)
   3 Na     5.982123    2.115000   12.991062    ( 0.0000,  0.0000,  0.0000)
   4 Na     0.000000   -0.001051   15.976607    ( 0.0000,  0.0000,  0.0000)
   5 Na     2.991228    2.114788   15.979823    ( 0.0000,  0.0000,  0.0000)
   6 Na     2.986583    0.004166   18.981100    ( 0.0000,  0.0000,  0.0000)
   7 Na     0.000000    2.114916   18.585112    ( 0.0000,  0.0000,  0.0000)
   8 Na     0.000000    4.230000   10.000000    ( 0.0000,  0.0000,  0.0000)
   9 Na     2.991062    6.345000   10.000000    ( 0.0000,  0.0000,  0.0000)
  10 Na     2.991062    4.230000   12.991062    ( 0.0000,  0.0000,  0.0000)
  11 Na     5.982123    6.345000   12.991062    ( 0.0000,  0.0000,  0.0000)
  12 Na    -0.000000    4.231295   15.976702    ( 0.0000,  0.0000,  0.0000)
  13 Na     2.991931    6.345360   15.979244    ( 0.0000,  0.0000,  0.0000)
  14 Na     2.986447    4.225962   18.981189    ( 0.0000,  0.0000,  0.0000)
  15 Na    -0.000000    6.338238   18.981042    ( 0.0000,  0.0000,  0.0000)
  16 Na     0.000000    8.460000   10.000000    ( 0.0000,  0.0000,  0.0000)
  17 Na     2.991062   10.575000   10.000000    ( 0.0000,  0.0000,  0.0000)
  18 Na     2.991062    8.460000   12.991062    ( 0.0000,  0.0000,  0.0000)
  19 Na     5.982123   10.575000   12.991062    ( 0.0000,  0.0000,  0.0000)
  20 Na    -0.000000    8.459763   15.979447    ( 0.0000,  0.0000,  0.0000)
  21 Na     2.991901   10.574853   15.979398    ( 0.0000,  0.0000,  0.0000)
  22 Na     2.991538    8.459873   18.974298    ( 0.0000,  0.0000,  0.0000)
  23 Na     0.000000   10.581863   18.981219    ( 0.0000,  0.0000,  0.0000)
  24 Na     5.982123    0.000000   10.000000    ( 0.0000,  0.0000,  0.0000)
  25 Na     8.973185    2.115000   10.000000    ( 0.0000,  0.0000,  0.0000)
  26 Na     8.973185    0.000000   12.991062    ( 0.0000,  0.0000,  0.0000)
  27 Na    11.964247    2.115000   12.991062    ( 0.0000,  0.0000,  0.0000)
  28 Na     5.982016   -0.000114   15.980941    ( 0.0000,  0.0000,  0.0000)
  29 Na     8.973185    2.114759   15.980960    ( 0.0000,  0.0000,  0.0000)
  30 Na     8.973185    0.000152   18.973545    ( 0.0000,  0.0000,  0.0000)
  31 Na     5.982403    2.114873   18.973784    ( 0.0000,  0.0000,  0.0000)
  32 Na     5.982123    4.230000   10.000000    ( 0.0000,  0.0000,  0.0000)
  33 Na     8.973185    6.345000   10.000000    ( 0.0000,  0.0000,  0.0000)
  34 Na     8.973185    4.230000   12.991062    ( 0.0000,  0.0000,  0.0000)
  35 Na    11.964247    6.345000   12.991062    ( 0.0000,  0.0000,  0.0000)
  36 Na     5.982045    4.230324   15.981092    ( 0.0000,  0.0000,  0.0000)
  37 Na     8.973185    6.345198   15.979478    ( 0.0000,  0.0000,  0.0000)
  38 Na     8.973185    4.229941   18.973711    ( 0.0000,  0.0000,  0.0000)
  39 Na     5.982424    6.344981   18.973527    ( 0.0000,  0.0000,  0.0000)
  40 Na     5.982123    8.460000   10.000000    ( 0.0000,  0.0000,  0.0000)
  41 Na     8.973185   10.575000   10.000000    ( 0.0000,  0.0000,  0.0000)
  42 Na     8.973185    8.460000   12.991062    ( 0.0000,  0.0000,  0.0000)
  43 Na    11.964247   10.575000   12.991062    ( 0.0000,  0.0000,  0.0000)
  44 Na     5.982042    8.459790   15.979749    ( 0.0000,  0.0000,  0.0000)
  45 Na     8.973185   10.575043   15.979572    ( 0.0000,  0.0000,  0.0000)
  46 Na     8.973185    8.459906   18.974089    ( 0.0000,  0.0000,  0.0000)
  47 Na     5.982569   10.575146   18.973626    ( 0.0000,  0.0000,  0.0000)
  48 Na    11.964247    0.000000   10.000000    ( 0.0000,  0.0000,  0.0000)
  49 Na    14.955308    2.115000   10.000000    ( 0.0000,  0.0000,  0.0000)
  50 Na    14.955308    0.000000   12.991062    ( 0.0000,  0.0000,  0.0000)
  51 Na    17.946370    2.115000   12.991062    ( 0.0000,  0.0000,  0.0000)
  52 Na    11.964354   -0.000114   15.980941    ( 0.0000,  0.0000,  0.0000)
  53 Na    14.955142    2.114788   15.979823    ( 0.0000,  0.0000,  0.0000)
  54 Na    14.959787    0.004166   18.981100    ( 0.0000,  0.0000,  0.0000)
  55 Na    11.963967    2.114873   18.973784    ( 0.0000,  0.0000,  0.0000)
  56 Na    11.964247    4.230000   10.000000    ( 0.0000,  0.0000,  0.0000)
  57 Na    14.955308    6.345000   10.000000    ( 0.0000,  0.0000,  0.0000)
  58 Na    14.955308    4.230000   12.991062    ( 0.0000,  0.0000,  0.0000)
  59 Na    17.946370    6.345000   12.991062    ( 0.0000,  0.0000,  0.0000)
  60 Na    11.964325    4.230324   15.981092    ( 0.0000,  0.0000,  0.0000)
  61 Na    14.954439    6.345360   15.979244    ( 0.0000,  0.0000,  0.0000)
  62 Na    14.959923    4.225962   18.981189    ( 0.0000,  0.0000,  0.0000)
  63 Na    11.963946    6.344981   18.973527    ( 0.0000,  0.0000,  0.0000)
  64 Na    11.964247    8.460000   10.000000    ( 0.0000,  0.0000,  0.0000)
  65 Na    14.955308   10.575000   10.000000    ( 0.0000,  0.0000,  0.0000)
  66 Na    14.955308    8.460000   12.991062    ( 0.0000,  0.0000,  0.0000)
  67 Na    17.946370   10.575000   12.991062    ( 0.0000,  0.0000,  0.0000)
  68 Na    11.964328    8.459790   15.979749    ( 0.0000,  0.0000,  0.0000)
  69 Na    14.954469   10.574853   15.979398    ( 0.0000,  0.0000,  0.0000)
  70 Na    14.954832    8.459873   18.974298    ( 0.0000,  0.0000,  0.0000)
  71 Na    11.963801   10.575146   18.973626    ( 0.0000,  0.0000,  0.0000)
[...]
  63 Na    11.967240    6.341721   18.976610    ( 0.0000,  0.0000,  0.0000)
  64 Na    11.964247    8.460000   10.000000    ( 0.0000,  0.0000,  0.0000)
  65 Na    14.955308   10.575000   10.000000    ( 0.0000,  0.0000,  0.0000)
  66 Na    14.955308    8.460000   12.991062    ( 0.0000,  0.0000,  0.0000)
  67 Na    17.946370   10.575000   12.991062    ( 0.0000,  0.0000,  0.0000)
  68 Na    11.964849    8.458480   15.965596    ( 0.0000,  0.0000,  0.0000)
  69 Na    14.948627   10.581645   15.974642    ( 0.0000,  0.0000,  0.0000)
  70 Na    14.955647    8.458920   18.983198    ( 0.0000,  0.0000,  0.0000)
  71 Na    11.966140   10.579367   18.977234    ( 0.0000,  0.0000,  0.0000)
  72 Na     0.000000    2.114246   21.570743    ( 0.0000,  0.0000,  0.0000)

Unit cell:
           periodic     x           y           z      points  spacing
  1. axis:    yes   17.946370    0.000000    0.000000    88     0.2039
  2. axis:    yes    0.000000   12.690000    0.000000    64     0.1983
  3. axis:    no     0.000000    0.000000   28.973185   144     0.2012

  Lengths:  17.946370  12.690000  28.973185
  Angles:   90.000000  90.000000  90.000000

Effective grid spacing dv^(1/3) = 0.2011

     iter     time        total  log10-change:
                         energy   eigst   dens
iter:   1 11:18:08   -87.797229        c
iter:   2 11:19:00   -87.780196        c -2.64
iter:   3 11:19:50   -87.778899c       c -3.07
iter:   4 11:20:42   -87.779741c       c -3.36
iter:   5 11:21:39   -87.779497c       c -3.62
iter:   6 11:22:39   -87.779690c       c -3.93
iter:   7 11:23:39   -87.779936c       c -4.11c

Converged after 7 iterations.

Dipole moment: (-22.620969, -12.995350, 0.305901) |e|*Ang

Energy contributions relative to reference atoms: (reference = -322558.566329)

Kinetic:       +143.299920
Potential:     -130.529976
External:        +0.000000
XC:             -99.495811
Entropy (-ST):   -2.609384
Local:           +0.250623
SIC:             +0.000000
--------------------------
Free energy:    -89.084628
Extrapolated:   -87.779936

 Band  Eigenvalues  Occupancy
    0    -28.54152    2.00000
    1    -28.52026    2.00000
    2    -28.51884    2.00000
    3    -27.94943    2.00000
    4    -27.93934    2.00000
    5    -27.93363    2.00000
    6    -27.93023    2.00000
    7    -27.92956    2.00000
    8    -27.92952    2.00000
    9    -27.92787    2.00000
   10    -27.92628    2.00000
   11    -27.92607    2.00000
   12    -27.92303    2.00000
   13    -27.92299    2.00000
   14    -27.92294    2.00000
   15    -27.92278    2.00000
   16    -27.92262    2.00000
   17    -27.91951    2.00000
   18    -27.91807    2.00000
   19    -27.91740    2.00000
   20    -27.91732    2.00000
   21    -27.91731    2.00000
   22    -27.91727    2.00000
   23    -27.91701    2.00000
   24    -27.91697    2.00000
   25    -27.91680    2.00000
   26    -27.91672    2.00000
   27    -27.91569    2.00000
   28    -27.91462    2.00000
   29    -27.91457    2.00000
   30    -27.91415    2.00000
   31    -27.91367    2.00000
   32    -27.91345    2.00000
   33    -27.91334    2.00000
   34    -27.91246    2.00000
   35    -27.91218    2.00000
   36    -27.91180    2.00000
   37    -27.91143    2.00000
   38    -27.91143    2.00000
   39    -27.91075    2.00000
   40    -27.91065    2.00000
   41    -27.91059    2.00000
   42    -27.91025    2.00000
   43    -27.91020    2.00000
   44    -27.90999    2.00000
   45    -27.90964    2.00000
   46    -27.90933    2.00000
   47    -27.90909    2.00000
   48    -27.90836    2.00000
   49    -27.90800    2.00000
   50    -27.90795    2.00000
   51    -27.90791    2.00000
   52    -27.90710    2.00000
   53    -27.90707    2.00000
   54    -27.90675    2.00000
   55    -27.90523    2.00000
   56    -27.90471    2.00000
   57    -27.90415    2.00000
   58    -27.90237    2.00000
   59    -27.90165    2.00000
   60    -27.90144    2.00000
   61    -27.90119    2.00000
   62    -27.90075    2.00000
   63    -27.90066    2.00000
   64    -27.90061    2.00000
   65    -27.90056    2.00000
   66    -27.90038    2.00000
   67    -27.90015    2.00000
   68    -27.89971    2.00000
   69    -27.89947    2.00000
   70    -27.89921    2.00000
   71    -27.89836    2.00000
   72    -27.89820    2.00000
   73    -27.89750    2.00000
   74    -27.89692    2.00000
   75    -27.89634    2.00000
   76    -27.89633    2.00000
   77    -27.89621    2.00000
   78    -27.89521    2.00000
   79    -27.89344    2.00000
   80    -27.89327    2.00000
   81    -27.89326    2.00000
   82    -27.89238    2.00000
   83    -27.89145    2.00000
   84    -27.89145    2.00000
   85    -27.89096    2.00000
   86    -27.89090    2.00000
   87    -27.89087    2.00000
   88    -27.88912    2.00000
   89    -27.88907    2.00000
   90    -27.88739    2.00000
   91    -27.88689    2.00000
   92    -27.88659    2.00000
   93    -27.88644    2.00000
   94    -27.88638    2.00000
   95    -27.88628    2.00000
   96    -27.88607    2.00000
   97    -27.88599    2.00000
   98    -27.88498    2.00000
   99    -27.88487    2.00000
  100    -27.88349    2.00000
  101    -27.88302    2.00000
  102    -27.88293    2.00000
  103    -27.88217    2.00000
  104    -27.87089    2.00000
  105    -27.87061    2.00000
  106    -27.86900    2.00000
  107    -27.86798    2.00000
  108    -27.74069    2.00000
  109    -27.73950    2.00000
  110    -27.73935    2.00000
  111    -27.73934    2.00000
  112    -27.73461    2.00000
  113    -27.73432    2.00000
  114    -27.73236    2.00000
  115    -27.73098    2.00000
  116    -27.73038    2.00000
  117    -27.72875    2.00000
  118    -27.72591    2.00000
  119    -27.72447    2.00000
  120    -27.72440    2.00000
  121    -27.72421    2.00000
  122    -27.72401    2.00000
  123    -27.72400    2.00000
  124    -27.72335    2.00000
  125    -27.72325    2.00000
  126    -27.72319    2.00000
  127    -27.72295    2.00000
  128    -27.72278    2.00000
  129    -27.72234    2.00000
  130    -27.72126    2.00000
  131    -27.72039    2.00000
  132    -27.72017    2.00000
  133    -27.71989    2.00000
  134    -27.71923    2.00000
  135    -27.71914    2.00000
  136    -27.71767    2.00000
  137    -27.71759    2.00000
  138    -27.71759    2.00000
  139    -27.71737    2.00000
  140    -27.71678    2.00000
  141    -27.71651    2.00000
  142    -27.71614    2.00000
  143    -27.71485    2.00000
  144    -27.71477    2.00000
  145    -27.71437    2.00000
  146    -27.71406    2.00000
  147    -27.71309    2.00000
  148    -27.71303    2.00000
  149    -27.71290    2.00000
  150    -27.71275    2.00000
  151    -27.71253    2.00000
  152    -27.71250    2.00000
  153    -27.71204    2.00000
  154    -27.71194    2.00000
  155    -27.71123    2.00000
  156    -27.71117    2.00000
  157    -27.71048    2.00000
  158    -27.71029    2.00000
  159    -27.70996    2.00000
  160    -27.70971    2.00000
  161    -27.70970    2.00000
  162    -27.70967    2.00000
  163    -27.70860    2.00000
  164    -27.70856    2.00000
  165    -27.70838    2.00000
  166    -27.70760    2.00000
  167    -27.70757    2.00000
  168    -27.70704    2.00000
  169    -27.70704    2.00000
  170    -27.70638    2.00000
  171    -27.70569    2.00000
  172    -27.70533    2.00000
  173    -27.70382    2.00000
  174    -27.70378    2.00000
  175    -27.70357    2.00000
  176    -27.70351    2.00000
  177    -27.70320    2.00000
  178    -27.70239    2.00000
  179    -27.70131    2.00000
  180    -27.70110    2.00000
  181    -27.70105    2.00000
  182    -27.70089    2.00000
  183    -27.70037    2.00000
  184    -27.69995    2.00000
  185    -27.69988    2.00000
  186    -27.69960    2.00000
  187    -27.69899    2.00000
  188    -27.69853    2.00000
  189    -27.69833    2.00000
  190    -27.69819    2.00000
  191    -27.69814    2.00000
  192    -27.69770    2.00000
  193    -27.69749    2.00000
  194    -27.69640    2.00000
  195    -27.69597    2.00000
  196    -27.69578    2.00000
  197    -27.69578    2.00000
  198    -27.69566    2.00000
  199    -27.69549    2.00000
  200    -27.69507    2.00000
  201    -27.69379    2.00000
  202    -27.69364    2.00000
  203    -27.69312    2.00000
  204    -27.69272    2.00000
  205    -27.69257    2.00000
  206    -27.69214    2.00000
  207    -27.69206    2.00000
  208    -27.69204    2.00000
  209    -27.69130    2.00000
  210    -27.69031    2.00000
  211    -27.68930    2.00000
  212    -27.68909    2.00000
  213    -27.68800    2.00000
  214    -27.68549    2.00000
  215    -27.68544    2.00000
  216    -27.68514    2.00000
  217    -27.68484    2.00000
  218    -27.68293    2.00000
  219     -5.89568    2.00000
  220     -5.41648    2.00000
  221     -5.39957    2.00000
  222     -5.33688    2.00000
  223     -4.93354    2.00000
  224     -4.93055    2.00000
  225     -4.87400    2.00000
  226     -4.85407    2.00000
  227     -4.47201    1.99997
  228     -4.46888    1.99997
  229     -4.45370    1.99996
  230     -4.44944    1.99996
  231     -4.43659    1.99996
  232     -4.38955    1.99995
  233     -4.38402    1.99994
  234     -4.00658    1.99931
  235     -3.98844    1.99922
  236     -3.98723    1.99921
  237     -3.94233    1.99894
  238     -3.91821    1.99876
  239     -3.91704    1.99875
  240     -3.91110    1.99870
  241     -3.90071    1.99860
  242     -3.53658    1.98428
  243     -3.48813    1.97835
  244     -3.45281    1.97268
  245     -3.44841    1.97188
  246     -3.28803    1.92022
  247     -3.07347    1.70404
  248     -3.07140    1.70055
  249     -3.06848    1.69556
  250     -3.06760    1.69404
  251     -3.05640    1.67418
  252     -3.03060    1.62452
  253     -3.01382    1.58921
  254     -3.00446    1.56848
  255     -2.84154    1.10182
  256     -2.74385    0.78021
  257     -2.57415    0.34209
  258     -2.56219    0.32008
  259     -2.53060    0.26741
  260     -2.52923    0.26531
  261     -2.52854    0.26425
  262     -2.52441    0.25801
  263     -2.41687    0.13487
  264     -2.32604    0.07593
  265     -2.20119    0.03376
  266     -2.14781    0.02377
  267     -2.14188    0.02286
  268     -1.96066    0.00688
  269     -1.92703    0.00551
  270     -1.90245    0.00468
  271     -1.88033    0.00404
  272     -1.84083    0.00310
  273     -1.76198    0.00184
  274     -1.73415    0.00152
  275     -1.73242    0.00151
  276     -1.71773    0.00137
  277     -1.71522    0.00134
  278     -1.71025    0.00130
  279     -1.70869    0.00129
  280     -1.70321    0.00124
  281     -1.70184    0.00123
  282     -1.67971    0.00106
  283     -1.63324    0.00078
  284     -1.62854    0.00075
  285     -1.44314    0.00022
  286     -1.42327    0.00019
  287     -1.39263    0.00016
  288     -1.34945    0.00012
  289     -1.33973    0.00011
  290     -1.28112    0.00007
  291     -1.10833    0.00002
  292     -1.04450    0.00002
  293     -1.04327    0.00002
  294     -1.02567    0.00001
  295     -1.01690    0.00001
  296     -1.00948    0.00001
  297     -1.00355    0.00001
  298     -0.88668    0.00001
  299     -0.84992    0.00000
  300     -0.82397    0.00000
  301     -0.81950    0.00000
  302     -0.81910    0.00000
  303     -0.76572    0.00000
  304     -0.75771    0.00000
  305     -0.59532    0.00000
  306     -0.59346    0.00000
  307     -0.57523    0.00000
  308     -0.52307    0.00000
  309     -0.52185    0.00000
  310     -0.50952    0.00000

Fermi level: -2.81088

Gap: 0.098 eV
Transition (v -> c):
  (s=0, k=0, n=255, [0.00, 0.00, 0.00]) -> (s=0, k=0, n=256, [0.00, 0.00, 0.00])
No difference between direct/indirect transitions

Forces in eV/Ang:
  0 Na    0.00000    0.00431   -0.00408
  1 Na   -0.00067   -0.00081   -0.00883
  2 Na    0.00569   -0.00501   -0.00357
  3 Na   -0.00086   -0.00122    0.00635
  4 Na    0.00000    0.00153   -0.00158
  5 Na   -0.01489    0.00066    0.00201
  6 Na   -0.01258    0.01987    0.02635
  7 Na    0.00000   -0.00087   -0.03544
  8 Na    0.00000   -0.00375   -0.00517
  9 Na    0.00667   -0.00483   -0.00025
 10 Na    0.00551    0.00627   -0.00430
 11 Na    0.00280    0.00007    0.01010
 12 Na    0.00000   -0.00246   -0.00132
 13 Na    0.01187   -0.00339    0.01447
 14 Na   -0.01221   -0.01867    0.02530
 15 Na    0.00000   -0.01838    0.01142
 16 Na    0.00000   -0.00059    0.00586
 17 Na    0.00573    0.00564   -0.00096
 18 Na    0.00440   -0.00114    0.01425
 19 Na    0.00297    0.00115    0.00940
 20 Na    0.00000   -0.00029    0.01594
 21 Na    0.01141    0.00347    0.01513
 22 Na   -0.00962   -0.00054    0.00343
 23 Na    0.00000    0.01792    0.01101
 24 Na    0.00068   -0.00273   -0.00565
 25 Na    0.00000   -0.00058   -0.00409
 26 Na    0.00000   -0.00181    0.00419
 27 Na    0.00086   -0.00122    0.00635
 28 Na    0.00201    0.00000    0.00023
 29 Na    0.00000    0.00002    0.00066
 30 Na    0.00000   -0.00046   -0.00034
 31 Na   -0.00544   -0.00032   -0.00139
 32 Na    0.00161    0.00354   -0.00634
 33 Na    0.00000    0.00624   -0.01475
 34 Na    0.00000    0.00322    0.00397
 35 Na   -0.00280    0.00007    0.01010
 36 Na    0.00235    0.00008    0.00054
 37 Na    0.00000   -0.00012   -0.00071
 38 Na    0.00000    0.00109   -0.00027
 39 Na   -0.00994   -0.00549   -0.00078
 40 Na    0.00901   -0.00081   -0.00944
 41 Na    0.00000   -0.00565   -0.01584
 42 Na    0.00000   -0.00142    0.00708
 43 Na   -0.00297    0.00115    0.00940
 44 Na    0.00022    0.00010   -0.00085
 45 Na    0.00000   -0.00005   -0.00035
 46 Na    0.00000   -0.00054   -0.00051
 47 Na   -0.00983    0.00600   -0.00079
 48 Na   -0.00068   -0.00273   -0.00565
 49 Na    0.00067   -0.00081   -0.00883
 50 Na   -0.00569   -0.00501   -0.00357
 51 Na    0.00000   -0.00152   -0.00559
 52 Na   -0.00201    0.00000    0.00023
 53 Na    0.01489    0.00066    0.00201
 54 Na    0.01258    0.01987    0.02635
 55 Na    0.00544   -0.00032   -0.00139
 56 Na   -0.00161    0.00354   -0.00634
 57 Na   -0.00667   -0.00483   -0.00025
 58 Na   -0.00551    0.00627   -0.00430
 59 Na    0.00000    0.02843   -0.04290
 60 Na   -0.00235    0.00008    0.00054
 61 Na   -0.01187   -0.00339    0.01447
 62 Na    0.01221   -0.01867    0.02530
 63 Na    0.00994   -0.00549   -0.00078
 64 Na   -0.00901   -0.00081   -0.00944
 65 Na   -0.00573    0.00564   -0.00096
 66 Na   -0.00440   -0.00114    0.01425
 67 Na    0.00000   -0.02724   -0.04342
 68 Na   -0.00022    0.00010   -0.00085
 69 Na   -0.01141    0.00347    0.01513
 70 Na    0.00962   -0.00054    0.00343
 71 Na    0.00983    0.00600   -0.00079
 72 Na    0.00000    0.00031   -0.03886

Timing:                                       incl.     excl.
--------------------------------------------------------------------
Basic WFS set positions:                      1.002     0.068   0.0% |
 Redistribute:                                0.934     0.934   0.0% |
Basis functions set positions:               31.892    31.892   0.3% |
Forces:                                    2583.369    31.598   0.3% |
 LCAO forces:                              2551.771     6.025   0.1% |
  Atomic Hamiltonian force:                  15.438    15.438   0.1% |
  Initial:                                    0.583     0.000   0.0% |
   Get density matrix:                        0.583     0.583   0.0% |
  Paw correction:                            20.547    20.547   0.2% |
  Potential:                               2445.469  2445.469  23.4% |--------|
  TCI derivative:                            63.695    63.695   0.6% |
  Wait for sum:                               0.014     0.014   0.0% |
LCAO WFS Initialize:                        545.103     1.142   0.0% |
 Density initialized from wave functions:   475.982    53.805   0.5% |
  Calculate density matrix:                   5.447     5.447   0.1% |
  Construct density:                        416.086   416.086   4.0% |-|
  Symmetrize density:                         0.644     0.644   0.0% |
 Hamiltonian:                                67.979     0.066   0.0% |
  Atomic:                                    17.288     0.173   0.0% |
   XC Correction:                            17.114    17.114   0.2% |
  Calculate atomic Hamiltonians:              1.796     1.796   0.0% |
  Communicate:                                0.005     0.005   0.0% |
  Hartree integrate/restrict:                 1.573     1.573   0.0% |
  Initialize Hamiltonian:                     0.000     0.000   0.0% |
  Poisson:                                   25.378    13.023   0.1% |
   Communicate from 1D:                       2.199     2.199   0.0% |
   Communicate from 2D:                       0.998     0.998   0.0% |
   Communicate to 1D:                         0.728     0.728   0.0% |
   Communicate to 2D:                         2.581     2.581   0.0% |
   FFT 1D:                                    2.577     2.577   0.0% |
   FFT 2D:                                    3.271     3.271   0.0% |
  XC 3D grid:                                16.038    16.038   0.2% |
  vbar:                                       5.836     5.836   0.1% |
P tci:                                       26.724    26.724   0.3% |
Redistribute:                                 0.005     0.005   0.0% |
SCF-cycle:                                 7165.247     1.098   0.0% |
 Density:                                  2857.492     0.012   0.0% |
  Atomic density matrices:                    1.029     1.029   0.0% |
  Mix:                                      130.971   130.971   1.3% ||
  Multipole moments:                          0.206     0.206   0.0% |
  Normalize:                                  0.085     0.085   0.0% |
  Pseudo density:                          2725.190     1.699   0.0% |
   Calculate density matrix:                  4.723     4.723   0.0% |
   Construct density:                      2716.735  2716.735  26.0% |---------|
   Symmetrize density:                        2.033     2.033   0.0% |
 Hamiltonian:                               507.874     0.090   0.0% |
  Atomic:                                   109.143     0.676   0.0% |
   XC Correction:                           108.467   108.467   1.0% |
  Calculate atomic Hamiltonians:              9.709     9.709   0.1% |
  Communicate:                                0.009     0.009   0.0% |
  Hartree integrate/restrict:                 5.851     5.851   0.1% |
  Poisson:                                  172.378    28.859   0.3% |
   Communicate from 1D:                       7.387     7.387   0.1% |
   Communicate from 2D:                       6.019     6.019   0.1% |
   Communicate to 1D:                         4.448     4.448   0.0% |
   Communicate to 2D:                        49.136    49.136   0.5% |
   FFT 1D:                                   13.519    13.519   0.1% |
   FFT 2D:                                   63.011    63.011   0.6% |
  XC 3D grid:                               191.544   191.544   1.8% ||
  vbar:                                      19.152    19.152   0.2% |
 LCAO eigensolver:                         3798.783     4.081   0.0% |
  Calculate projections:                      2.282     2.282   0.0% |
  DenseAtomicCorrection:                     30.475    30.475   0.3% |
  Distribute overlap matrix:                  0.055     0.055   0.0% |
  Orbital Layouts:                           63.844    63.844   0.6% |
  Potential matrix:                        3698.045  3698.045  35.4% |-------------|
ST tci:                                      28.458    28.458   0.3% |
Set symmetry:                                 0.001     0.001   0.0% |
TCI: Evaluate splines:                        0.084     0.084   0.0% |
mktci:                                        4.102     4.102   0.0% |
Other:                                       50.021    50.021   0.5% |
--------------------------------------------------------------------
Total:                                              10436.009 100.0%

Memory usage: 3.67 GiB
Date: Wed Nov 26 11:25:56 2025
