73
Lattice="17.94637010651458 0.0 0.0 0.0 12.690000000000001 0.0 0.0 0.0 28.97318505325729" Properties=species:S:1:pos:R:3:move_mask:L:1:tags:I:1:magmoms:R:1:forces:R:3 energy=-87.78026403287126 free_energy=-89.08382746691544 dipole="-23.326988399835454 -14.464873995907658 0.308490476649256" magmom=0.0 pbc="T T F"
Na       0.00000000       0.00000000      10.00000000  F        4       0.00000000       0.00021198       0.00000000      -0.00607915
Na       2.99106168       2.11500000      10.00000000  F        4       0.00000000      -0.00008859      -0.00513886      -0.00261491
Na       2.99106168       0.00000000      12.99106168  F        3       0.00000000       0.00037072       0.00000000      -0.00813120
Na       5.98212337       2.11500000      12.99106168  F        3       0.00000000       0.00657364       0.00458613      -0.00702005
Na      -0.02054421      -0.00000000      15.93877050  T        2       0.00000000       0.02220285       0.00000000       0.00577014
Na       2.99129171       2.25124769      15.79183983  T        2       0.00000000      -0.00017602      -0.01996341       0.02020521
Na       2.99178995       0.00000000      18.39714141  T        1       0.00000000      -0.00011648       0.00000000      -0.04215330
Na       0.05062093       2.06624829      19.04932126  T        1       0.00000000       0.00956288      -0.01454602       0.02029794
Na       0.00000000       4.23000000      10.00000000  F        4       0.00000000      -0.00668616      -0.00456946      -0.00016249
Na       2.99106168       6.34500000      10.00000000  F        4       0.00000000       0.00083704       0.00000000       0.00761213
Na       2.99106168       4.23000000      12.99106168  F        3       0.00000000       0.00019711       0.03664078      -0.05368569
Na       5.98212337       6.34500000      12.99106168  F        3       0.00000000       0.00256239       0.00000000       0.01551346
Na      -0.00639132       4.22611831      15.97212204  T        2       0.00000000      -0.01445790      -0.00252771       0.01826379
Na       2.99163122       6.34500000      15.97456470  T        2       0.00000000       0.00002283       0.00000000       0.01840103
Na       2.99126290       4.18369518      19.03252958  T        1       0.00000000      -0.00006591      -0.01657444       0.00530301
Na      -0.00051131       6.34500000      18.98308124  T        1       0.00000000       0.01128480       0.00000000       0.00144404
Na       0.00000000       8.46000000      10.00000000  F        4       0.00000000      -0.00668616       0.00456946      -0.00016249
Na       2.99106168      10.57500000      10.00000000  F        4       0.00000000      -0.00008859       0.00513886      -0.00261491
Na       2.99106168       8.46000000      12.99106168  F        3       0.00000000       0.00019711      -0.03664078      -0.05368569
Na       5.98212337      10.57500000      12.99106168  F        3       0.00000000       0.00657364      -0.00458613      -0.00702005
Na      -0.00639132       8.46388169      15.97212204  T        2       0.00000000      -0.01445790       0.00252771       0.01826379
Na       2.99129171      10.43875231      15.79183983  T        2       0.00000000      -0.00017602       0.01996341       0.02020521
Na       2.99126290       8.50630482      19.03252958  T        1       0.00000000      -0.00006591       0.01657444       0.00530301
Na       0.05062093      10.62375171      19.04932126  T        1       0.00000000       0.00956288       0.01454602       0.02029794
Na       5.98212337       0.00000000      10.00000000  F        4       0.00000000      -0.00108115       0.00000000      -0.00633757
Na       8.97318505       2.11500000      10.00000000  F        4       0.00000000       0.00266712       0.00247457      -0.00596925
Na       8.97318505       0.00000000      12.99106168  F        3       0.00000000      -0.00028840       0.00000000       0.00610445
Na      11.96424674       2.11500000      12.99106168  F        3       0.00000000       0.00023588       0.00082848       0.00272279
Na       6.00186717      -0.00000000      15.93910640  T        2       0.00000000      -0.02273497       0.00000000       0.00585531
Na       8.97286208       2.11182012      15.97215236  T        2       0.00000000       0.00274282       0.00100950       0.00152112
Na       8.97332051      -0.00000000      18.97723542  T        1       0.00000000      -0.00681206       0.00000000      -0.00192866
Na       5.93222344       2.06600010      19.04936876  T        1       0.00000000      -0.00924453      -0.01477531       0.01996077
Na       5.98212337       4.23000000      10.00000000  F        4       0.00000000       0.00675423      -0.00435269       0.00000399
Na       8.97318505       6.34500000      10.00000000  F        4       0.00000000       0.01014626       0.00000000      -0.00859145
Na       8.97318505       4.23000000      12.99106168  F        3       0.00000000       0.00363619       0.00106288       0.00923855
Na      11.96424674       6.34500000      12.99106168  F        3       0.00000000       0.00041785       0.00000000       0.00573993
Na       5.98836906       4.22605614      15.97287179  T        2       0.00000000       0.01442194      -0.00249965       0.01813842
Na       8.97264350       6.34500000      15.96222966  T        2       0.00000000       0.00042905       0.00000000      -0.00012601
Na       8.97156571       4.22771933      18.97793777  T        1       0.00000000      -0.01102967      -0.00633132      -0.00230873
Na       5.98168329       6.34500000      18.98354845  T        1       0.00000000      -0.01095801       0.00000000       0.00169203
Na       5.98212337       8.46000000      10.00000000  F        4       0.00000000       0.00675423       0.00435269       0.00000399
Na       8.97318505      10.57500000      10.00000000  F        4       0.00000000       0.00266712      -0.00247457      -0.00596925
Na       8.97318505       8.46000000      12.99106168  F        3       0.00000000       0.00363619      -0.00106288       0.00923855
Na      11.96424674      10.57500000      12.99106168  F        3       0.00000000       0.00023588      -0.00082848       0.00272279
Na       5.98836906       8.46394386      15.97287179  T        2       0.00000000       0.01442194       0.00249965       0.01813842
Na       8.97286208      10.57817988      15.97215236  T        2       0.00000000       0.00274282      -0.00100950       0.00152112
Na       8.97156571       8.46228067      18.97793777  T        1       0.00000000      -0.01102967       0.00633132      -0.00230873
Na       5.93222344      10.62399990      19.04936876  T        1       0.00000000      -0.00924453       0.01477531       0.01996077
Na      11.96424674       0.00000000      10.00000000  F        4       0.00000000       0.00086465       0.00000000      -0.00342153
Na      14.95530842       2.11500000      10.00000000  F        4       0.00000000      -0.00257198       0.00225920      -0.00579963
Na      14.95530842       0.00000000      12.99106168  F        3       0.00000000      -0.00010502       0.00000000       0.00608878
Na      17.94637011       2.11500000      12.99106168  F        3       0.00000000      -0.00686733       0.00437294      -0.00649044
Na      11.96471715      -0.00000000      15.97088552  T        2       0.00000000       0.00019953       0.00000000       0.00053527
Na      14.95551263       2.11201418      15.97301104  T        2       0.00000000      -0.00250971       0.00081732       0.00134383
Na      14.95425737       0.00000000      18.97765117  T        1       0.00000000       0.00699052       0.00000000      -0.00167024
Na      11.96409831       2.11305698      18.97886349  T        1       0.00000000      -0.00017982       0.00038801      -0.00112724
Na      11.96424674       4.23000000      10.00000000  F        4       0.00000000      -0.00005454       0.00721487      -0.01534383
Na      14.95530842       6.34500000      10.00000000  F        4       0.00000000      -0.01098534       0.00000000      -0.00884253
Na      14.95530842       4.23000000      12.99106168  F        3       0.00000000      -0.00381757       0.00083299       0.00871983
Na      17.94637011       6.34500000      12.99106168  F        3       0.00000000      -0.00300141       0.00000000       0.01558035
Na      11.96434379       4.23364645      15.96402725  T        2       0.00000000      -0.00025155      -0.00054935      -0.00019184
Na      14.95532167       6.34500000      15.96258556  T        2       0.00000000      -0.00070210       0.00000000      -0.00026122
Na      14.95708190       4.22785760      18.97774224  T        1       0.00000000       0.01117053      -0.00664367      -0.00223713
Na      11.96531025       6.34500000      18.97703896  T        1       0.00000000       0.00007867       0.00000000      -0.00117173
Na      11.96424674       8.46000000      10.00000000  F        4       0.00000000      -0.00005454      -0.00721487      -0.01534383
Na      14.95530842      10.57500000      10.00000000  F        4       0.00000000      -0.00257198      -0.00225920      -0.00579963
Na      14.95530842       8.46000000      12.99106168  F        3       0.00000000      -0.00381757      -0.00083299       0.00871983
Na      17.94637011      10.57500000      12.99106168  F        3       0.00000000      -0.00686733      -0.00437294      -0.00649044
Na      11.96434379       8.45635355      15.96402725  T        2       0.00000000      -0.00025155       0.00054935      -0.00019184
Na      14.95551263      10.57798582      15.97301104  T        2       0.00000000      -0.00250971      -0.00081732       0.00134383
Na      14.95708190       8.46214240      18.97774224  T        1       0.00000000       0.01117053       0.00664367      -0.00223713
Na      11.96409831      10.57694302      18.97886349  T        1       0.00000000      -0.00017982      -0.00038801      -0.00112724
Na       2.99239748      -0.00000000      21.58400742  T        0       0.00000000       0.00107336       0.00000000      -0.04817052
