
  ___ ___ ___ _ _ _  
 |   |   |_  | | | | 
 | | | | | . | | | | 
 |__ |  _|___|_____|  25.7.0
 |___|_|             

User:   tew@Mathuss-MacBook-Air-357.local
Date:   Tue Nov 25 13:41:16 2025
Arch:   arm64
Pid:    34570
CWD:    /Users/tew/Documents/Project/GitHub/chem-com
Python: 3.13.5
gpaw:   /Users/tew/Documents/Project/GitHub/chem-com/.venv/lib/python3.13/site-packages/gpaw
_gpaw:  /Users/tew/Documents/Project/GitHub/chem-com/.venv/lib/python3.13/site-packages/
        _gpaw.cpython-313-darwin.so
ase:    /Users/tew/Documents/Project/GitHub/chem-com/.venv/lib/python3.13/site-packages/ase (version 3.26.0)
numpy:  /Users/tew/Documents/Project/GitHub/chem-com/.venv/lib/python3.13/site-packages/numpy (version 2.3.5)
scipy:  /Users/tew/Documents/Project/GitHub/chem-com/.venv/lib/python3.13/site-packages/scipy (version 1.16.3)
libxc:  2.x.y
units:  Angstrom and eV
cores: 1
OpenMP: False
OMP_NUM_THREADS: 1

Input parameters:
  basis: dzp
  convergence: {density: 0.0001,
                eigenstates: 5e-06}
  dtype: <class 'numpy.float32'>
  kpts: [1 1 1]
  mode: {interpolation: 3,
         name: lcao}
  occupations: {fixmagmom: False,
                name: fermi-dirac,
                width: 0.15}
  xc: PBE

System changes: positions, numbers, cell, pbc, initial_charges, initial_magmoms 

Initialize ...

species:
  Na:
    name: Sodium
    id: d7ecbc49209718622bcbe287195dca2a
    Z: 11.0
    valence: 7
    core: 4
    charge: 0.0
    file: /Users/tew/Documents/Project/GitHub/chem-com/.venv/lib/python3.13/site-packages/gpaw_data/setups/Na.PBE.gz
    compensation charges: {type: gauss,
                           rc: 0.37,
                           lmax: 2}
    cutoffs: {filter: 2.17,
              core: 2.59}
    projectors:
      #              energy  rcut
      - 3s(1.00)    -2.744   1.201
      - 2p(6.00)   -28.672   1.217
      - 3p(0.00)    -0.743   1.217
      -  s          24.468   1.201
      -  d           0.000   1.238
  
    # LCAO basis set for Na:
    #   Name: dzp
    #   File: /Users/tew/Documents/Project/GitHub/chem-com/.venv/lib/python3.13/site-packages/gpaw_data/setups/Na.dzp.basis.gz
    #   Number of radial functions: 7
    #   Number of spherical harmonics: 17
    #     l=0, rc=11.4062 Bohr: 3s-sz confined orbital
    #     l=1, rc=3.6719 Bohr: 2p-sz confined orbital
    #     l=1, rc=15.9375 Bohr: 3p-sz confined orbital
    #     l=0, rc=6.9531 Bohr: 3s-dz split-valence wave
    #     l=1, rc=2.4219 Bohr: 2p-dz split-valence wave
    #     l=1, rc=10.0469 Bohr: 3p-dz split-valence wave
    #     l=1, rc=11.4062 Bohr: p-type Gaussian polarization
    #   Number of RI-basis functions 0

Reference energy: -322558.566329  # eV

Spin-paired calculation

Convergence criteria:
 Maximum [total energy] change in last 3 cyles: 0.0005 eV / valence electron
 Maximum integral of absolute [dens]ity change: 0.0001 electrons / valence electron
 Maximum integral of absolute [eigenst]ate change: 5e-06 eV^2 / valence electron
 Maximum number of scf [iter]ations: 333
 (Square brackets indicate name in SCF output, whereas a 'c' in
 the SCF output indicates the quantity has converged.)

Symmetries present (total): 2

  ( 1  0  0)  ( 1  0  0)
  ( 0  1  0)  ( 0 -1  0)
  ( 0  0  1)  ( 0  0  1)

1 k-point (Gamma)
1 k-point in the irreducible part of the Brillouin zone
       k-points in crystal coordinates                weights
   0:     0.00000000    0.00000000    0.00000000          1/1

Wave functions: LCAO
  Diagonalizer: Serial LAPACK
  Atomic Correction: dense with blas
  Data-type: float
 

Occupation numbers: Fermi-Dirac:
  width: 0.1500  # eV
 

Eigensolver
   LCAO using direct dense diagonalizer 

Densities:
  Coarse grid: 88*64*144 grid
  Fine grid: 176*128*288 grid
  Total Charge: 0.000000 

Density mixing:
  Method: separate
  Backend: pulay
  Linear mixing parameter: 0.05
  old densities: 5
  Damping of long wavelength oscillations: 50 

Hamiltonian:
  XC and Coulomb potentials evaluated on a 176*128*288 grid
  Using the PBE Exchange-Correlation functional
  Interpolation: tri-quintic (5. degree polynomial)
  Poisson solver: FastPoissonSolver using
    Stencil: 6*3+1=19 point O(h^6) finite-difference Laplacian
    FFT axes: [np.int64(0), np.int64(1)]
    FST axes: [np.int64(2)]
 

XC parameters: PBE with 2 nearest neighbor stencil

Memory estimate:
  Process memory now: 3761.80 MiB
  Calculator: 1616.02 MiB
    Density: 540.29 MiB
      Arrays: 160.27 MiB
      Localized functions: 318.57 MiB
      Mixer: 61.45 MiB
    Hamiltonian: 128.23 MiB
      Arrays: 104.80 MiB
      XC: 0.00 MiB
      Poisson: 0.00 MiB
      vbar: 23.43 MiB
    Wavefunctions: 947.50 MiB
      C [qnM]: 2.94 MiB
      S, T [2 x qmm]: 23.50 MiB
      P [aqMi]: 1.12 MiB
      BasisFunctions: 919.93 MiB
      Eigensolver: 0.00 MiB

Total number of cores used: 1

Number of atoms: 73
Number of atomic orbitals: 1241
Number of bands in calculation: 311
Number of valence electrons: 511
Bands to converge: occupied

... initialized

Initializing position-dependent things.

Density initialized from atomic densities
         .-------------------------------------------.  
        /|                                           |  
       / |                                           |  
      /  |                                           |  
     /   |                                           |  
    /    |                                           |  
   /     |                                           |  
  /      |                                           |  
 *       |                                           |  
 |       |                                           |  
 |       |                                           |  
 |       |                                           |  
 |       |                                           |  
 |       |                                           |  
 |      Na            Na             Na              |  
 |       |    Na            Na             Na        |  
 |   Na  |          Na            Na                 |  
 |       |     Na             Na            Na       |  
 |      Na Na             Na            Na           |  
 |Na  Na |       Na  Na         Na  Na               |  
 |      Na  Na         Na  Na         Na  Na         |  
 |  Na  Na        Na  Na         Na  Na              |  
 |       |                                           |  
 |       |Na  Na        Na  Na         Na  Na        |  
 Na  Na  |      Na  Na        Na  Na                 |  
 |       | Na  Na         Na  Na        Na  Na       |  
 |    Na |           Na             Na               |  
 |Na     |       Na             Na                   |  
 |      Na  Na         Na  Na         Na  Na         |  
 |  Na   |        Na             Na                  |  
 |       |Na            Na             Na            |  
 |       |                                           |  
 Na      |      Na            Na                     |  
 |       |                                           |  
 |       |                                           |  
 |       |                                           |  
 |       .-------------------------------------------.  
 |      /                                           /   
 |     /                                           /    
 |    /                                           /     
 |   /                                           /      
 |  /                                           /       
 | /                                           /        
 |/                                           /         
 *-------------------------------------------*          

Atomic positions and initial magnetic moments

Positions:
   0 Na     0.000000    0.000000   10.000000    ( 0.0000,  0.0000,  0.0000)
   1 Na     2.991062    2.115000   10.000000    ( 0.0000,  0.0000,  0.0000)
   2 Na     2.991062    0.000000   12.991062    ( 0.0000,  0.0000,  0.0000)
   3 Na     5.982123    2.115000   12.991062    ( 0.0000,  0.0000,  0.0000)
   4 Na     0.000000    0.000000   15.982123    ( 0.0000,  0.0000,  0.0000)
   5 Na     2.991062    2.115000   15.982123    ( 0.0000,  0.0000,  0.0000)
   6 Na     2.991062    0.000000   18.973185    ( 0.0000,  0.0000,  0.0000)
   7 Na     0.000000    2.115000   18.973185    ( 0.0000,  0.0000,  0.0000)
   8 Na     0.000000    4.230000   10.000000    ( 0.0000,  0.0000,  0.0000)
   9 Na     2.991062    6.345000   10.000000    ( 0.0000,  0.0000,  0.0000)
  10 Na     2.991062    4.230000   12.991062    ( 0.0000,  0.0000,  0.0000)
  11 Na     5.982123    6.345000   12.991062    ( 0.0000,  0.0000,  0.0000)
  12 Na     0.000000    4.230000   15.982123    ( 0.0000,  0.0000,  0.0000)
  13 Na     2.991062    6.345000   15.982123    ( 0.0000,  0.0000,  0.0000)
  14 Na     2.991062    4.230000   18.973185    ( 0.0000,  0.0000,  0.0000)
  15 Na     0.000000    6.345000   18.973185    ( 0.0000,  0.0000,  0.0000)
  16 Na     0.000000    8.460000   10.000000    ( 0.0000,  0.0000,  0.0000)
  17 Na     2.991062   10.575000   10.000000    ( 0.0000,  0.0000,  0.0000)
  18 Na     2.991062    8.460000   12.991062    ( 0.0000,  0.0000,  0.0000)
  19 Na     5.982123   10.575000   12.991062    ( 0.0000,  0.0000,  0.0000)
  20 Na     0.000000    8.460000   15.982123    ( 0.0000,  0.0000,  0.0000)
  21 Na     2.991062   10.575000   15.982123    ( 0.0000,  0.0000,  0.0000)
  22 Na     2.991062    8.460000   18.973185    ( 0.0000,  0.0000,  0.0000)
  23 Na     0.000000   10.575000   18.973185    ( 0.0000,  0.0000,  0.0000)
  24 Na     5.982123    0.000000   10.000000    ( 0.0000,  0.0000,  0.0000)
  25 Na     8.973185    2.115000   10.000000    ( 0.0000,  0.0000,  0.0000)
  26 Na     8.973185    0.000000   12.991062    ( 0.0000,  0.0000,  0.0000)
  27 Na    11.964247    2.115000   12.991062    ( 0.0000,  0.0000,  0.0000)
  28 Na     5.982123    0.000000   15.982123    ( 0.0000,  0.0000,  0.0000)
  29 Na     8.973185    2.115000   15.982123    ( 0.0000,  0.0000,  0.0000)
  30 Na     8.973185    0.000000   18.973185    ( 0.0000,  0.0000,  0.0000)
  31 Na     5.982123    2.115000   18.973185    ( 0.0000,  0.0000,  0.0000)
  32 Na     5.982123    4.230000   10.000000    ( 0.0000,  0.0000,  0.0000)
  33 Na     8.973185    6.345000   10.000000    ( 0.0000,  0.0000,  0.0000)
  34 Na     8.973185    4.230000   12.991062    ( 0.0000,  0.0000,  0.0000)
  35 Na    11.964247    6.345000   12.991062    ( 0.0000,  0.0000,  0.0000)
  36 Na     5.982123    4.230000   15.982123    ( 0.0000,  0.0000,  0.0000)
  37 Na     8.973185    6.345000   15.982123    ( 0.0000,  0.0000,  0.0000)
  38 Na     8.973185    4.230000   18.973185    ( 0.0000,  0.0000,  0.0000)
  39 Na     5.982123    6.345000   18.973185    ( 0.0000,  0.0000,  0.0000)
  40 Na     5.982123    8.460000   10.000000    ( 0.0000,  0.0000,  0.0000)
  41 Na     8.973185   10.575000   10.000000    ( 0.0000,  0.0000,  0.0000)
  42 Na     8.973185    8.460000   12.991062    ( 0.0000,  0.0000,  0.0000)
  43 Na    11.964247   10.575000   12.991062    ( 0.0000,  0.0000,  0.0000)
  44 Na     5.982123    8.460000   15.982123    ( 0.0000,  0.0000,  0.0000)
  45 Na     8.973185   10.575000   15.982123    ( 0.0000,  0.0000,  0.0000)
  46 Na     8.973185    8.460000   18.973185    ( 0.0000,  0.0000,  0.0000)
  47 Na     5.982123   10.575000   18.973185    ( 0.0000,  0.0000,  0.0000)
  48 Na    11.964247    0.000000   10.000000    ( 0.0000,  0.0000,  0.0000)
  49 Na    14.955308    2.115000   10.000000    ( 0.0000,  0.0000,  0.0000)
  50 Na    14.955308    0.000000   12.991062    ( 0.0000,  0.0000,  0.0000)
  51 Na    17.946370    2.115000   12.991062    ( 0.0000,  0.0000,  0.0000)
  52 Na    11.964247    0.000000   15.982123    ( 0.0000,  0.0000,  0.0000)
  53 Na    14.955308    2.115000   15.982123    ( 0.0000,  0.0000,  0.0000)
  54 Na    14.955308    0.000000   18.973185    ( 0.0000,  0.0000,  0.0000)
  55 Na    11.964247    2.115000   18.973185    ( 0.0000,  0.0000,  0.0000)
  56 Na    11.964247    4.230000   10.000000    ( 0.0000,  0.0000,  0.0000)
  57 Na    14.955308    6.345000   10.000000    ( 0.0000,  0.0000,  0.0000)
  58 Na    14.955308    4.230000   12.991062    ( 0.0000,  0.0000,  0.0000)
  59 Na    17.946370    6.345000   12.991062    ( 0.0000,  0.0000,  0.0000)
  60 Na    11.964247    4.230000   15.982123    ( 0.0000,  0.0000,  0.0000)
  61 Na    14.955308    6.345000   15.982123    ( 0.0000,  0.0000,  0.0000)
  62 Na    14.955308    4.230000   18.973185    ( 0.0000,  0.0000,  0.0000)
  63 Na    11.964247    6.345000   18.973185    ( 0.0000,  0.0000,  0.0000)
  64 Na    11.964247    8.460000   10.000000    ( 0.0000,  0.0000,  0.0000)
  65 Na    14.955308   10.575000   10.000000    ( 0.0000,  0.0000,  0.0000)
  66 Na    14.955308    8.460000   12.991062    ( 0.0000,  0.0000,  0.0000)
  67 Na    17.946370   10.575000   12.991062    ( 0.0000,  0.0000,  0.0000)
  68 Na    11.964247    8.460000   15.982123    ( 0.0000,  0.0000,  0.0000)
  69 Na    14.955308   10.575000   15.982123    ( 0.0000,  0.0000,  0.0000)
  70 Na    14.955308    8.460000   18.973185    ( 0.0000,  0.0000,  0.0000)
  71 Na    11.964247   10.575000   18.973185    ( 0.0000,  0.0000,  0.0000)
  72 Na     2.991062    0.000000   20.973185    ( 0.0000,  0.0000,  0.0000)

Unit cell:
           periodic     x           y           z      points  spacing
  1. axis:    yes   17.946370    0.000000    0.000000    88     0.2039
  2. axis:    yes    0.000000   12.690000    0.000000    64     0.1983
  3. axis:    no     0.000000    0.000000   28.973185   144     0.2012

  Lengths:  17.946370  12.690000  28.973185
  Angles:   90.000000  90.000000  90.000000

Effective grid spacing dv^(1/3) = 0.2011

     iter     time        total  log10-change:
                         energy   eigst   dens
iter:   1 13:41:47   -88.002420        c
iter:   2 13:42:30   -87.224200        c -1.61
iter:   3 13:43:13   -86.691690        c -1.71
iter:   4 13:43:54   -86.652091        c -1.87
iter:   5 13:44:36   -86.687920c       c -2.11
iter:   6 13:45:18   -86.571964c       c -2.10
iter:   7 13:46:00   -86.516001c       c -2.31
iter:   8 13:46:44   -86.502143c       c -2.69
iter:   9 13:47:27   -86.500355c       c -3.08
iter:  10 13:48:09   -86.498924c       c -3.19
iter:  11 13:48:52   -86.498738c       c -3.26
iter:  12 13:49:35   -86.499005c       c -3.37
iter:  13 13:50:17   -86.499110c       c -3.44
iter:  14 13:51:00   -86.498546c       c -3.71
iter:  15 13:51:44   -86.498388c       c -3.92
iter:  16 13:52:27   -86.498402c       c -4.10c

Converged after 16 iterations.

Dipole moment: (-20.929000, -14.478494, 0.100506) |e|*Ang

Energy contributions relative to reference atoms: (reference = -322558.566329)

Kinetic:       +151.217419
Potential:     -135.810182
External:        +0.000000
XC:            -100.791647
Entropy (-ST):   -2.627689
Local:           +0.199853
SIC:             +0.000000
--------------------------
Free energy:    -87.812246
Extrapolated:   -86.498402

 Band  Eigenvalues  Occupancy
    0    -29.85559    2.00000
    1    -29.25154    2.00000
    2    -29.25040    2.00000
    3    -28.57781    2.00000
    4    -28.57646    2.00000
    5    -28.42099    2.00000
    6    -27.99972    2.00000
    7    -27.98954    2.00000
    8    -27.98404    2.00000
    9    -27.97326    2.00000
   10    -27.97315    2.00000
   11    -27.96874    2.00000
   12    -27.96853    2.00000
   13    -27.96838    2.00000
   14    -27.96812    2.00000
   15    -27.96659    2.00000
   16    -27.96651    2.00000
   17    -27.96620    2.00000
   18    -27.96517    2.00000
   19    -27.96454    2.00000
   20    -27.96420    2.00000
   21    -27.96306    2.00000
   22    -27.96195    2.00000
   23    -27.96118    2.00000
   24    -27.96075    2.00000
   25    -27.96041    2.00000
   26    -27.95947    2.00000
   27    -27.95941    2.00000
   28    -27.95935    2.00000
   29    -27.95926    2.00000
   30    -27.95888    2.00000
   31    -27.95849    2.00000
   32    -27.95824    2.00000
   33    -27.95819    2.00000
   34    -27.95763    2.00000
   35    -27.95759    2.00000
   36    -27.95748    2.00000
   37    -27.95738    2.00000
   38    -27.95697    2.00000
   39    -27.95653    2.00000
   40    -27.95636    2.00000
   41    -27.95607    2.00000
   42    -27.95602    2.00000
   43    -27.95599    2.00000
   44    -27.95594    2.00000
   45    -27.95576    2.00000
   46    -27.95452    2.00000
   47    -27.95415    2.00000
   48    -27.95403    2.00000
   49    -27.95395    2.00000
   50    -27.95366    2.00000
   51    -27.95358    2.00000
   52    -27.95326    2.00000
   53    -27.95325    2.00000
   54    -27.95120    2.00000
   55    -27.94984    2.00000
   56    -27.94805    2.00000
   57    -27.94802    2.00000
   58    -27.94742    2.00000
   59    -27.94724    2.00000
   60    -27.94719    2.00000
   61    -27.94705    2.00000
   62    -27.94669    2.00000
   63    -27.94648    2.00000
   64    -27.94527    2.00000
   65    -27.94385    2.00000
   66    -27.94367    2.00000
   67    -27.94316    2.00000
   68    -27.94291    2.00000
   69    -27.94239    2.00000
   70    -27.94122    2.00000
   71    -27.93967    2.00000
   72    -27.93946    2.00000
   73    -27.93944    2.00000
   74    -27.93917    2.00000
   75    -27.93847    2.00000
   76    -27.93839    2.00000
   77    -27.93820    2.00000
   78    -27.93780    2.00000
   79    -27.93779    2.00000
   80    -27.93774    2.00000
   81    -27.93722    2.00000
   82    -27.93603    2.00000
   83    -27.93599    2.00000
   84    -27.93588    2.00000
   85    -27.93560    2.00000
   86    -27.93554    2.00000
   87    -27.93543    2.00000
   88    -27.93513    2.00000
   89    -27.92818    2.00000
   90    -27.92759    2.00000
   91    -27.92744    2.00000
   92    -27.92707    2.00000
   93    -27.92422    2.00000
   94    -27.92226    2.00000
   95    -27.91179    2.00000
   96    -27.91156    2.00000
   97    -27.90989    2.00000
   98    -27.90896    2.00000
   99    -27.90549    2.00000
  100    -27.90548    2.00000
  101    -27.90521    2.00000
  102    -27.90520    2.00000
  103    -27.89436    2.00000
  104    -27.89399    2.00000
  105    -27.89362    2.00000
  106    -27.89334    2.00000
  107    -27.88912    2.00000
  108    -27.88904    2.00000
  109    -27.88762    2.00000
  110    -27.88761    2.00000
  111    -27.78277    2.00000
  112    -27.78184    2.00000
  113    -27.78149    2.00000
  114    -27.78105    2.00000
  115    -27.77669    2.00000
  116    -27.77590    2.00000
  117    -27.77481    2.00000
  118    -27.77431    2.00000
  119    -27.77302    2.00000
  120    -27.77117    2.00000
  121    -27.77099    2.00000
  122    -27.77046    2.00000
  123    -27.76940    2.00000
  124    -27.76893    2.00000
  125    -27.76868    2.00000
  126    -27.76753    2.00000
  127    -27.76634    2.00000
  128    -27.76610    2.00000
  129    -27.76610    2.00000
  130    -27.76604    2.00000
  131    -27.76595    2.00000
  132    -27.76552    2.00000
  133    -27.76531    2.00000
  134    -27.76469    2.00000
  135    -27.76466    2.00000
  136    -27.76458    2.00000
  137    -27.76361    2.00000
  138    -27.76294    2.00000
  139    -27.76272    2.00000
  140    -27.76272    2.00000
  141    -27.76258    2.00000
  142    -27.76209    2.00000
  143    -27.76142    2.00000
  144    -27.76098    2.00000
  145    -27.76079    2.00000
  146    -27.75997    2.00000
  147    -27.75953    2.00000
  148    -27.75891    2.00000
  149    -27.75884    2.00000
  150    -27.75872    2.00000
  151    -27.75836    2.00000
  152    -27.75786    2.00000
  153    -27.75739    2.00000
  154    -27.75697    2.00000
  155    -27.75695    2.00000
  156    -27.75694    2.00000
  157    -27.75634    2.00000
  158    -27.75623    2.00000
  159    -27.75562    2.00000
  160    -27.75514    2.00000
  161    -27.75458    2.00000
  162    -27.75449    2.00000
  163    -27.75393    2.00000
  164    -27.75337    2.00000
  165    -27.75329    2.00000
  166    -27.75310    2.00000
  167    -27.75285    2.00000
  168    -27.75277    2.00000
  169    -27.75222    2.00000
  170    -27.75203    2.00000
  171    -27.75187    2.00000
  172    -27.75142    2.00000
  173    -27.75098    2.00000
  174    -27.75050    2.00000
  175    -27.75018    2.00000
  176    -27.75012    2.00000
  177    -27.74948    2.00000
  178    -27.74937    2.00000
  179    -27.74895    2.00000
  180    -27.74834    2.00000
  181    -27.74831    2.00000
  182    -27.74783    2.00000
  183    -27.74694    2.00000
  184    -27.74651    2.00000
  185    -27.74638    2.00000
  186    -27.74618    2.00000
  187    -27.74588    2.00000
  188    -27.74575    2.00000
  189    -27.74564    2.00000
  190    -27.74554    2.00000
  191    -27.74551    2.00000
  192    -27.74551    2.00000
  193    -27.74524    2.00000
  194    -27.74523    2.00000
  195    -27.74425    2.00000
  196    -27.74418    2.00000
  197    -27.74406    2.00000
  198    -27.74357    2.00000
  199    -27.74352    2.00000
  200    -27.74313    2.00000
  201    -27.74274    2.00000
  202    -27.74237    2.00000
  203    -27.74175    2.00000
  204    -27.74158    2.00000
  205    -27.74095    2.00000
  206    -27.74018    2.00000
  207    -27.73893    2.00000
  208    -27.73890    2.00000
  209    -27.73855    2.00000
  210    -27.73848    2.00000
  211    -27.73775    2.00000
  212    -27.73734    2.00000
  213    -27.73692    2.00000
  214    -27.73562    2.00000
  215    -27.73556    2.00000
  216    -27.73485    2.00000
  217    -27.73433    2.00000
  218    -27.73271    2.00000
  219     -5.93829    2.00000
  220     -5.45720    2.00000
  221     -5.44675    2.00000
  222     -5.39828    2.00000
  223     -4.98578    2.00000
  224     -4.97026    2.00000
  225     -4.93610    2.00000
  226     -4.91226    2.00000
  227     -4.54226    1.99997
  228     -4.50168    1.99997
  229     -4.49974    1.99997
  230     -4.49802    1.99996
  231     -4.48263    1.99996
  232     -4.44380    1.99995
  233     -4.43933    1.99995
  234     -4.08478    1.99945
  235     -4.03200    1.99922
  236     -4.02201    1.99916
  237     -3.98584    1.99893
  238     -3.97573    1.99886
  239     -3.96986    1.99881
  240     -3.96600    1.99878
  241     -3.96112    1.99874
  242     -3.59816    1.98594
  243     -3.52989    1.97792
  244     -3.51302    1.97533
  245     -3.50181    1.97344
  246     -3.31822    1.91247
  247     -3.12312    1.71226
  248     -3.11792    1.70362
  249     -3.11462    1.69802
  250     -3.10794    1.68642
  251     -3.09401    1.66108
  252     -3.07421    1.62228
  253     -3.06075    1.59402
  254     -3.04552    1.56017
  255     -2.86595    1.03452
  256     -2.79089    0.78762
  257     -2.62799    0.35969
  258     -2.61594    0.33661
  259     -2.59594    0.30092
  260     -2.58013    0.27496
  261     -2.57984    0.27450
  262     -2.57844    0.27229
  263     -2.43216    0.11220
  264     -2.37156    0.07633
  265     -2.22503    0.02944
  266     -2.18987    0.02336
  267     -2.18501    0.02262
  268     -1.98734    0.00611
  269     -1.97879    0.00577
  270     -1.96277    0.00519
  271     -1.92727    0.00410
  272     -1.88321    0.00306
  273     -1.80014    0.00176
  274     -1.78819    0.00162
  275     -1.78531    0.00159
  276     -1.75494    0.00130
  277     -1.75363    0.00129
  278     -1.75289    0.00128
  279     -1.75227    0.00128
  280     -1.74631    0.00123
  281     -1.74334    0.00120
  282     -1.70783    0.00095
  283     -1.68793    0.00083
  284     -1.68580    0.00082
  285     -1.48859    0.00022
  286     -1.45406    0.00018
  287     -1.43289    0.00015
  288     -1.39081    0.00011
  289     -1.33660    0.00008
  290     -1.29740    0.00006
  291     -1.09073    0.00002
  292     -1.08855    0.00002
  293     -1.08293    0.00001
  294     -1.06470    0.00001
  295     -1.06365    0.00001
  296     -1.05600    0.00001
  297     -1.02341    0.00001
  298     -0.93658    0.00001
  299     -0.88901    0.00000
  300     -0.87043    0.00000
  301     -0.84753    0.00000
  302     -0.84278    0.00000
  303     -0.79953    0.00000
  304     -0.75861    0.00000
  305     -0.64483    0.00000
  306     -0.64161    0.00000
  307     -0.63566    0.00000
  308     -0.58404    0.00000
  309     -0.56838    0.00000
  310     -0.50710    0.00000

Fermi level: -2.85559

Gap: 0.075 eV
Transition (v -> c):
  (s=0, k=0, n=255, [0.00, 0.00, 0.00]) -> (s=0, k=0, n=256, [0.00, 0.00, 0.00])
No difference between direct/indirect transitions

Forces in eV/Ang:
  0 Na   -0.00096    0.00000   -0.00430
  1 Na   -0.00008   -0.00602   -0.00166
  2 Na    0.00040    0.00000    0.00628
  3 Na    0.00171   -0.00308    0.00734
  4 Na    0.00278    0.00000   -0.01247
  5 Na    0.00023   -0.00727   -0.01989
  6 Na    0.00115    0.00000   -3.25004
  7 Na    0.02681   -0.02522    0.04893
  8 Na   -0.00769   -0.00382   -0.00029
  9 Na    0.00086    0.00000    0.01285
 10 Na    0.00023   -0.00254    0.01632
 11 Na    0.00190    0.00000    0.01724
 12 Na   -0.00519    0.00360   -0.01981
 13 Na    0.00038    0.00000   -0.01886
 14 Na   -0.00011   -0.04445    0.05158
 15 Na   -0.00309    0.00000    0.00703
 16 Na   -0.00769    0.00382   -0.00029
 17 Na   -0.00008    0.00602   -0.00166
 18 Na    0.00023    0.00254    0.01632
 19 Na    0.00171    0.00308    0.00734
 20 Na   -0.00519   -0.00360   -0.01981
 21 Na    0.00023    0.00727   -0.01989
 22 Na   -0.00011    0.04445    0.05158
 23 Na    0.02681    0.02522    0.04893
 24 Na    0.00009    0.00000   -0.00456
 25 Na    0.00233    0.00252   -0.00600
 26 Na   -0.00035    0.00000    0.00951
 27 Na    0.00022    0.00220    0.01241
 28 Na   -0.00331    0.00000   -0.01205
 29 Na    0.00005   -0.00070   -0.00853
 30 Na    0.00039    0.00000    0.00341
 31 Na   -0.02676   -0.02544    0.04878
 32 Na    0.00777   -0.00359   -0.00012
 33 Na    0.01052    0.00000   -0.01147
 34 Na    0.00411    0.00182    0.01537
 35 Na    0.00040    0.00000    0.01650
 36 Na    0.00500    0.00341   -0.01911
 37 Na    0.00038    0.00000   -0.01855
 38 Na    0.00259    0.00032    0.00326
 39 Na    0.00222    0.00000    0.00729
 40 Na    0.00777    0.00359   -0.00012
 41 Na    0.00233   -0.00252   -0.00600
 42 Na    0.00411   -0.00182    0.01537
 43 Na    0.00022   -0.00220    0.01241
 44 Na    0.00500   -0.00341   -0.01911
 45 Na    0.00005    0.00070   -0.00853
 46 Na    0.00259   -0.00032    0.00326
 47 Na   -0.02676    0.02544    0.04878
 48 Na    0.00086    0.00000   -0.00085
 49 Na   -0.00225    0.00229   -0.00583
 50 Na   -0.00008    0.00000    0.00919
 51 Na   -0.00195   -0.00327    0.00803
 52 Na    0.00039    0.00000   -0.00997
 53 Na   -0.00024   -0.00050   -0.00782
 54 Na   -0.00106    0.00000    0.00368
 55 Na   -0.00010   -0.00229    0.00339
 56 Na   -0.00008    0.00921   -0.01732
 57 Na   -0.01138    0.00000   -0.01173
 58 Na   -0.00434    0.00163    0.01467
 59 Na   -0.00231    0.00000    0.01754
 60 Na    0.00022    0.00249   -0.01795
 61 Na   -0.00076    0.00000   -0.01824
 62 Na   -0.00254    0.00056    0.00309
 63 Na    0.00085    0.00000    0.00523
 64 Na   -0.00008   -0.00921   -0.01732
 65 Na   -0.00225   -0.00229   -0.00583
 66 Na   -0.00434   -0.00163    0.01467
 67 Na   -0.00195    0.00327    0.00803
 68 Na    0.00022   -0.00249   -0.01795
 69 Na   -0.00024    0.00050   -0.00782
 70 Na   -0.00254   -0.00056    0.00309
 71 Na   -0.00010    0.00229    0.00339
 72 Na    0.00111    0.00000    3.04142

Timing:                              incl.     excl.
-----------------------------------------------------------
Basic WFS set positions:             0.001     0.001   0.0% |
Basis functions set positions:       1.015     1.015   0.1% |
Forces:                            116.496     0.743   0.1% |
 LCAO forces:                      115.754     0.007   0.0% |
  Atomic Hamiltonian force:          0.724     0.724   0.1% |
  Initial:                           0.013     0.000   0.0% |
   Get density matrix:               0.013     0.013   0.0% |
  Paw correction:                    0.673     0.673   0.1% |
  Potential:                       111.699   111.699  14.2% |-----|
  TCI derivative:                    2.637     2.637   0.3% |
  Wait for sum:                      0.000     0.000   0.0% |
LCAO WFS Initialize:                 2.481     0.508   0.1% |
 Hamiltonian:                        1.973     0.000   0.0% |
  Atomic:                            0.776     0.002   0.0% |
   XC Correction:                    0.774     0.774   0.1% |
  Calculate atomic Hamiltonians:     0.044     0.044   0.0% |
  Communicate:                       0.000     0.000   0.0% |
  Hartree integrate/restrict:        0.019     0.019   0.0% |
  Initialize Hamiltonian:            0.000     0.000   0.0% |
  Poisson:                           0.455     0.032   0.0% |
   Communicate from 1D:              0.053     0.053   0.0% |
   Communicate from 2D:              0.044     0.044   0.0% |
   Communicate to 1D:                0.033     0.033   0.0% |
   Communicate to 2D:                0.059     0.059   0.0% |
   FFT 1D:                           0.105     0.105   0.0% |
   FFT 2D:                           0.129     0.129   0.0% |
  XC 3D grid:                        0.673     0.673   0.1% |
  vbar:                              0.007     0.007   0.0% |
P tci:                               0.915     0.915   0.1% |
SCF-cycle:                         661.214     0.014   0.0% |
 Density:                          283.531     0.000   0.0% |
  Atomic density matrices:           0.041     0.041   0.0% |
  Mix:                               1.215     1.215   0.2% |
  Multipole moments:                 0.007     0.007   0.0% |
  Normalize:                         0.005     0.005   0.0% |
  Pseudo density:                  282.263     0.035   0.0% |
   Calculate density matrix:         0.104     0.104   0.0% |
   Construct density:              281.996   281.996  35.8% |-------------|
   Symmetrize density:               0.127     0.127   0.0% |
 Hamiltonian:                       28.802     0.001   0.0% |
  Atomic:                           11.565     0.030   0.0% |
   XC Correction:                   11.535    11.535   1.5% ||
  Calculate atomic Hamiltonians:     0.627     0.627   0.1% |
  Communicate:                       0.000     0.000   0.0% |
  Hartree integrate/restrict:        0.226     0.226   0.0% |
  Poisson:                           6.154     0.194   0.0% |
   Communicate from 1D:              0.765     0.765   0.1% |
   Communicate from 2D:              0.650     0.650   0.1% |
   Communicate to 1D:                0.484     0.484   0.1% |
   Communicate to 2D:                0.756     0.756   0.1% |
   FFT 1D:                           1.464     1.464   0.2% |
   FFT 2D:                           1.841     1.841   0.2% |
  XC 3D grid:                       10.177    10.177   1.3% ||
  vbar:                              0.052     0.052   0.0% |
 LCAO eigensolver:                 348.867     0.011   0.0% |
  Calculate projections:             0.154     0.154   0.0% |
  DenseAtomicCorrection:             2.197     2.197   0.3% |
  Distribute overlap matrix:         0.000     0.000   0.0% |
  Orbital Layouts:                   3.782     3.782   0.5% |
  Potential matrix:                342.723   342.723  43.5% |----------------|
ST tci:                              1.300     1.300   0.2% |
Set symmetry:                        0.000     0.000   0.0% |
TCI: Evaluate splines:               0.038     0.038   0.0% |
mktci:                               0.275     0.275   0.0% |
Other:                               3.492     3.492   0.4% |
-----------------------------------------------------------
Total:                                       787.228 100.0%

Memory usage: 3.67 GiB
Date: Tue Nov 25 13:54:23 2025
