
  ___ ___ ___ _ _ _  
 |   |   |_  | | | | 
 | | | | | . | | | | 
 |__ |  _|___|_____|  25.7.0
 |___|_|             

User:   tew@Mathuss-MacBook-Air-357.local
Date:   Wed Nov 26 06:16:26 2025
Arch:   arm64
Pid:    88448
CWD:    /Users/tew/Documents/Project/GitHub/chem-com
Python: 3.13.5
gpaw:   /Users/tew/Documents/Project/GitHub/chem-com/.venv/lib/python3.13/site-packages/gpaw
_gpaw:  /Users/tew/Documents/Project/GitHub/chem-com/.venv/lib/python3.13/site-packages/
        _gpaw.cpython-313-darwin.so
ase:    /Users/tew/Documents/Project/GitHub/chem-com/.venv/lib/python3.13/site-packages/ase (version 3.26.0)
numpy:  /Users/tew/Documents/Project/GitHub/chem-com/.venv/lib/python3.13/site-packages/numpy (version 2.3.5)
scipy:  /Users/tew/Documents/Project/GitHub/chem-com/.venv/lib/python3.13/site-packages/scipy (version 1.16.3)
libxc:  2.x.y
units:  Angstrom and eV
cores: 1
OpenMP: False
OMP_NUM_THREADS: 1

Input parameters:
  basis: dzp
  convergence: {density: 0.0001,
                eigenstates: 5e-06}
  kpts: [1 1 1]
  mode: {interpolation: 3,
         name: lcao}
  occupations: {fixmagmom: False,
                name: fermi-dirac,
                width: 0.15}
  xc: PBE

System changes: positions, numbers, cell, pbc, initial_charges, initial_magmoms 

Initialize ...

species:
  Na:
    name: Sodium
    id: d7ecbc49209718622bcbe287195dca2a
    Z: 11.0
    valence: 7
    core: 4
    charge: 0.0
    file: /Users/tew/Documents/Project/GitHub/chem-com/.venv/lib/python3.13/site-packages/gpaw_data/setups/Na.PBE.gz
    compensation charges: {type: gauss,
                           rc: 0.37,
                           lmax: 2}
    cutoffs: {filter: 2.17,
              core: 2.59}
    projectors:
      #              energy  rcut
      - 3s(1.00)    -2.744   1.201
      - 2p(6.00)   -28.672   1.217
      - 3p(0.00)    -0.743   1.217
      -  s          24.468   1.201
      -  d           0.000   1.238
  
    # LCAO basis set for Na:
    #   Name: dzp
    #   File: /Users/tew/Documents/Project/GitHub/chem-com/.venv/lib/python3.13/site-packages/gpaw_data/setups/Na.dzp.basis.gz
    #   Number of radial functions: 7
    #   Number of spherical harmonics: 17
    #     l=0, rc=11.4062 Bohr: 3s-sz confined orbital
    #     l=1, rc=3.6719 Bohr: 2p-sz confined orbital
    #     l=1, rc=15.9375 Bohr: 3p-sz confined orbital
    #     l=0, rc=6.9531 Bohr: 3s-dz split-valence wave
    #     l=1, rc=2.4219 Bohr: 2p-dz split-valence wave
    #     l=1, rc=10.0469 Bohr: 3p-dz split-valence wave
    #     l=1, rc=11.4062 Bohr: p-type Gaussian polarization
    #   Number of RI-basis functions 0

Reference energy: -322558.566329  # eV

Spin-paired calculation

Convergence criteria:
 Maximum [total energy] change in last 3 cyles: 0.0005 eV / valence electron
 Maximum integral of absolute [dens]ity change: 0.0001 electrons / valence electron
 Maximum integral of absolute [eigenst]ate change: 5e-06 eV^2 / valence electron
 Maximum number of scf [iter]ations: 333
 (Square brackets indicate name in SCF output, whereas a 'c' in
 the SCF output indicates the quantity has converged.)

Symmetries present (total): 2

  ( 1  0  0)  ( 1  0  0)
  ( 0  1  0)  ( 0 -1  0)
  ( 0  0  1)  ( 0  0  1)

1 k-point (Gamma)
1 k-point in the irreducible part of the Brillouin zone
       k-points in crystal coordinates                weights
   0:     0.00000000    0.00000000    0.00000000          1/1

Wave functions: LCAO
  Diagonalizer: Serial LAPACK
  Atomic Correction: dense with blas
  Data-type: float
 

Occupation numbers: Fermi-Dirac:
  width: 0.1500  # eV
 

Eigensolver
   LCAO using direct dense diagonalizer 

Densities:
  Coarse grid: 88*64*144 grid
  Fine grid: 176*128*288 grid
  Total Charge: 0.000000 

Density mixing:
  Method: separate
  Backend: pulay
  Linear mixing parameter: 0.05
  old densities: 5
  Damping of long wavelength oscillations: 50 

Hamiltonian:
  XC and Coulomb potentials evaluated on a 176*128*288 grid
  Using the PBE Exchange-Correlation functional
  Interpolation: tri-quintic (5. degree polynomial)
  Poisson solver: FastPoissonSolver using
    Stencil: 6*3+1=19 point O(h^6) finite-difference Laplacian
    FFT axes: [np.int64(0), np.int64(1)]
    FST axes: [np.int64(2)]
 

XC parameters: PBE with 2 nearest neighbor stencil

Memory estimate:
  Process memory now: 3762.67 MiB
  Calculator: 1616.02 MiB
    Density: 540.29 MiB
      Arrays: 160.27 MiB
      Localized functions: 318.57 MiB
      Mixer: 61.45 MiB
    Hamiltonian: 128.23 MiB
      Arrays: 104.80 MiB
      XC: 0.00 MiB
      Poisson: 0.00 MiB
      vbar: 23.43 MiB
    Wavefunctions: 947.50 MiB
      C [qnM]: 2.94 MiB
      S, T [2 x qmm]: 23.50 MiB
      P [aqMi]: 1.12 MiB
      BasisFunctions: 919.93 MiB
      Eigensolver: 0.00 MiB

Total number of cores used: 1

Number of atoms: 73
Number of atomic orbitals: 1241
Number of bands in calculation: 311
Number of valence electrons: 511
Bands to converge: occupied

... initialized

Initializing position-dependent things.

Density initialized from atomic densities
         .-------------------------------------------.  
        /|                                           |  
       / |                                           |  
      /  |                                           |  
     /   |                                           |  
    /    |                                           |  
   /     |                                           |  
  /      |                                           |  
 *       |                                           |  
 |       |                                           |  
 |       |                                           |  
 |       |                                           |  
 |       |                                           |  
 |       |                                           |  
 |      Na            Na             Na              |  
 |       |    Na            Na             Na        |  
 |   Na  |          Na            Na                 |  
 |       |     Na             Na            Na       |  
 |      Na Na             Na            Na           |  
 |Na  Na |       Na  Na         Na  Na               |  
 |      Na  Na         Na  Na         Na  Na         |  
 |  Na  Na        Na  Na         Na  Na              |  
 |       |                                           |  
 |       |Na  Na        Na  Na         Na  Na        |  
 Na  Na  |      Na  Na        Na  Na                 |  
 |       | Na  Na         Na  Na        Na  Na       |  
 |    Na |           Na             Na               |  
 |Na     |       Na             Na                   |  
 |      Na  Na         Na  Na         Na  Na         |  
 |  Na   |        Na             Na                  |  
 |       |Na            Na             Na            |  
 |       |                                           |  
 Na      |      Na            Na                     |  
 |       |                                           |  
 |       |                                           |  
 |       |                                           |  
 |       .-------------------------------------------.  
 |      /                                           /   
 |     /                                           /    
 |    /                                           /     
 |   /                                           /      
 |  /                                           /       
 | /                                           /        
 |/                                           /         
 *-------------------------------------------*          

Atomic positions and initial magnetic moments

Positions:
   0 Na     0.000000    0.000000   10.000000    ( 0.0000,  0.0000,  0.0000)
   1 Na     2.991062    2.115000   10.000000    ( 0.0000,  0.0000,  0.0000)
   2 Na     2.991062    0.000000   12.991062    ( 0.0000,  0.0000,  0.0000)
   3 Na     5.982123    2.115000   12.991062    ( 0.0000,  0.0000,  0.0000)
   4 Na     0.000000    0.000000   15.982123    ( 0.0000,  0.0000,  0.0000)
   5 Na     2.991062    2.115000   15.982123    ( 0.0000,  0.0000,  0.0000)
   6 Na     2.991062    0.000000   18.973185    ( 0.0000,  0.0000,  0.0000)
   7 Na     0.000000    2.115000   18.973185    ( 0.0000,  0.0000,  0.0000)
   8 Na     0.000000    4.230000   10.000000    ( 0.0000,  0.0000,  0.0000)
   9 Na     2.991062    6.345000   10.000000    ( 0.0000,  0.0000,  0.0000)
  10 Na     2.991062    4.230000   12.991062    ( 0.0000,  0.0000,  0.0000)
  11 Na     5.982123    6.345000   12.991062    ( 0.0000,  0.0000,  0.0000)
  12 Na     0.000000    4.230000   15.982123    ( 0.0000,  0.0000,  0.0000)
  13 Na     2.991062    6.345000   15.982123    ( 0.0000,  0.0000,  0.0000)
  14 Na     2.991062    4.230000   18.973185    ( 0.0000,  0.0000,  0.0000)
  15 Na     0.000000    6.345000   18.973185    ( 0.0000,  0.0000,  0.0000)
  16 Na     0.000000    8.460000   10.000000    ( 0.0000,  0.0000,  0.0000)
  17 Na     2.991062   10.575000   10.000000    ( 0.0000,  0.0000,  0.0000)
  18 Na     2.991062    8.460000   12.991062    ( 0.0000,  0.0000,  0.0000)
  19 Na     5.982123   10.575000   12.991062    ( 0.0000,  0.0000,  0.0000)
  20 Na     0.000000    8.460000   15.982123    ( 0.0000,  0.0000,  0.0000)
  21 Na     2.991062   10.575000   15.982123    ( 0.0000,  0.0000,  0.0000)
  22 Na     2.991062    8.460000   18.973185    ( 0.0000,  0.0000,  0.0000)
  23 Na     0.000000   10.575000   18.973185    ( 0.0000,  0.0000,  0.0000)
  24 Na     5.982123    0.000000   10.000000    ( 0.0000,  0.0000,  0.0000)
  25 Na     8.973185    2.115000   10.000000    ( 0.0000,  0.0000,  0.0000)
  26 Na     8.973185    0.000000   12.991062    ( 0.0000,  0.0000,  0.0000)
  27 Na    11.964247    2.115000   12.991062    ( 0.0000,  0.0000,  0.0000)
  28 Na     5.982123    0.000000   15.982123    ( 0.0000,  0.0000,  0.0000)
  29 Na     8.973185    2.115000   15.982123    ( 0.0000,  0.0000,  0.0000)
  30 Na     8.973185    0.000000   18.973185    ( 0.0000,  0.0000,  0.0000)
  31 Na     5.982123    2.115000   18.973185    ( 0.0000,  0.0000,  0.0000)
  32 Na     5.982123    4.230000   10.000000    ( 0.0000,  0.0000,  0.0000)
  33 Na     8.973185    6.345000   10.000000    ( 0.0000,  0.0000,  0.0000)
  34 Na     8.973185    4.230000   12.991062    ( 0.0000,  0.0000,  0.0000)
  35 Na    11.964247    6.345000   12.991062    ( 0.0000,  0.0000,  0.0000)
  36 Na     5.982123    4.230000   15.982123    ( 0.0000,  0.0000,  0.0000)
  37 Na     8.973185    6.345000   15.982123    ( 0.0000,  0.0000,  0.0000)
  38 Na     8.973185    4.230000   18.973185    ( 0.0000,  0.0000,  0.0000)
  39 Na     5.982123    6.345000   18.973185    ( 0.0000,  0.0000,  0.0000)
  40 Na     5.982123    8.460000   10.000000    ( 0.0000,  0.0000,  0.0000)
  41 Na     8.973185   10.575000   10.000000    ( 0.0000,  0.0000,  0.0000)
  42 Na     8.973185    8.460000   12.991062    ( 0.0000,  0.0000,  0.0000)
  43 Na    11.964247   10.575000   12.991062    ( 0.0000,  0.0000,  0.0000)
  44 Na     5.982123    8.460000   15.982123    ( 0.0000,  0.0000,  0.0000)
  45 Na     8.973185   10.575000   15.982123    ( 0.0000,  0.0000,  0.0000)
  46 Na     8.973185    8.460000   18.973185    ( 0.0000,  0.0000,  0.0000)
  47 Na     5.982123   10.575000   18.973185    ( 0.0000,  0.0000,  0.0000)
  48 Na    11.964247    0.000000   10.000000    ( 0.0000,  0.0000,  0.0000)
  49 Na    14.955308    2.115000   10.000000    ( 0.0000,  0.0000,  0.0000)
  50 Na    14.955308    0.000000   12.991062    ( 0.0000,  0.0000,  0.0000)
  51 Na    17.946370    2.115000   12.991062    ( 0.0000,  0.0000,  0.0000)
  52 Na    11.964247    0.000000   15.982123    ( 0.0000,  0.0000,  0.0000)
  53 Na    14.955308    2.115000   15.982123    ( 0.0000,  0.0000,  0.0000)
  54 Na    14.955308    0.000000   18.973185    ( 0.0000,  0.0000,  0.0000)
  55 Na    11.964247    2.115000   18.973185    ( 0.0000,  0.0000,  0.0000)
  56 Na    11.964247    4.230000   10.000000    ( 0.0000,  0.0000,  0.0000)
  57 Na    14.955308    6.345000   10.000000    ( 0.0000,  0.0000,  0.0000)
  58 Na    14.955308    4.230000   12.991062    ( 0.0000,  0.0000,  0.0000)
  59 Na    17.946370    6.345000   12.991062    ( 0.0000,  0.0000,  0.0000)
  60 Na    11.964247    4.230000   15.982123    ( 0.0000,  0.0000,  0.0000)
  61 Na    14.955308    6.345000   15.982123    ( 0.0000,  0.0000,  0.0000)
  62 Na    14.955308    4.230000   18.973185    ( 0.0000,  0.0000,  0.0000)
  63 Na    11.964247    6.345000   18.973185    ( 0.0000,  0.0000,  0.0000)
  64 Na    11.964247    8.460000   10.000000    ( 0.0000,  0.0000,  0.0000)
  65 Na    14.955308   10.575000   10.000000    ( 0.0000,  0.0000,  0.0000)
  66 Na    14.955308    8.460000   12.991062    ( 0.0000,  0.0000,  0.0000)
  67 Na    17.946370   10.575000   12.991062    ( 0.0000,  0.0000,  0.0000)
  68 Na    11.964247    8.460000   15.982123    ( 0.0000,  0.0000,  0.0000)
  69 Na    14.955308   10.575000   15.982123    ( 0.0000,  0.0000,  0.0000)
  70 Na    14.955308    8.460000   18.973185    ( 0.0000,  0.0000,  0.0000)
  71 Na    11.964247   10.575000   18.973185    ( 0.0000,  0.0000,  0.0000)
  72 Na     2.991062    0.000000   20.973185    ( 0.0000,  0.0000,  0.0000)

Unit cell:
           periodic     x           y           z      points  spacing
  1. axis:    yes   17.946370    0.000000    0.000000    88     0.2039
  2. axis:    yes    0.000000   12.690000    0.000000    64     0.1983
  3. axis:    no     0.000000    0.000000   28.973185   144     0.2012

  Lengths:  17.946370  12.690000  28.973185
  Angles:   90.000000  90.000000  90.000000

Effective grid spacing dv^(1/3) = 0.2011

     iter     time        total  log10-change:
                         energy   eigst   dens
iter:   1 06:17:09   -88.002420        c
iter:   2 06:18:00   -87.224200        c -1.61
iter:   3 06:18:53   -86.691690        c -1.71
iter:   4 06:19:50   -86.652091        c -1.87
iter:   5 06:20:47   -86.687920c       c -2.11
iter:   6 06:21:48   -86.571964c       c -2.10
iter:   7 06:22:46   -86.516001c       c -2.31
iter:   8 06:23:37   -86.502143c       c -2.69
iter:   9 06:24:33   -86.500355c       c -3.08
iter:  10 06:25:34   -86.498924c       c -3.19
iter:  11 06:26:33   -86.498738c       c -3.26
iter:  12 06:27:32   -86.499005c       c -3.37
iter:  13 06:28:29   -86.499110c       c -3.44
iter:  14 06:29:23   -86.498546c       c -3.71
iter:  15 06:30:24   -86.498388c       c -3.92
iter:  16 06:31:25   -86.498402c       c -4.10c

Converged after 16 iterations.

Dipole moment: (-20.929000, -14.478494, 0.100506) |e|*Ang

Energy contributions relative to reference atoms: (reference = -322558.566329)

Kinetic:       +151.217419
Potential:     -135.810182
External:        +0.000000
XC:            -100.791647
Entropy (-ST):   -2.627689
Local:           +0.199853
SIC:             +0.000000
--------------------------
Free energy:    -87.812246
Extrapolated:   -86.498402

 Band  Eigenvalues  Occupancy
    0    -29.85559    2.00000
    1    -29.25154    2.00000
    2    -29.25040    2.00000
    3    -28.57781    2.00000
    4    -28.57646    2.00000
    5    -28.42099    2.00000
    6    -27.99972    2.00000
    7    -27.98954    2.00000
    8    -27.98404    2.00000
    9    -27.97326    2.00000
   10    -27.97315    2.00000
   11    -27.96874    2.00000
   12    -27.96853    2.00000
   13    -27.96838    2.00000
   14    -27.96812    2.00000
   15    -27.96659    2.00000
   16    -27.96651    2.00000
   17    -27.96620    2.00000
   18    -27.96517    2.00000
   19    -27.96454    2.00000
   20    -27.96420    2.00000
   21    -27.96306    2.00000
   22    -27.96195    2.00000
   23    -27.96118    2.00000
   24    -27.96075    2.00000
   25    -27.96041    2.00000
   26    -27.95947    2.00000
   27    -27.95941    2.00000
   28    -27.95935    2.00000
   29    -27.95926    2.00000
   30    -27.95888    2.00000
   31    -27.95849    2.00000
   32    -27.95824    2.00000
   33    -27.95819    2.00000
   34    -27.95763    2.00000
   35    -27.95759    2.00000
   36    -27.95748    2.00000
   37    -27.95738    2.00000
   38    -27.95697    2.00000
   39    -27.95653    2.00000
   40    -27.95636    2.00000
   41    -27.95607    2.00000
   42    -27.95602    2.00000
   43    -27.95599    2.00000
   44    -27.95594    2.00000
   45    -27.95576    2.00000
   46    -27.95452    2.00000
   47    -27.95415    2.00000
   48    -27.95403    2.00000
   49    -27.95395    2.00000
   50    -27.95366    2.00000
   51    -27.95358    2.00000
   52    -27.95326    2.00000
   53    -27.95325    2.00000
   54    -27.95120    2.00000
   55    -27.94984    2.00000
   56    -27.94805    2.00000
   57    -27.94802    2.00000
   58    -27.94742    2.00000
   59    -27.94724    2.00000
   60    -27.94719    2.00000
   61    -27.94705    2.00000
   62    -27.94669    2.00000
   63    -27.94648    2.00000
   64    -27.94527    2.00000
   65    -27.94385    2.00000
   66    -27.94367    2.00000
   67    -27.94316    2.00000
   68    -27.94291    2.00000
   69    -27.94239    2.00000
   70    -27.94122    2.00000
   71    -27.93967    2.00000
   72    -27.93946    2.00000
   73    -27.93944    2.00000
   74    -27.93917    2.00000
   75    -27.93847    2.00000
   76    -27.93839    2.00000
   77    -27.93820    2.00000
   78    -27.93780    2.00000
   79    -27.93779    2.00000
   80    -27.93774    2.00000
   81    -27.93722    2.00000
   82    -27.93603    2.00000
   83    -27.93599    2.00000
   84    -27.93588    2.00000
   85    -27.93560    2.00000
   86    -27.93554    2.00000
   87    -27.93543    2.00000
   88    -27.93513    2.00000
   89    -27.92818    2.00000
   90    -27.92759    2.00000
   91    -27.92744    2.00000
   92    -27.92707    2.00000
   93    -27.92422    2.00000
   94    -27.92226    2.00000
   95    -27.91179    2.00000
   96    -27.91156    2.00000
   97    -27.90989    2.00000
   98    -27.90896    2.00000
   99    -27.90549    2.00000
  100    -27.90548    2.00000
  101    -27.90521    2.00000
  102    -27.90520    2.00000
  103    -27.89436    2.00000
  104    -27.89399    2.00000
  105    -27.89362    2.00000
  106    -27.89334    2.00000
  107    -27.88912    2.00000
  108    -27.88904    2.00000
  109    -27.88762    2.00000
  110    -27.88761    2.00000
  111    -27.78277    2.00000
  112    -27.78184    2.00000
  113    -27.78149    2.00000
  114    -27.78105    2.00000
  115    -27.77669    2.00000
  116    -27.77590    2.00000
  117    -27.77481    2.00000
  118    -27.77431    2.00000
  119    -27.77302    2.00000
  120    -27.77117    2.00000
  121    -27.77099    2.00000
  122    -27.77046    2.00000
  123    -27.76940    2.00000
  124    -27.76893    2.00000
  125    -27.76868    2.00000
  126    -27.76753    2.00000
  127    -27.76634    2.00000
  128    -27.76610    2.00000
  129    -27.76610    2.00000
  130    -27.76604    2.00000
  131    -27.76595    2.00000
  132    -27.76552    2.00000
  133    -27.76531    2.00000
  134    -27.76469    2.00000
  135    -27.76466    2.00000
  136    -27.76458    2.00000
  137    -27.76361    2.00000
  138    -27.76294    2.00000
  139    -27.76272    2.00000
  140    -27.76272    2.00000
  141    -27.76258    2.00000
  142    -27.76209    2.00000
  143    -27.76142    2.00000
  144    -27.76098    2.00000
  145    -27.76079    2.00000
  146    -27.75997    2.00000
  147    -27.75953    2.00000
  148    -27.75891    2.00000
  149    -27.75884    2.00000
  150    -27.75872    2.00000
  151    -27.75836    2.00000
  152    -27.75786    2.00000
  153    -27.75739    2.00000
  154    -27.75697    2.00000
  155    -27.75695    2.00000
  156    -27.75694    2.00000
  157    -27.75634    2.00000
  158    -27.75623    2.00000
  159    -27.75562    2.00000
  160    -27.75514    2.00000
  161    -27.75458    2.00000
  162    -27.75449    2.00000
  163    -27.75393    2.00000
  164    -27.75337    2.00000
  165    -27.75329    2.00000
  166    -27.75310    2.00000
  167    -27.75285    2.00000
  168    -27.75277    2.00000
  169    -27.75222    2.00000
  170    -27.75203    2.00000
  171    -27.75187    2.00000
  172    -27.75142    2.00000
  173    -27.75098    2.00000
  174    -27.75050    2.00000
  175    -27.75018    2.00000
  176    -27.75012    2.00000
  177    -27.74948    2.00000
  178    -27.74937    2.00000
  179    -27.74895    2.00000
  180    -27.74834    2.00000
  181    -27.74831    2.00000
  182    -27.74783    2.00000
  183    -27.74694    2.00000
  184    -27.74651    2.00000
  185    -27.74638    2.00000
  186    -27.74618    2.00000
  187    -27.74588    2.00000
  188    -27.74575    2.00000
  189    -27.74564    2.00000
  190    -27.74554    2.00000
  191    -27.74551    2.00000
  192    -27.74551    2.00000
  193    -27.74524    2.00000
  194    -27.74523    2.00000
  195    -27.74425    2.00000
  196    -27.74418    2.00000
  197    -27.74406    2.00000
  198    -27.74357    2.00000
  199    -27.74352    2.00000
  200    -27.74313    2.00000
  201    -27.74274    2.00000
  202    -27.74237    2.00000
  203    -27.74175    2.00000
  204    -27.74158    2.00000
  205    -27.74095    2.00000
  206    -27.74018    2.00000
  207    -27.73893    2.00000
  208    -27.73890    2.00000
  209    -27.73855    2.00000
  210    -27.73848    2.00000
  211    -27.73775    2.00000
  212    -27.73734    2.00000
  213    -27.73692    2.00000
  214    -27.73562    2.00000
  215    -27.73556    2.00000
  216    -27.73485    2.00000
  217    -27.73433    2.00000
  218    -27.73271    2.00000
  219     -5.93829    2.00000
  220     -5.45720    2.00000
  221     -5.44675    2.00000
  222     -5.39828    2.00000
  223     -4.98578    2.00000
  224     -4.97026    2.00000
  225     -4.93610    2.00000
  226     -4.91226    2.00000
  227     -4.54226    1.99997
  228     -4.50168    1.99997
  229     -4.49974    1.99997
  230     -4.49802    1.99996
  231     -4.48263    1.99996
  232     -4.44380    1.99995
  233     -4.43933    1.99995
  234     -4.08478    1.99945
  235     -4.03200    1.99922
  236     -4.02201    1.99916
  237     -3.98584    1.99893
  238     -3.97573    1.99886
  239     -3.96986    1.99881
  240     -3.96600    1.99878
  241     -3.96112    1.99874
  242     -3.59816    1.98594
  243     -3.52989    1.97792
  244     -3.51302    1.97533
  245     -3.50181    1.97344
  246     -3.31822    1.91247
  247     -3.12312    1.71226
  248     -3.11792    1.70362
  249     -3.11462    1.69802
  250     -3.10794    1.68642
  251     -3.09401    1.66108
  252     -3.07421    1.62228
  253     -3.06075    1.59402
  254     -3.04552    1.56017
  255     -2.86595    1.03452
  256     -2.79089    0.78762
  257     -2.62799    0.35969
  258     -2.61594    0.33661
  259     -2.59594    0.30092
  260     -2.58013    0.27496
  261     -2.57984    0.27450
  262     -2.57844    0.27229
  263     -2.43216    0.11220
  264     -2.37156    0.07633
  265     -2.22503    0.02944
  266     -2.18987    0.02336
  267     -2.18501    0.02262
  268     -1.98734    0.00611
  269     -1.97879    0.00577
  270     -1.96277    0.00519
  271     -1.92727    0.00410
  272     -1.88321    0.00306
  273     -1.80014    0.00176
  274     -1.78819    0.00162
  275     -1.78531    0.00159
  276     -1.75494    0.00130
  277     -1.75363    0.00129
  278     -1.75289    0.00128
  279     -1.75227    0.00128
  280     -1.74631    0.00123
  281     -1.74334    0.00120
  282     -1.70783    0.00095
  283     -1.68793    0.00083
  284     -1.68580    0.00082
  285     -1.48859    0.00022
  286     -1.45406    0.00018
  287     -1.43289    0.00015
  288     -1.39081    0.00011
  289     -1.33660    0.00008
  290     -1.29740    0.00006
  291     -1.09073    0.00002
  292     -1.08855    0.00002
  293     -1.08293    0.00001
  294     -1.06470    0.00001
  295     -1.06365    0.00001
  296     -1.05600    0.00001
  297     -1.02341    0.00001
  298     -0.93658    0.00001
  299     -0.88901    0.00000
  300     -0.87043    0.00000
  301     -0.84753    0.00000
  302     -0.84278    0.00000
  303     -0.79953    0.00000
  304     -0.75861    0.00000
  305     -0.64483    0.00000
  306     -0.64161    0.00000
  307     -0.63566    0.00000
  308     -0.58404    0.00000
  309     -0.56838    0.00000
  310     -0.50710    0.00000

Fermi level: -2.85559

Gap: 0.075 eV
Transition (v -> c):
  (s=0, k=0, n=255, [0.00, 0.00, 0.00]) -> (s=0, k=0, n=256, [0.00, 0.00, 0.00])
No difference between direct/indirect transitions

Forces in eV/Ang:
  0 Na   -0.00096    0.00000   -0.00430
  1 Na   -0.00008   -0.00602   -0.00166
  2 Na    0.00040    0.00000    0.00628
  3 Na    0.00171   -0.00308    0.00734
  4 Na    0.00278    0.00000   -0.01247
  5 Na    0.00023   -0.00727   -0.01989
  6 Na    0.00115    0.00000   -3.25004
  7 Na    0.02681   -0.02522    0.04893
  8 Na   -0.00769   -0.00382   -0.00029
  9 Na    0.00086    0.00000    0.01285
 10 Na    0.00023   -0.00254    0.01632
 11 Na    0.00190    0.00000    0.01724
 12 Na   -0.00519    0.00360   -0.01981
 13 Na    0.00038    0.00000   -0.01886
 14 Na   -0.00011   -0.04445    0.05158
 15 Na   -0.00309    0.00000    0.00703
 16 Na   -0.00769    0.00382   -0.00029
 17 Na   -0.00008    0.00602   -0.00166
 18 Na    0.00023    0.00254    0.01632
 19 Na    0.00171    0.00308    0.00734
 20 Na   -0.00519   -0.00360   -0.01981
 21 Na    0.00023    0.00727   -0.01989
 22 Na   -0.00011    0.04445    0.05158
 23 Na    0.02681    0.02522    0.04893
 24 Na    0.00009    0.00000   -0.00456
 25 Na    0.00233    0.00252   -0.00600
 26 Na   -0.00035    0.00000    0.00951
 27 Na    0.00022    0.00220    0.01241
 28 Na   -0.00331    0.00000   -0.01205
 29 Na    0.00005   -0.00070   -0.00853
 30 Na    0.00039    0.00000    0.00341
 31 Na   -0.02676   -0.02544    0.04878
 32 Na    0.00777   -0.00359   -0.00012
 33 Na    0.01052    0.00000   -0.01147
 34 Na    0.00411    0.00182    0.01537
 35 Na    0.00040    0.00000    0.01650
 36 Na    0.00500    0.00341   -0.01911
 37 Na    0.00038    0.00000   -0.01855
 38 Na    0.00259    0.00032    0.00326
 39 Na    0.00222    0.00000    0.00729
 40 Na    0.00777    0.00359   -0.00012
 41 Na    0.00233   -0.00252   -0.00600
 42 Na    0.00411   -0.00182    0.01537
 43 Na    0.00022   -0.00220    0.01241
 44 Na    0.00500   -0.00341   -0.01911
 45 Na    0.00005    0.00070   -0.00853
 46 Na    0.00259   -0.00032    0.00326
 47 Na   -0.02676    0.02544    0.04878
 48 Na    0.00086    0.00000   -0.00085
 49 Na   -0.00225    0.00229   -0.00583
 50 Na   -0.00008    0.00000    0.00919
 51 Na   -0.00195   -0.00327    0.00803
 52 Na    0.00039    0.00000   -0.00997
 53 Na   -0.00024   -0.00050   -0.00782
 54 Na   -0.00106    0.00000    0.00368
 55 Na   -0.00010   -0.00229    0.00339
 56 Na   -0.00008    0.00921   -0.01732
 57 Na   -0.01138    0.00000   -0.01173
 58 Na   -0.00434    0.00163    0.01467
 59 Na   -0.00231    0.00000    0.01754
 60 Na    0.00022    0.00249   -0.01795
 61 Na   -0.00076    0.00000   -0.01824
 62 Na   -0.00254    0.00056    0.00309
 63 Na    0.00085    0.00000    0.00523
 64 Na   -0.00008   -0.00921   -0.01732
 65 Na   -0.00225   -0.00229   -0.00583
 66 Na   -0.00434   -0.00163    0.01467
 67 Na   -0.00195    0.00327    0.00803
 68 Na    0.00022   -0.00249   -0.01795
 69 Na   -0.00024    0.00050   -0.00782
 70 Na   -0.00254   -0.00056    0.00309
 71 Na   -0.00010    0.00229    0.00339
 72 Na    0.00111    0.00000    3.04142

System changes: positions 

Initializing position-dependent things.

Density initialized from wave functions
         .-------------------------------------------.  
        /|                                           |  
       / |                                           |  
      /  |                                           |  
     /   |                                           |  
    /    |                                           |  
   /     |                                           |  
  /      |                                           |  
 *       |                                           |  
 |       |                                           |  
 |       |                                           |  
 |       |                                           |  
 |       |                                           |  
 |       |                                           |  
 |      Na            Na             Na              |  
 |       |    Na            Na             Na        |  
 |       |          Na            Na             Na  |  
 |       |     Na             Na            Na       |  
 |      Na Na             Na            Na           |  
 |Na     |       Na  Na         Na  Na            Na |  
 |      Na  Na         Na  Na         Na  Na         |  
 |      Na        Na  Na         Na  Na         Na   |  
 |       |                                           |  
 |       |Na  Na        Na  Na         Na  Na        |  
 Na  Na  |      Na  Na        Na  Na                 |  
 |       | Na  Na         Na  Na        Na  Na       |  
 |    Na |           Na             Na               |  
 |Na     |       Na             Na                   |  
 |      Na  Na         Na  Na         Na  Na         |  
 |  Na   |        Na             Na                  |  
 |       |Na            Na             Na            |  
 |       |                                           |  
 Na      |      Na            Na                     |  
 |       |                                           |  
 |       |                                           |  
 |       |                                           |  
 |       .-------------------------------------------.  
 |      /                                           /   
 |     /                                           /    
 |    /                                           /     
 |   /                                           /      
 |  /                                           /       
 | /                                           /        
 |/                                           /         
 *-------------------------------------------*          

Atomic positions and initial magnetic moments

Positions:
   0 Na     0.000000    0.000000   10.000000    ( 0.0000,  0.0000,  0.0000)
   1 Na     2.991062    2.115000   10.000000    ( 0.0000,  0.0000,  0.0000)
   2 Na     2.991062    0.000000   12.991062    ( 0.0000,  0.0000,  0.0000)
   3 Na     5.982123    2.115000   12.991062    ( 0.0000,  0.0000,  0.0000)
   4 Na     0.000040    0.000000   15.981945    ( 0.0000,  0.0000,  0.0000)
   5 Na     2.991065    2.114896   15.981839    ( 0.0000,  0.0000,  0.0000)
   6 Na     2.991078    0.000000   18.926756    ( 0.0000,  0.0000,  0.0000)
   7 Na     0.000383    2.114640   18.973884    ( 0.0000,  0.0000,  0.0000)
   8 Na     0.000000    4.230000   10.000000    ( 0.0000,  0.0000,  0.0000)
   9 Na     2.991062    6.345000   10.000000    ( 0.0000,  0.0000,  0.0000)
  10 Na     2.991062    4.230000   12.991062    ( 0.0000,  0.0000,  0.0000)
  11 Na     5.982123    6.345000   12.991062    ( 0.0000,  0.0000,  0.0000)
  12 Na    -0.000074    4.230051   15.981840    ( 0.0000,  0.0000,  0.0000)
  13 Na     2.991067    6.345000   15.981854    ( 0.0000,  0.0000,  0.0000)
  14 Na     2.991060    4.229365   18.973922    ( 0.0000,  0.0000,  0.0000)
  15 Na    -0.000044    6.345000   18.973285    ( 0.0000,  0.0000,  0.0000)
  16 Na     0.000000    8.460000   10.000000    ( 0.0000,  0.0000,  0.0000)
  17 Na     2.991062   10.575000   10.000000    ( 0.0000,  0.0000,  0.0000)
  18 Na     2.991062    8.460000   12.991062    ( 0.0000,  0.0000,  0.0000)
  19 Na     5.982123   10.575000   12.991062    ( 0.0000,  0.0000,  0.0000)
  20 Na    -0.000074    8.459949   15.981840    ( 0.0000,  0.0000,  0.0000)
  21 Na     2.991065   10.575104   15.981839    ( 0.0000,  0.0000,  0.0000)
  22 Na     2.991060    8.460635   18.973922    ( 0.0000,  0.0000,  0.0000)
  23 Na     0.000383   10.575360   18.973884    ( 0.0000,  0.0000,  0.0000)
  24 Na     5.982123    0.000000   10.000000    ( 0.0000,  0.0000,  0.0000)
  25 Na     8.973185    2.115000   10.000000    ( 0.0000,  0.0000,  0.0000)
  26 Na     8.973185    0.000000   12.991062    ( 0.0000,  0.0000,  0.0000)
  27 Na    11.964247    2.115000   12.991062    ( 0.0000,  0.0000,  0.0000)
  28 Na     5.982076    0.000000   15.981951    ( 0.0000,  0.0000,  0.0000)
  29 Na     8.973186    2.114990   15.982002    ( 0.0000,  0.0000,  0.0000)
  30 Na     8.973191    0.000000   18.973234    ( 0.0000,  0.0000,  0.0000)
  31 Na     5.981741    2.114637   18.973882    ( 0.0000,  0.0000,  0.0000)
  32 Na     5.982123    4.230000   10.000000    ( 0.0000,  0.0000,  0.0000)
  33 Na     8.973185    6.345000   10.000000    ( 0.0000,  0.0000,  0.0000)
  34 Na     8.973185    4.230000   12.991062    ( 0.0000,  0.0000,  0.0000)
  35 Na    11.964247    6.345000   12.991062    ( 0.0000,  0.0000,  0.0000)
  36 Na     5.982195    4.230049   15.981850    ( 0.0000,  0.0000,  0.0000)
  37 Na     8.973190    6.345000   15.981858    ( 0.0000,  0.0000,  0.0000)
  38 Na     8.973222    4.230005   18.973232    ( 0.0000,  0.0000,  0.0000)
  39 Na     5.982155    6.345000   18.973289    ( 0.0000,  0.0000,  0.0000)
  40 Na     5.982123    8.460000   10.000000    ( 0.0000,  0.0000,  0.0000)
  41 Na     8.973185   10.575000   10.000000    ( 0.0000,  0.0000,  0.0000)
  42 Na     8.973185    8.460000   12.991062    ( 0.0000,  0.0000,  0.0000)
  43 Na    11.964247   10.575000   12.991062    ( 0.0000,  0.0000,  0.0000)
  44 Na     5.982195    8.459951   15.981850    ( 0.0000,  0.0000,  0.0000)
  45 Na     8.973186   10.575010   15.982002    ( 0.0000,  0.0000,  0.0000)
  46 Na     8.973222    8.459995   18.973232    ( 0.0000,  0.0000,  0.0000)
  47 Na     5.981741   10.575363   18.973882    ( 0.0000,  0.0000,  0.0000)
  48 Na    11.964247    0.000000   10.000000    ( 0.0000,  0.0000,  0.0000)
  49 Na    14.955308    2.115000   10.000000    ( 0.0000,  0.0000,  0.0000)
  50 Na    14.955308    0.000000   12.991062    ( 0.0000,  0.0000,  0.0000)
  51 Na    17.946370    2.115000   12.991062    ( 0.0000,  0.0000,  0.0000)
  52 Na    11.964252    0.000000   15.981981    ( 0.0000,  0.0000,  0.0000)
  53 Na    14.955305    2.114993   15.982012    ( 0.0000,  0.0000,  0.0000)
  54 Na    14.955293    0.000000   18.973238    ( 0.0000,  0.0000,  0.0000)
  55 Na    11.964245    2.114967   18.973234    ( 0.0000,  0.0000,  0.0000)
  56 Na    11.964247    4.230000   10.000000    ( 0.0000,  0.0000,  0.0000)
  57 Na    14.955308    6.345000   10.000000    ( 0.0000,  0.0000,  0.0000)
  58 Na    14.955308    4.230000   12.991062    ( 0.0000,  0.0000,  0.0000)
  59 Na    17.946370    6.345000   12.991062    ( 0.0000,  0.0000,  0.0000)
  60 Na    11.964250    4.230036   15.981867    ( 0.0000,  0.0000,  0.0000)
  61 Na    14.955298    6.345000   15.981863    ( 0.0000,  0.0000,  0.0000)
  62 Na    14.955272    4.230008   18.973229    ( 0.0000,  0.0000,  0.0000)
  63 Na    11.964259    6.345000   18.973260    ( 0.0000,  0.0000,  0.0000)
  64 Na    11.964247    8.460000   10.000000    ( 0.0000,  0.0000,  0.0000)
  65 Na    14.955308   10.575000   10.000000    ( 0.0000,  0.0000,  0.0000)
  66 Na    14.955308    8.460000   12.991062    ( 0.0000,  0.0000,  0.0000)
  67 Na    17.946370   10.575000   12.991062    ( 0.0000,  0.0000,  0.0000)
  68 Na    11.964250    8.459964   15.981867    ( 0.0000,  0.0000,  0.0000)
  69 Na    14.955305   10.575007   15.982012    ( 0.0000,  0.0000,  0.0000)
  70 Na    14.955272    8.459992   18.973229    ( 0.0000,  0.0000,  0.0000)
  71 Na    11.964245   10.575033   18.973234    ( 0.0000,  0.0000,  0.0000)
  72 Na     2.991078    0.000000   21.016634    ( 0.0000,  0.0000,  0.0000)

Unit cell:
           periodic     x           y           z      points  spacing
  1. axis:    yes   17.946370    0.000000    0.000000    88     0.2039
  2. axis:    yes    0.000000   12.690000    0.000000    64     0.1983
  3. axis:    no     0.000000    0.000000   28.973185   144     0.2012

  Lengths:  17.946370  12.690000  28.973185
  Angles:   90.000000  90.000000  90.000000

Effective grid spacing dv^(1/3) = 0.2011

     iter     time        total  log10-change:
                         energy   eigst   dens
iter:   1 06:35:22   -86.762372        c
iter:   2 06:36:25   -86.756307        c -2.89
iter:   3 06:37:28   -86.755953c       c -3.18
iter:   4 06:38:32   -86.756910c       c -3.60
iter:   5 06:39:34   -86.755712c       c -3.70
iter:   6 06:40:32   -86.755561c       c -3.91
iter:   7 06:41:32   -86.755703c       c -4.01c

Converged after 7 iterations.

Dipole moment: (-20.959174, -14.477435, 0.112319) |e|*Ang

Energy contributions relative to reference atoms: (reference = -322558.566329)

Kinetic:       +148.934105
Potential:     -134.092442
External:        +0.000000
XC:            -100.520437
Entropy (-ST):   -2.626971
Local:           +0.236555
SIC:             +0.000000
--------------------------
Free energy:    -88.069189
Extrapolated:   -86.755703

 Band  Eigenvalues  Occupancy
    0    -29.54377    2.00000
    1    -29.08844    2.00000
    2    -29.08729    2.00000
    3    -28.41842    2.00000
    4    -28.41734    2.00000
    5    -28.35396    2.00000
    6    -27.99525    2.00000
    7    -27.98510    2.00000
    8    -27.97955    2.00000
    9    -27.97058    2.00000
   10    -27.97047    2.00000
   11    -27.96485    2.00000
   12    -27.96466    2.00000
   13    -27.96464    2.00000
   14    -27.96439    2.00000
   15    -27.96396    2.00000
   16    -27.96254    2.00000
   17    -27.96174    2.00000
   18    -27.96131    2.00000
   19    -27.96029    2.00000
   20    -27.96020    2.00000
   21    -27.95944    2.00000
   22    -27.95897    2.00000
   23    -27.95870    2.00000
   24    -27.95764    2.00000
   25    -27.95711    2.00000
   26    -27.95667    2.00000
   27    -27.95600    2.00000
   28    -27.95575    2.00000
   29    -27.95573    2.00000
   30    -27.95561    2.00000
   31    -27.95540    2.00000
   32    -27.95526    2.00000
   33    -27.95505    2.00000
   34    -27.95459    2.00000
   35    -27.95448    2.00000
   36    -27.95435    2.00000
   37    -27.95388    2.00000
   38    -27.95381    2.00000
   39    -27.95379    2.00000
   40    -27.95362    2.00000
   41    -27.95340    2.00000
   42    -27.95339    2.00000
   43    -27.95331    2.00000
   44    -27.95321    2.00000
   45    -27.95303    2.00000
   46    -27.95299    2.00000
   47    -27.95287    2.00000
   48    -27.95091    2.00000
   49    -27.95090    2.00000
   50    -27.95061    2.00000
   51    -27.95055    2.00000
   52    -27.95042    2.00000
   53    -27.94954    2.00000
   54    -27.94802    2.00000
   55    -27.94586    2.00000
   56    -27.94505    2.00000
   57    -27.94496    2.00000
   58    -27.94449    2.00000
   59    -27.94430    2.00000
   60    -27.94402    2.00000
   61    -27.94381    2.00000
   62    -27.94363    2.00000
   63    -27.94357    2.00000
   64    -27.94242    2.00000
   65    -27.94130    2.00000
   66    -27.94064    2.00000
   67    -27.94049    2.00000
   68    -27.94044    2.00000
   69    -27.93991    2.00000
   70    -27.93866    2.00000
   71    -27.93702    2.00000
   72    -27.93687    2.00000
   73    -27.93685    2.00000
   74    -27.93672    2.00000
   75    -27.93608    2.00000
   76    -27.93580    2.00000
   77    -27.93555    2.00000
   78    -27.93505    2.00000
   79    -27.93465    2.00000
   80    -27.93460    2.00000
   81    -27.93443    2.00000
   82    -27.93443    2.00000
   83    -27.93361    2.00000
   84    -27.93339    2.00000
   85    -27.93324    2.00000
   86    -27.93296    2.00000
   87    -27.93281    2.00000
   88    -27.93234    2.00000
   89    -27.92671    2.00000
   90    -27.92669    2.00000
   91    -27.92658    2.00000
   92    -27.92566    2.00000
   93    -27.92284    2.00000
   94    -27.92087    2.00000
   95    -27.91076    2.00000
   96    -27.91055    2.00000
   97    -27.90894    2.00000
   98    -27.90805    2.00000
   99    -27.90625    2.00000
  100    -27.90624    2.00000
  101    -27.90597    2.00000
  102    -27.90596    2.00000
  103    -27.89514    2.00000
  104    -27.89475    2.00000
  105    -27.89440    2.00000
  106    -27.89412    2.00000
  107    -27.88990    2.00000
  108    -27.88980    2.00000
  109    -27.88842    2.00000
  110    -27.88839    2.00000
  111    -27.78002    2.00000
  112    -27.77906    2.00000
  113    -27.77867    2.00000
  114    -27.77836    2.00000
  115    -27.77344    2.00000
  116    -27.77284    2.00000
  117    -27.77143    2.00000
  118    -27.77094    2.00000
  119    -27.77026    2.00000
  120    -27.76835    2.00000
  121    -27.76794    2.00000
  122    -27.76739    2.00000
  123    -27.76635    2.00000
  124    -27.76589    2.00000
  125    -27.76532    2.00000
  126    -27.76438    2.00000
  127    -27.76380    2.00000
  128    -27.76365    2.00000
  129    -27.76334    2.00000
  130    -27.76332    2.00000
  131    -27.76322    2.00000
  132    -27.76312    2.00000
  133    -27.76272    2.00000
  134    -27.76221    2.00000
  135    -27.76193    2.00000
  136    -27.76182    2.00000
  137    -27.76139    2.00000
  138    -27.76024    2.00000
  139    -27.76019    2.00000
  140    -27.75995    2.00000
  141    -27.75984    2.00000
  142    -27.75936    2.00000
  143    -27.75862    2.00000
  144    -27.75850    2.00000
  145    -27.75836    2.00000
  146    -27.75740    2.00000
  147    -27.75687    2.00000
  148    -27.75623    2.00000
  149    -27.75608    2.00000
  150    -27.75590    2.00000
  151    -27.75549    2.00000
  152    -27.75537    2.00000
  153    -27.75477    2.00000
  154    -27.75444    2.00000
  155    -27.75431    2.00000
  156    -27.75420    2.00000
  157    -27.75387    2.00000
  158    -27.75354    2.00000
  159    -27.75287    2.00000
  160    -27.75266    2.00000
  161    -27.75212    2.00000
  162    -27.75191    2.00000
  163    -27.75127    2.00000
  164    -27.75084    2.00000
  165    -27.75068    2.00000
  166    -27.75039    2.00000
  167    -27.75030    2.00000
  168    -27.75027    2.00000
  169    -27.75017    2.00000
  170    -27.74940    2.00000
  171    -27.74937    2.00000
  172    -27.74904    2.00000
  173    -27.74885    2.00000
  174    -27.74806    2.00000
  175    -27.74786    2.00000
  176    -27.74772    2.00000
  177    -27.74692    2.00000
  178    -27.74683    2.00000
  179    -27.74657    2.00000
  180    -27.74632    2.00000
  181    -27.74578    2.00000
  182    -27.74550    2.00000
  183    -27.74459    2.00000
  184    -27.74407    2.00000
  185    -27.74381    2.00000
  186    -27.74374    2.00000
  187    -27.74341    2.00000
  188    -27.74324    2.00000
  189    -27.74320    2.00000
  190    -27.74294    2.00000
  191    -27.74292    2.00000
  192    -27.74291    2.00000
  193    -27.74253    2.00000
  194    -27.74250    2.00000
  195    -27.74211    2.00000
  196    -27.74202    2.00000
  197    -27.74166    2.00000
  198    -27.74162    2.00000
  199    -27.74131    2.00000
  200    -27.74103    2.00000
  201    -27.74077    2.00000
  202    -27.74000    2.00000
  203    -27.73972    2.00000
  204    -27.73943    2.00000
  205    -27.73837    2.00000
  206    -27.73782    2.00000
  207    -27.73723    2.00000
  208    -27.73630    2.00000
  209    -27.73600    2.00000
  210    -27.73595    2.00000
  211    -27.73573    2.00000
  212    -27.73563    2.00000
  213    -27.73518    2.00000
  214    -27.73422    2.00000
  215    -27.73393    2.00000
  216    -27.73331    2.00000
  217    -27.73238    2.00000
  218    -27.73058    2.00000
  219     -5.93534    2.00000
  220     -5.45465    2.00000
  221     -5.44354    2.00000
  222     -5.39448    2.00000
  223     -4.98262    2.00000
  224     -4.96712    2.00000
  225     -4.93235    2.00000
  226     -4.90894    2.00000
  227     -4.53757    1.99997
  228     -4.49867    1.99997
  229     -4.49652    1.99997
  230     -4.49482    1.99996
  231     -4.47905    1.99996
  232     -4.44024    1.99995
  233     -4.43641    1.99995
  234     -4.07994    1.99944
  235     -4.02880    1.99922
  236     -4.01909    1.99916
  237     -3.98230    1.99893
  238     -3.97196    1.99885
  239     -3.96709    1.99882
  240     -3.96264    1.99878
  241     -3.95794    1.99874
  242     -3.59391    1.98585
  243     -3.52576    1.97780
  244     -3.50917    1.97524
  245     -3.49891    1.97351
  246     -3.31623    1.91320
  247     -3.12021    1.71291
  248     -3.11432    1.70313
  249     -3.11093    1.69736
  250     -3.10490    1.68688
  251     -3.09164    1.66283
  252     -3.06977    1.61997
  253     -3.05691    1.59287
  254     -3.04252    1.56087
  255     -2.86438    1.04030
  256     -2.78695    0.78557
  257     -2.62237    0.35518
  258     -2.61307    0.33743
  259     -2.59163    0.29920
  260     -2.57698    0.27520
  261     -2.57697    0.27518
  262     -2.57544    0.27276
  263     -2.43054    0.11340
  264     -2.36709    0.07576
  265     -2.22277    0.02964
  266     -2.18665    0.02337
  267     -2.18222    0.02270
  268     -1.98587    0.00618
  269     -1.97413    0.00572
  270     -1.95644    0.00508
  271     -1.92324    0.00408
  272     -1.88033    0.00306
  273     -1.79499    0.00174
  274     -1.78430    0.00162
  275     -1.78277    0.00160
  276     -1.75252    0.00131
  277     -1.75042    0.00129
  278     -1.74973    0.00128
  279     -1.74921    0.00128
  280     -1.74318    0.00123
  281     -1.74085    0.00121
  282     -1.70568    0.00096
  283     -1.68474    0.00083
  284     -1.68272    0.00082
  285     -1.48406    0.00022
  286     -1.45183    0.00018
  287     -1.43034    0.00015
  288     -1.38795    0.00012
  289     -1.33504    0.00008
  290     -1.29503    0.00006
  291     -1.08760    0.00002
  292     -1.08663    0.00002
  293     -1.07973    0.00001
  294     -1.06141    0.00001
  295     -1.06013    0.00001
  296     -1.05301    0.00001
  297     -1.02555    0.00001
  298     -0.93167    0.00001
  299     -0.88596    0.00000
  300     -0.86747    0.00000
  301     -0.84478    0.00000
  302     -0.84121    0.00000
  303     -0.79697    0.00000
  304     -0.76011    0.00000
  305     -0.63859    0.00000
  306     -0.63814    0.00000
  307     -0.63288    0.00000
  308     -0.58060    0.00000
  309     -0.56568    0.00000
  310     -0.50632    0.00000

Fermi level: -2.85229

Gap: 0.077 eV
Transition (v -> c):
  (s=0, k=0, n=255, [0.00, 0.00, 0.00]) -> (s=0, k=0, n=256, [0.00, 0.00, 0.00])
No difference between direct/indirect transitions

Forces in eV/Ang:
  0 Na    0.00020    0.00000   -0.00463
  1 Na   -0.00008   -0.00620   -0.00190
  2 Na    0.00040    0.00000    0.00489
  3 Na    0.00115   -0.00318    0.00595
  4 Na   -0.00018    0.00000   -0.01510
  5 Na    0.00022    0.00121   -0.02831
  6 Na    0.00123    0.00000   -2.69144
  7 Na    0.02997   -0.02764    0.05256
  8 Na   -0.00658   -0.00406   -0.00023
  9 Na    0.00086    0.00000    0.01282
 10 Na    0.00023   -0.00246    0.01445
 11 Na    0.00106    0.00000    0.01613
 12 Na   -0.00542    0.00468   -0.01909
 13 Na    0.00038    0.00000   -0.01870
 14 Na   -0.00010   -0.04402    0.05291
 15 Na   -0.00333    0.00000    0.00645
 16 Na   -0.00658    0.00406   -0.00023
 17 Na   -0.00008    0.00620   -0.00190
 18 Na    0.00023    0.00246    0.01445
 19 Na    0.00115    0.00318    0.00595
 20 Na   -0.00542   -0.00468   -0.01909
 21 Na    0.00022   -0.00121   -0.02831
 22 Na   -0.00010    0.04402    0.05291
 23 Na    0.02997    0.02764    0.05256
 24 Na   -0.00106    0.00000   -0.00489
 25 Na    0.00133    0.00230   -0.00617
 26 Na   -0.00155    0.00000    0.00866
 27 Na    0.00022    0.00214    0.01106
 28 Na   -0.00035    0.00000   -0.01470
 29 Na   -0.00005   -0.00054   -0.00730
 30 Na    0.00180    0.00000    0.00310
 31 Na   -0.02989   -0.02783    0.05238
 32 Na    0.00666   -0.00383   -0.00007
 33 Na    0.00933    0.00000   -0.01142
 34 Na    0.00339    0.00148    0.01482
 35 Na    0.00040    0.00000    0.01576
 36 Na    0.00523    0.00450   -0.01840
 37 Na   -0.00035    0.00000   -0.01650
 38 Na    0.00324    0.00079    0.00296
 39 Na    0.00248    0.00000    0.00672
 40 Na    0.00666    0.00383   -0.00007
 41 Na    0.00133   -0.00230   -0.00617
 42 Na    0.00339   -0.00148    0.01482
 43 Na    0.00022   -0.00214    0.01106
 44 Na    0.00523   -0.00450   -0.01840
 45 Na   -0.00005    0.00054   -0.00730
 46 Na    0.00324   -0.00079    0.00296
 47 Na   -0.02989    0.02783    0.05238
 48 Na    0.00086    0.00000   -0.00095
 49 Na   -0.00125    0.00207   -0.00600
 50 Na    0.00113    0.00000    0.00835
 51 Na   -0.00138   -0.00338    0.00664
 52 Na    0.00039    0.00000   -0.00754
 53 Na   -0.00014   -0.00035   -0.00660
 54 Na   -0.00249    0.00000    0.00337
 55 Na   -0.00010   -0.00162    0.00299
 56 Na   -0.00008    0.00887   -0.01715
 57 Na   -0.01019    0.00000   -0.01167
 58 Na   -0.00362    0.00129    0.01413
 59 Na   -0.00147    0.00000    0.01644
 60 Na    0.00021    0.00259   -0.01559
 61 Na   -0.00002    0.00000   -0.01620
 62 Na   -0.00319    0.00102    0.00279
 63 Na    0.00084    0.00000    0.00513
 64 Na   -0.00008   -0.00887   -0.01715
 65 Na   -0.00125   -0.00207   -0.00600
 66 Na   -0.00362   -0.00129    0.01413
 67 Na   -0.00138    0.00338    0.00664
 68 Na    0.00021   -0.00259   -0.01559
 69 Na   -0.00014    0.00035   -0.00660
 70 Na   -0.00319   -0.00102    0.00279
 71 Na   -0.00010    0.00162    0.00299
 72 Na    0.00031    0.00000    2.50623

System changes: positions 

Initializing position-dependent things.

Density initialized from wave functions
         .-------------------------------------------.  
        /|                                           |  
       / |                                           |  
      /  |                                           |  
     /   |                                           |  
    /    |                                           |  
   /     |                                           |  
  /      |                                           |  
 *       |                                           |  
 |       |                                           |  
 |       |                                           |  
 |       |                                           |  
 |       |                                           |  
 |       |                                           |  
 |      Na            Na             Na              |  
 |       |    Na            Na             Na        |  
 |       |          Na            Na             Na  |  
 |       |     Na             Na            Na       |  
 |      Na Na             Na            Na           |  
 |Na     |       Na  Na         Na  Na            Na |  
 |       |  Na         Na  Na         Na  Na         |  
 |      Na        Na  Na         Na  Na         Na   |  
 |       |                                           |  
 |       |Na  Na        Na  Na         Na  Na        |  
 Na  Na  |      Na  Na        Na  Na                 |  
 |       | Na  Na         Na  Na        Na  Na       |  
 |    Na |           Na             Na               |  
 |Na     |       Na             Na                   |  
 |      Na  Na         Na  Na         Na  Na         |  
 |  Na   |        Na             Na                  |  
 |       |Na            Na             Na            |  
 |       |                                           |  
 Na      |      Na            Na                     |  
 |       |                                           |  
 |       |                                           |  
 |       |                                           |  
 |       .-------------------------------------------.  
 |      /                                           /   
 |     /                                           /    
 |    /                                           /     
 |   /                                           /      
 |  /                                           /       
 | /                                           /        
 |/                                           /         
 *-------------------------------------------*          

Atomic positions and initial magnetic moments

Positions:
   0 Na     0.000000    0.000000   10.000000    ( 0.0000,  0.0000,  0.0000)
   1 Na     2.991062    2.115000   10.000000    ( 0.0000,  0.0000,  0.0000)
   2 Na     2.991062    0.000000   12.991062    ( 0.0000,  0.0000,  0.0000)
   3 Na     5.982123    2.115000   12.991062    ( 0.0000,  0.0000,  0.0000)
   4 Na     0.000027   -0.000000   15.980823    ( 0.0000,  0.0000,  0.0000)
   5 Na     2.991081    2.114986   15.979736    ( 0.0000,  0.0000,  0.0000)
   6 Na     2.991169    0.000000   18.726756    ( 0.0000,  0.0000,  0.0000)
   7 Na     0.002610    2.112586   18.977789    ( 0.0000,  0.0000,  0.0000)
   8 Na     0.000000    4.230000   10.000000    ( 0.0000,  0.0000,  0.0000)
   9 Na     2.991062    6.345000   10.000000    ( 0.0000,  0.0000,  0.0000)
  10 Na     2.991062    4.230000   12.991062    ( 0.0000,  0.0000,  0.0000)
  11 Na     5.982123    6.345000   12.991062    ( 0.0000,  0.0000,  0.0000)
  12 Na    -0.000477    4.230399   15.980422    ( 0.0000,  0.0000,  0.0000)
  13 Na     2.991096    6.345000   15.980464    ( 0.0000,  0.0000,  0.0000)
  14 Na     2.991053    4.226095   18.977853    ( 0.0000,  0.0000,  0.0000)
  15 Na    -0.000291    6.345000   18.973765    ( 0.0000,  0.0000,  0.0000)
  16 Na     0.000000    8.460000   10.000000    ( 0.0000,  0.0000,  0.0000)
  17 Na     2.991062   10.575000   10.000000    ( 0.0000,  0.0000,  0.0000)
  18 Na     2.991062    8.460000   12.991062    ( 0.0000,  0.0000,  0.0000)
  19 Na     5.982123   10.575000   12.991062    ( 0.0000,  0.0000,  0.0000)
  20 Na    -0.000477    8.459601   15.980422    ( 0.0000,  0.0000,  0.0000)
  21 Na     2.991081   10.575014   15.979736    ( 0.0000,  0.0000,  0.0000)
  22 Na     2.991053    8.463905   18.977853    ( 0.0000,  0.0000,  0.0000)
  23 Na     0.002610   10.577414   18.977789    ( 0.0000,  0.0000,  0.0000)
  24 Na     5.982123    0.000000   10.000000    ( 0.0000,  0.0000,  0.0000)
  25 Na     8.973185    2.115000   10.000000    ( 0.0000,  0.0000,  0.0000)
  26 Na     8.973185    0.000000   12.991062    ( 0.0000,  0.0000,  0.0000)
  27 Na    11.964247    2.115000   12.991062    ( 0.0000,  0.0000,  0.0000)
  28 Na     5.982050   -0.000000   15.980859    ( 0.0000,  0.0000,  0.0000)
  29 Na     8.973182    2.114950   15.981459    ( 0.0000,  0.0000,  0.0000)
  30 Na     8.973325    0.000000   18.973464    ( 0.0000,  0.0000,  0.0000)
  31 Na     5.979520    2.112569   18.977774    ( 0.0000,  0.0000,  0.0000)
  32 Na     5.982123    4.230000   10.000000    ( 0.0000,  0.0000,  0.0000)
  33 Na     8.973185    6.345000   10.000000    ( 0.0000,  0.0000,  0.0000)
  34 Na     8.973185    4.230000   12.991062    ( 0.0000,  0.0000,  0.0000)
  35 Na    11.964247    6.345000   12.991062    ( 0.0000,  0.0000,  0.0000)
  36 Na     5.982584    4.230383   15.980483    ( 0.0000,  0.0000,  0.0000)
  37 Na     8.973164    6.345000   15.980632    ( 0.0000,  0.0000,  0.0000)
  38 Na     8.973463    4.230063   18.973451    ( 0.0000,  0.0000,  0.0000)
  39 Na     5.982339    6.345000   18.973788    ( 0.0000,  0.0000,  0.0000)
  40 Na     5.982123    8.460000   10.000000    ( 0.0000,  0.0000,  0.0000)
  41 Na     8.973185   10.575000   10.000000    ( 0.0000,  0.0000,  0.0000)
  42 Na     8.973185    8.460000   12.991062    ( 0.0000,  0.0000,  0.0000)
  43 Na    11.964247   10.575000   12.991062    ( 0.0000,  0.0000,  0.0000)
  44 Na     5.982584    8.459617   15.980483    ( 0.0000,  0.0000,  0.0000)
  45 Na     8.973182   10.575050   15.981459    ( 0.0000,  0.0000,  0.0000)
  46 Na     8.973463    8.459937   18.973451    ( 0.0000,  0.0000,  0.0000)
  47 Na     5.979520   10.577431   18.977774    ( 0.0000,  0.0000,  0.0000)
  48 Na    11.964247    0.000000   10.000000    ( 0.0000,  0.0000,  0.0000)
  49 Na    14.955308    2.115000   10.000000    ( 0.0000,  0.0000,  0.0000)
  50 Na    14.955308    0.000000   12.991062    ( 0.0000,  0.0000,  0.0000)
  51 Na    17.946370    2.115000   12.991062    ( 0.0000,  0.0000,  0.0000)
  52 Na    11.964281    0.000000   15.981421    ( 0.0000,  0.0000,  0.0000)
  53 Na    14.955295    2.114967   15.981521    ( 0.0000,  0.0000,  0.0000)
  54 Na    14.955109    0.000000   18.973488    ( 0.0000,  0.0000,  0.0000)
  55 Na    11.964238    2.114847   18.973456    ( 0.0000,  0.0000,  0.0000)
  56 Na    11.964247    4.230000   10.000000    ( 0.0000,  0.0000,  0.0000)
  57 Na    14.955308    6.345000   10.000000    ( 0.0000,  0.0000,  0.0000)
  58 Na    14.955308    4.230000   12.991062    ( 0.0000,  0.0000,  0.0000)
  59 Na    17.946370    6.345000   12.991062    ( 0.0000,  0.0000,  0.0000)
  60 Na    11.964266    4.230228   15.980708    ( 0.0000,  0.0000,  0.0000)
  61 Na    14.955296    6.345000   15.980659    ( 0.0000,  0.0000,  0.0000)
  62 Na    14.955035    4.230084   18.973437    ( 0.0000,  0.0000,  0.0000)
  63 Na    11.964321    6.345000   18.973641    ( 0.0000,  0.0000,  0.0000)
  64 Na    11.964247    8.460000   10.000000    ( 0.0000,  0.0000,  0.0000)
  65 Na    14.955308   10.575000   10.000000    ( 0.0000,  0.0000,  0.0000)
  66 Na    14.955308    8.460000   12.991062    ( 0.0000,  0.0000,  0.0000)
  67 Na    17.946370   10.575000   12.991062    ( 0.0000,  0.0000,  0.0000)
  68 Na    11.964266    8.459772   15.980708    ( 0.0000,  0.0000,  0.0000)
  69 Na    14.955295   10.575033   15.981521    ( 0.0000,  0.0000,  0.0000)
  70 Na    14.955035    8.459916   18.973437    ( 0.0000,  0.0000,  0.0000)
  71 Na    11.964238   10.575153   18.973456    ( 0.0000,  0.0000,  0.0000)
  72 Na     2.991101    0.000000   21.202872    ( 0.0000,  0.0000,  0.0000)

Unit cell:
           periodic     x           y           z      points  spacing
  1. axis:    yes   17.946370    0.000000    0.000000    88     0.2039
  2. axis:    yes    0.000000   12.690000    0.000000    64     0.1983
  3. axis:    no     0.000000    0.000000   28.973185   144     0.2012

  Lengths:  17.946370  12.690000  28.973185
  Angles:   90.000000  90.000000  90.000000

Effective grid spacing dv^(1/3) = 0.2011

     iter     time        total  log10-change:
                         energy   eigst   dens
iter:   1 06:45:24   -87.682553        c
iter:   2 06:46:31   -87.476513        c -2.17
iter:   3 06:47:32   -87.447950c       c -2.49
iter:   4 06:48:32   -87.439467c       c -2.94
iter:   5 06:49:30   -87.432175c       c -3.06
iter:   6 06:50:27   -87.429469c       c -3.30
iter:   7 06:51:35   -87.429730c       c -3.37
iter:   8 06:52:32   -87.429511c       c -3.53
iter:   9 06:53:30   -87.429408c       c -3.74
iter:  10 06:54:30   -87.429004c       c -3.80
iter:  11 06:55:29   -87.428879c       c -3.94
iter:  12 06:56:25   -87.429072c       c -4.14c

Converged after 12 iterations.

Dipole moment: (-21.183885, -14.469335, 0.202404) |e|*Ang

Energy contributions relative to reference atoms: (reference = -322558.566329)

Kinetic:       +146.196396
Potential:     -132.423677
External:        +0.000000
XC:            -100.130027
Entropy (-ST):   -2.626664
Local:           +0.241569
SIC:             +0.000000
--------------------------
Free energy:    -88.742405
Extrapolated:   -87.429072

 Band  Eigenvalues  Occupancy
    0    -28.79432    2.00000
    1    -28.66158    2.00000
    2    -28.65996    2.00000
    3    -28.00048    2.00000
    4    -27.97602    2.00000
    5    -27.96585    2.00000
    6    -27.96021    2.00000
    7    -27.94826    2.00000
    8    -27.94807    2.00000
    9    -27.94622    2.00000
   10    -27.94608    2.00000
   11    -27.94603    2.00000
   12    -27.94582    2.00000
   13    -27.94356    2.00000
   14    -27.94226    2.00000
   15    -27.94178    2.00000
   16    -27.94164    2.00000
   17    -27.94149    2.00000
   18    -27.94139    2.00000
   19    -27.94121    2.00000
   20    -27.94060    2.00000
   21    -27.93968    2.00000
   22    -27.93950    2.00000
   23    -27.93939    2.00000
   24    -27.93924    2.00000
   25    -27.93865    2.00000
   26    -27.93829    2.00000
   27    -27.93694    2.00000
   28    -27.93673    2.00000
   29    -27.93666    2.00000
   30    -27.93633    2.00000
   31    -27.93597    2.00000
   32    -27.93585    2.00000
   33    -27.93545    2.00000
   34    -27.93531    2.00000
   35    -27.93497    2.00000
   36    -27.93484    2.00000
   37    -27.93480    2.00000
   38    -27.93452    2.00000
   39    -27.93446    2.00000
   40    -27.93437    2.00000
   41    -27.93434    2.00000
   42    -27.93405    2.00000
   43    -27.93389    2.00000
   44    -27.93333    2.00000
   45    -27.93217    2.00000
   46    -27.93204    2.00000
   47    -27.93183    2.00000
   48    -27.93177    2.00000
   49    -27.93148    2.00000
   50    -27.93094    2.00000
   51    -27.93092    2.00000
   52    -27.93079    2.00000
   53    -27.92886    2.00000
   54    -27.92880    2.00000
   55    -27.92842    2.00000
   56    -27.92710    2.00000
   57    -27.92671    2.00000
   58    -27.92555    2.00000
   59    -27.92538    2.00000
   60    -27.92527    2.00000
   61    -27.92469    2.00000
   62    -27.92435    2.00000
   63    -27.92426    2.00000
   64    -27.92246    2.00000
   65    -27.92216    2.00000
   66    -27.92207    2.00000
   67    -27.92120    2.00000
   68    -27.92102    2.00000
   69    -27.92047    2.00000
   70    -27.92031    2.00000
   71    -27.92021    2.00000
   72    -27.91936    2.00000
   73    -27.91883    2.00000
   74    -27.91863    2.00000
   75    -27.91745    2.00000
   76    -27.91675    2.00000
   77    -27.91660    2.00000
   78    -27.91602    2.00000
   79    -27.91556    2.00000
   80    -27.91552    2.00000
   81    -27.91551    2.00000
   82    -27.91549    2.00000
   83    -27.91375    2.00000
   84    -27.91359    2.00000
   85    -27.91326    2.00000
   86    -27.91247    2.00000
   87    -27.91220    2.00000
   88    -27.91170    2.00000
   89    -27.90969    2.00000
   90    -27.90896    2.00000
   91    -27.90835    2.00000
   92    -27.90829    2.00000
   93    -27.90582    2.00000
   94    -27.90428    2.00000
   95    -27.90058    2.00000
   96    -27.90031    2.00000
   97    -27.90029    2.00000
   98    -27.90016    2.00000
   99    -27.89294    2.00000
  100    -27.89266    2.00000
  101    -27.89093    2.00000
  102    -27.88992    2.00000
  103    -27.88915    2.00000
  104    -27.88870    2.00000
  105    -27.88849    2.00000
  106    -27.88829    2.00000
  107    -27.88462    2.00000
  108    -27.88337    2.00000
  109    -27.88313    2.00000
  110    -27.88267    2.00000
  111    -27.76227    2.00000
  112    -27.76154    2.00000
  113    -27.76138    2.00000
  114    -27.76058    2.00000
  115    -27.75801    2.00000
  116    -27.75693    2.00000
  117    -27.75318    2.00000
  118    -27.75280    2.00000
  119    -27.75242    2.00000
  120    -27.75095    2.00000
  121    -27.75085    2.00000
  122    -27.74889    2.00000
  123    -27.74854    2.00000
  124    -27.74833    2.00000
  125    -27.74780    2.00000
  126    -27.74558    2.00000
  127    -27.74501    2.00000
  128    -27.74456    2.00000
  129    -27.74432    2.00000
  130    -27.74431    2.00000
  131    -27.74389    2.00000
  132    -27.74355    2.00000
  133    -27.74328    2.00000
  134    -27.74310    2.00000
  135    -27.74304    2.00000
  136    -27.74274    2.00000
  137    -27.74202    2.00000
  138    -27.74128    2.00000
  139    -27.74112    2.00000
  140    -27.74094    2.00000
  141    -27.74059    2.00000
  142    -27.74035    2.00000
  143    -27.74016    2.00000
  144    -27.73952    2.00000
  145    -27.73947    2.00000
  146    -27.73890    2.00000
  147    -27.73864    2.00000
  148    -27.73844    2.00000
  149    -27.73801    2.00000
  150    -27.73708    2.00000
  151    -27.73699    2.00000
  152    -27.73674    2.00000
  153    -27.73582    2.00000
  154    -27.73572    2.00000
  155    -27.73542    2.00000
  156    -27.73527    2.00000
  157    -27.73442    2.00000
  158    -27.73441    2.00000
  159    -27.73417    2.00000
  160    -27.73327    2.00000
  161    -27.73314    2.00000
  162    -27.73252    2.00000
  163    -27.73215    2.00000
  164    -27.73133    2.00000
  165    -27.73122    2.00000
  166    -27.73107    2.00000
  167    -27.73101    2.00000
  168    -27.73056    2.00000
  169    -27.73048    2.00000
  170    -27.73026    2.00000
  171    -27.72964    2.00000
  172    -27.72946    2.00000
  173    -27.72920    2.00000
  174    -27.72895    2.00000
  175    -27.72812    2.00000
  176    -27.72798    2.00000
  177    -27.72766    2.00000
  178    -27.72762    2.00000
  179    -27.72761    2.00000
  180    -27.72713    2.00000
  181    -27.72651    2.00000
  182    -27.72622    2.00000
  183    -27.72582    2.00000
  184    -27.72579    2.00000
  185    -27.72557    2.00000
  186    -27.72547    2.00000
  187    -27.72458    2.00000
  188    -27.72431    2.00000
  189    -27.72313    2.00000
  190    -27.72303    2.00000
  191    -27.72284    2.00000
  192    -27.72241    2.00000
  193    -27.72213    2.00000
  194    -27.72176    2.00000
  195    -27.72170    2.00000
  196    -27.72115    2.00000
  197    -27.72081    2.00000
  198    -27.72036    2.00000
  199    -27.72004    2.00000
  200    -27.71970    2.00000
  201    -27.71940    2.00000
  202    -27.71920    2.00000
  203    -27.71914    2.00000
  204    -27.71840    2.00000
  205    -27.71722    2.00000
  206    -27.71694    2.00000
  207    -27.71674    2.00000
  208    -27.71670    2.00000
  209    -27.71490    2.00000
  210    -27.71489    2.00000
  211    -27.71487    2.00000
  212    -27.71363    2.00000
  213    -27.71315    2.00000
  214    -27.71295    2.00000
  215    -27.71229    2.00000
  216    -27.70975    2.00000
  217    -27.70872    2.00000
  218    -27.70629    2.00000
  219     -5.91730    2.00000
  220     -5.43737    2.00000
  221     -5.42428    2.00000
  222     -5.37383    2.00000
  223     -4.96411    2.00000
  224     -4.94821    2.00000
  225     -4.91044    2.00000
  226     -4.88902    2.00000
  227     -4.51197    1.99997
  228     -4.48017    1.99997
  229     -4.47739    1.99997
  230     -4.47539    1.99996
  231     -4.45863    1.99996
  232     -4.42004    1.99995
  233     -4.41866    1.99995
  234     -4.05098    1.99940
  235     -4.01003    1.99922
  236     -4.00096    1.99917
  237     -3.96176    1.99892
  238     -3.95102    1.99884
  239     -3.95010    1.99883
  240     -3.94277    1.99878
  241     -3.93828    1.99874
  242     -3.57025    1.98542
  243     -3.50352    1.97735
  244     -3.48796    1.97491
  245     -3.48100    1.97373
  246     -3.30351    1.91671
  247     -3.10153    1.71373
  248     -3.09458    1.70217
  249     -3.09018    1.69465
  250     -3.08631    1.68792
  251     -3.07512    1.66777
  252     -3.04562    1.60967
  253     -3.03511    1.58717
  254     -3.02394    1.56225
  255     -2.85274    1.06535
  256     -2.76604    0.78008
  257     -2.59515    0.33979
  258     -2.59386    0.33738
  259     -2.56835    0.29232
  260     -2.55942    0.27777
  261     -2.55804    0.27558
  262     -2.55739    0.27454
  263     -2.42116    0.12059
  264     -2.34488    0.07431
  265     -2.20983    0.03088
  266     -2.16741    0.02336
  267     -2.16490    0.02298
  268     -1.97339    0.00646
  269     -1.95085    0.00556
  270     -1.92603    0.00472
  271     -1.90132    0.00400
  272     -1.86296    0.00310
  273     -1.76915    0.00166
  274     -1.76786    0.00165
  275     -1.76188    0.00158
  276     -1.73686    0.00134
  277     -1.73119    0.00129
  278     -1.73089    0.00129
  279     -1.73080    0.00129
  280     -1.72428    0.00123
  281     -1.72376    0.00123
  282     -1.69167    0.00099
  283     -1.66544    0.00083
  284     -1.66415    0.00082
  285     -1.46003    0.00021
  286     -1.44006    0.00019
  287     -1.41451    0.00016
  288     -1.37017    0.00012
  289     -1.32803    0.00009
  290     -1.28219    0.00006
  291     -1.07567    0.00002
  292     -1.06932    0.00002
  293     -1.06074    0.00001
  294     -1.04242    0.00001
  295     -1.03964    0.00001
  296     -1.03698    0.00001
  297     -1.03419    0.00001
  298     -0.90643    0.00001
  299     -0.86798    0.00000
  300     -0.84945    0.00000
  301     -0.82994    0.00000
  302     -0.82934    0.00000
  303     -0.78140    0.00000
  304     -0.76159    0.00000
  305     -0.61774    0.00000
  306     -0.61569    0.00000
  307     -0.60763    0.00000
  308     -0.56063    0.00000
  309     -0.54930    0.00000
  310     -0.50093    0.00000

Fermi level: -2.83311

Gap: 0.087 eV
Transition (v -> c):
  (s=0, k=0, n=255, [0.00, 0.00, 0.00]) -> (s=0, k=0, n=256, [0.00, 0.00, 0.00])
No difference between direct/indirect transitions

Forces in eV/Ang:
  0 Na    0.00010    0.00000   -0.00675
  1 Na   -0.00008   -0.00532   -0.00396
  2 Na    0.00040    0.00000    0.01153
  3 Na    0.00165   -0.00272    0.00736
  4 Na   -0.00703    0.00000   -0.02354
  5 Na    0.00017    0.03285   -0.07081
  6 Na    0.00106    0.00000   -1.12198
  7 Na    0.02956   -0.02810    0.04941
  8 Na   -0.00636   -0.00390   -0.00085
  9 Na    0.00086    0.00000    0.01126
 10 Na    0.00023   -0.00302    0.01072
 11 Na    0.00349    0.00000    0.01448
 12 Na   -0.00413    0.00000   -0.01311
 13 Na    0.00038    0.00000   -0.01123
 14 Na   -0.00008   -0.03509    0.04409
 15 Na   -0.00238    0.00000    0.00489
 16 Na   -0.00636    0.00390   -0.00085
 17 Na   -0.00008    0.00532   -0.00396
 18 Na    0.00023    0.00302    0.01072
 19 Na    0.00165    0.00272    0.00736
 20 Na   -0.00413   -0.00000   -0.01311
 21 Na    0.00017   -0.03285   -0.07081
 22 Na   -0.00008    0.03509    0.04409
 23 Na    0.02956    0.02810    0.04941
 24 Na   -0.00096    0.00000   -0.00701
 25 Na    0.00218    0.00224   -0.00703
 26 Na   -0.00126    0.00000    0.01055
 27 Na    0.00022    0.00268    0.00955
 28 Na    0.00654    0.00000   -0.02324
 29 Na   -0.00166   -0.00213   -0.00673
 30 Na    0.00149    0.00000    0.00189
 31 Na   -0.02932   -0.02820    0.04909
 32 Na    0.00644   -0.00367   -0.00068
 33 Na    0.00976    0.00000   -0.00957
 34 Na    0.00434    0.00262    0.01405
 35 Na    0.00040    0.00000    0.01442
 36 Na    0.00397   -0.00013   -0.01249
 37 Na   -0.00047    0.00000   -0.01570
 38 Na    0.00074   -0.00094    0.00306
 39 Na    0.00160    0.00000    0.00517
 40 Na    0.00644    0.00367   -0.00068
 41 Na    0.00218   -0.00224   -0.00703
 42 Na    0.00434   -0.00262    0.01405
 43 Na    0.00022   -0.00268    0.00955
 44 Na    0.00397    0.00013   -0.01249
 45 Na   -0.00166    0.00213   -0.00673
 46 Na    0.00074    0.00094    0.00306
 47 Na   -0.02932    0.02820    0.04909
 48 Na    0.00086    0.00000   -0.00230
 49 Na   -0.00210    0.00201   -0.00686
 50 Na    0.00084    0.00000    0.01027
 51 Na   -0.00189   -0.00291    0.00804
 52 Na    0.00036    0.00000   -0.00774
 53 Na    0.00150   -0.00196   -0.00607
 54 Na   -0.00219    0.00000    0.00216
 55 Na   -0.00009   -0.00233    0.00420
 56 Na   -0.00008    0.00859   -0.01594
 57 Na   -0.01063    0.00000   -0.00983
 58 Na   -0.00457    0.00243    0.01337
 59 Na   -0.00390    0.00000    0.01477
 60 Na    0.00017    0.00286   -0.01513
 61 Na    0.00011    0.00000   -0.01543
 62 Na   -0.00067   -0.00075    0.00291
 63 Na    0.00078    0.00000    0.00425
 64 Na   -0.00008   -0.00859   -0.01594
 65 Na   -0.00210   -0.00201   -0.00686
 66 Na   -0.00457   -0.00243    0.01337
 67 Na   -0.00189    0.00291    0.00804
 68 Na    0.00017   -0.00286   -0.01513
 69 Na    0.00150    0.00196   -0.00607
 70 Na   -0.00067    0.00075    0.00291
 71 Na   -0.00009    0.00233    0.00420
 72 Na    0.00039    0.00000    1.02128

System changes: positions 

Initializing position-dependent things.

Density initialized from wave functions
         .-------------------------------------------.  
        /|                                           |  
       / |                                           |  
      /  |                                           |  
     /   |                                           |  
    /    |                                           |  
   /     |                                           |  
  /      |                                           |  
 *       |                                           |  
 |       |                                           |  
 |       |                                           |  
 |       |                                           |  
 |       |                                           |  
 |       |                                           |  
 |      Na            Na             Na              |  
 |       |    Na            Na             Na        |  
 |       |          Na            Na             Na  |  
 |      Na     Na             Na            Na       |  
 |       | Na             Na            Na           |  
 |Na     |       Na  Na         Na  Na            Na |  
 |       |  Na         Na  Na         Na  Na         |  
 |      Na        Na  Na         Na  Na         Na   |  
 |       |                                           |  
 |       |Na  Na        Na  Na         Na  Na        |  
 |   Na  |      Na  Na        Na  Na         Na      |  
 |       | Na  Na         Na  Na        Na  Na       |  
 |    Na |           Na             Na               |  
 |Na     |       Na             Na                   |  
 |      Na  Na         Na  Na         Na  Na         |  
 |  Na   |        Na             Na                  |  
 |       |Na            Na             Na            |  
 |       |                                           |  
 Na      |      Na            Na                     |  
 |       |                                           |  
 |       |                                           |  
 |       |                                           |  
 |       .-------------------------------------------.  
 |      /                                           /   
 |     /                                           /    
 |    /                                           /     
 |   /                                           /      
 |  /                                           /       
 | /                                           /        
 |/                                           /         
 *-------------------------------------------*          

Atomic positions and initial magnetic moments

Positions:
   0 Na     0.000000    0.000000   10.000000    ( 0.0000,  0.0000,  0.0000)
   1 Na     2.991062    2.115000   10.000000    ( 0.0000,  0.0000,  0.0000)
   2 Na     2.991062    0.000000   12.991062    ( 0.0000,  0.0000,  0.0000)
   3 Na     5.982123    2.115000   12.991062    ( 0.0000,  0.0000,  0.0000)
   4 Na    -0.000152   -0.000000   15.979609    ( 0.0000,  0.0000,  0.0000)
   5 Na     2.991094    2.115838   15.976809    ( 0.0000,  0.0000,  0.0000)
   6 Na     2.991247    0.000000   18.585180    ( 0.0000,  0.0000,  0.0000)
   7 Na     0.004602    2.110729   18.981223    ( 0.0000,  0.0000,  0.0000)
   8 Na     0.000000    4.230000   10.000000    ( 0.0000,  0.0000,  0.0000)
   9 Na     2.991062    6.345000   10.000000    ( 0.0000,  0.0000,  0.0000)
  10 Na     2.991062    4.230000   12.991062    ( 0.0000,  0.0000,  0.0000)
  11 Na     5.982123    6.345000   12.991062    ( 0.0000,  0.0000,  0.0000)
  12 Na    -0.000808    4.230598   15.979293    ( 0.0000,  0.0000,  0.0000)
  13 Na     2.991121    6.345000   15.979397    ( 0.0000,  0.0000,  0.0000)
  14 Na     2.991046    4.223372   18.981172    ( 0.0000,  0.0000,  0.0000)
  15 Na    -0.000491    6.345000   18.974157    ( 0.0000,  0.0000,  0.0000)
  16 Na     0.000000    8.460000   10.000000    ( 0.0000,  0.0000,  0.0000)
  17 Na     2.991062   10.575000   10.000000    ( 0.0000,  0.0000,  0.0000)
  18 Na     2.991062    8.460000   12.991062    ( 0.0000,  0.0000,  0.0000)
  19 Na     5.982123   10.575000   12.991062    ( 0.0000,  0.0000,  0.0000)
  20 Na    -0.000808    8.459402   15.979293    ( 0.0000,  0.0000,  0.0000)
  21 Na     2.991094   10.574162   15.976809    ( 0.0000,  0.0000,  0.0000)
  22 Na     2.991046    8.466628   18.981172    ( 0.0000,  0.0000,  0.0000)
  23 Na     0.004602   10.579271   18.981223    ( 0.0000,  0.0000,  0.0000)
  24 Na     5.982123    0.000000   10.000000    ( 0.0000,  0.0000,  0.0000)
  25 Na     8.973185    2.115000   10.000000    ( 0.0000,  0.0000,  0.0000)
  26 Na     8.973185    0.000000   12.991062    ( 0.0000,  0.0000,  0.0000)
  27 Na    11.964247    2.115000   12.991062    ( 0.0000,  0.0000,  0.0000)
  28 Na     5.982195   -0.000000   15.979669    ( 0.0000,  0.0000,  0.0000)
  29 Na     8.973139    2.114875   15.980985    ( 0.0000,  0.0000,  0.0000)
  30 Na     8.973437    0.000000   18.973642    ( 0.0000,  0.0000,  0.0000)
  31 Na     5.977538    2.110700   18.981193    ( 0.0000,  0.0000,  0.0000)
  32 Na     5.982123    4.230000   10.000000    ( 0.0000,  0.0000,  0.0000)
  33 Na     8.973185    6.345000   10.000000    ( 0.0000,  0.0000,  0.0000)
  34 Na     8.973185    4.230000   12.991062    ( 0.0000,  0.0000,  0.0000)
  35 Na    11.964247    6.345000   12.991062    ( 0.0000,  0.0000,  0.0000)
  36 Na     5.982903    4.230571   15.979398    ( 0.0000,  0.0000,  0.0000)
  37 Na     8.973138    6.345000   15.979549    ( 0.0000,  0.0000,  0.0000)
  38 Na     8.973618    4.230073   18.973652    ( 0.0000,  0.0000,  0.0000)
  39 Na     5.982483    6.345000   18.974199    ( 0.0000,  0.0000,  0.0000)
  40 Na     5.982123    8.460000   10.000000    ( 0.0000,  0.0000,  0.0000)
  41 Na     8.973185   10.575000   10.000000    ( 0.0000,  0.0000,  0.0000)
  42 Na     8.973185    8.460000   12.991062    ( 0.0000,  0.0000,  0.0000)
  43 Na    11.964247   10.575000   12.991062    ( 0.0000,  0.0000,  0.0000)
  44 Na     5.982903    8.459429   15.979398    ( 0.0000,  0.0000,  0.0000)
  45 Na     8.973139   10.575125   15.980985    ( 0.0000,  0.0000,  0.0000)
  46 Na     8.973618    8.459927   18.973652    ( 0.0000,  0.0000,  0.0000)
  47 Na     5.977538   10.579300   18.981193    ( 0.0000,  0.0000,  0.0000)
  48 Na    11.964247    0.000000   10.000000    ( 0.0000,  0.0000,  0.0000)
  49 Na    14.955308    2.115000   10.000000    ( 0.0000,  0.0000,  0.0000)
  50 Na    14.955308    0.000000   12.991062    ( 0.0000,  0.0000,  0.0000)
  51 Na    17.946370    2.115000   12.991062    ( 0.0000,  0.0000,  0.0000)
  52 Na    11.964306   -0.000000   15.980912    ( 0.0000,  0.0000,  0.0000)
  53 Na    14.955326    2.114904   15.981093    ( 0.0000,  0.0000,  0.0000)
  54 Na    14.954950    0.000000   18.973684    ( 0.0000,  0.0000,  0.0000)
  55 Na    11.964232    2.114721   18.973685    ( 0.0000,  0.0000,  0.0000)
  56 Na    11.964247    4.230000   10.000000    ( 0.0000,  0.0000,  0.0000)
  57 Na    14.955308    6.345000   10.000000    ( 0.0000,  0.0000,  0.0000)
  58 Na    14.955308    4.230000   12.991062    ( 0.0000,  0.0000,  0.0000)
  59 Na    17.946370    6.345000   12.991062    ( 0.0000,  0.0000,  0.0000)
  60 Na    11.964279    4.230407   15.979678    ( 0.0000,  0.0000,  0.0000)
  61 Na    14.955298    6.345000   15.979596    ( 0.0000,  0.0000,  0.0000)
  62 Na    14.954884    4.230109   18.973626    ( 0.0000,  0.0000,  0.0000)
  63 Na    11.964375    6.345000   18.973963    ( 0.0000,  0.0000,  0.0000)
  64 Na    11.964247    8.460000   10.000000    ( 0.0000,  0.0000,  0.0000)
  65 Na    14.955308   10.575000   10.000000    ( 0.0000,  0.0000,  0.0000)
  66 Na    14.955308    8.460000   12.991062    ( 0.0000,  0.0000,  0.0000)
  67 Na    17.946370   10.575000   12.991062    ( 0.0000,  0.0000,  0.0000)
  68 Na    11.964279    8.459593   15.979678    ( 0.0000,  0.0000,  0.0000)
  69 Na    14.955326   10.575096   15.981093    ( 0.0000,  0.0000,  0.0000)
  70 Na    14.954884    8.459891   18.973626    ( 0.0000,  0.0000,  0.0000)
  71 Na    11.964232   10.575279   18.973685    ( 0.0000,  0.0000,  0.0000)
[...]
  62 Na    14.957082    4.227858   18.977742    ( 0.0000,  0.0000,  0.0000)
  63 Na    11.965310    6.345000   18.977039    ( 0.0000,  0.0000,  0.0000)
  64 Na    11.964247    8.460000   10.000000    ( 0.0000,  0.0000,  0.0000)
  65 Na    14.955308   10.575000   10.000000    ( 0.0000,  0.0000,  0.0000)
  66 Na    14.955308    8.460000   12.991062    ( 0.0000,  0.0000,  0.0000)
  67 Na    17.946370   10.575000   12.991062    ( 0.0000,  0.0000,  0.0000)
  68 Na    11.964344    8.456354   15.964027    ( 0.0000,  0.0000,  0.0000)
  69 Na    14.955513   10.577986   15.973011    ( 0.0000,  0.0000,  0.0000)
  70 Na    14.957082    8.462142   18.977742    ( 0.0000,  0.0000,  0.0000)
  71 Na    11.964098   10.576943   18.978863    ( 0.0000,  0.0000,  0.0000)
  72 Na     2.992397   -0.000000   21.584007    ( 0.0000,  0.0000,  0.0000)

Unit cell:
           periodic     x           y           z      points  spacing
  1. axis:    yes   17.946370    0.000000    0.000000    88     0.2039
  2. axis:    yes    0.000000   12.690000    0.000000    64     0.1983
  3. axis:    no     0.000000    0.000000   28.973185   144     0.2012

  Lengths:  17.946370  12.690000  28.973185
  Angles:   90.000000  90.000000  90.000000

Effective grid spacing dv^(1/3) = 0.2011

     iter     time        total  log10-change:
                         energy   eigst   dens
iter:   1 08:24:36   -87.788503        c
iter:   2 08:25:25   -87.782944        c -3.09
iter:   3 08:26:23   -87.781578c       c -3.35
iter:   4 08:27:35   -87.779845c       c -3.67
iter:   5 08:28:33   -87.780483c       c -3.85
iter:   6 08:29:25   -87.780264c       c -4.24c

Converged after 6 iterations.

Dipole moment: (-23.326988, -14.464874, 0.308490) |e|*Ang

Energy contributions relative to reference atoms: (reference = -322558.566329)

Kinetic:       +143.166129
Potential:     -130.419967
External:        +0.000000
XC:             -99.454272
Entropy (-ST):   -2.607127
Local:           +0.231410
SIC:             +0.000000
--------------------------
Free energy:    -89.083827
Extrapolated:   -87.780264

 Band  Eigenvalues  Occupancy
    0    -28.53869    2.00000
    1    -28.51834    2.00000
    2    -28.51696    2.00000
    3    -27.95098    2.00000
    4    -27.94084    2.00000
    5    -27.93514    2.00000
    6    -27.93067    2.00000
    7    -27.93025    2.00000
    8    -27.93016    2.00000
    9    -27.92867    2.00000
   10    -27.92666    2.00000
   11    -27.92645    2.00000
   12    -27.92361    2.00000
   13    -27.92360    2.00000
   14    -27.92351    2.00000
   15    -27.92343    2.00000
   16    -27.92325    2.00000
   17    -27.91984    2.00000
   18    -27.91875    2.00000
   19    -27.91829    2.00000
   20    -27.91825    2.00000
   21    -27.91804    2.00000
   22    -27.91803    2.00000
   23    -27.91792    2.00000
   24    -27.91753    2.00000
   25    -27.91752    2.00000
   26    -27.91743    2.00000
   27    -27.91630    2.00000
   28    -27.91514    2.00000
   29    -27.91512    2.00000
   30    -27.91489    2.00000
   31    -27.91438    2.00000
   32    -27.91414    2.00000
   33    -27.91294    2.00000
   34    -27.91271    2.00000
   35    -27.91262    2.00000
   36    -27.91172    2.00000
   37    -27.91152    2.00000
   38    -27.91113    2.00000
   39    -27.91107    2.00000
   40    -27.91105    2.00000
   41    -27.91094    2.00000
   42    -27.90957    2.00000
   43    -27.90954    2.00000
   44    -27.90948    2.00000
   45    -27.90942    2.00000
   46    -27.90938    2.00000
   47    -27.90889    2.00000
   48    -27.90840    2.00000
   49    -27.90810    2.00000
   50    -27.90784    2.00000
   51    -27.90756    2.00000
   52    -27.90749    2.00000
   53    -27.90747    2.00000
   54    -27.90721    2.00000
   55    -27.90587    2.00000
   56    -27.90499    2.00000
   57    -27.90455    2.00000
   58    -27.90253    2.00000
   59    -27.90248    2.00000
   60    -27.90217    2.00000
   61    -27.90204    2.00000
   62    -27.90157    2.00000
   63    -27.90121    2.00000
   64    -27.90097    2.00000
   65    -27.90067    2.00000
   66    -27.90063    2.00000
   67    -27.90038    2.00000
   68    -27.90036    2.00000
   69    -27.89980    2.00000
   70    -27.89979    2.00000
   71    -27.89797    2.00000
   72    -27.89758    2.00000
   73    -27.89708    2.00000
   74    -27.89694    2.00000
   75    -27.89693    2.00000
   76    -27.89649    2.00000
   77    -27.89625    2.00000
   78    -27.89472    2.00000
   79    -27.89418    2.00000
   80    -27.89404    2.00000
   81    -27.89310    2.00000
   82    -27.89279    2.00000
   83    -27.89216    2.00000
   84    -27.89156    2.00000
   85    -27.89107    2.00000
   86    -27.89092    2.00000
   87    -27.89087    2.00000
   88    -27.88820    2.00000
   89    -27.88815    2.00000
   90    -27.88698    2.00000
   91    -27.88695    2.00000
   92    -27.88654    2.00000
   93    -27.88636    2.00000
   94    -27.88630    2.00000
   95    -27.88627    2.00000
   96    -27.88613    2.00000
   97    -27.88567    2.00000
   98    -27.88435    2.00000
   99    -27.88432    2.00000
  100    -27.88422    2.00000
  101    -27.88414    2.00000
  102    -27.88223    2.00000
  103    -27.88091    2.00000
  104    -27.86903    2.00000
  105    -27.86876    2.00000
  106    -27.86705    2.00000
  107    -27.86598    2.00000
  108    -27.74023    2.00000
  109    -27.73909    2.00000
  110    -27.73890    2.00000
  111    -27.73878    2.00000
  112    -27.73384    2.00000
  113    -27.73318    2.00000
  114    -27.73211    2.00000
  115    -27.73105    2.00000
  116    -27.72985    2.00000
  117    -27.72877    2.00000
  118    -27.72456    2.00000
  119    -27.72426    2.00000
  120    -27.72424    2.00000
  121    -27.72403    2.00000
  122    -27.72395    2.00000
  123    -27.72383    2.00000
  124    -27.72322    2.00000
  125    -27.72311    2.00000
  126    -27.72268    2.00000
  127    -27.72242    2.00000
  128    -27.72233    2.00000
  129    -27.72154    2.00000
  130    -27.72087    2.00000
  131    -27.72039    2.00000
  132    -27.72015    2.00000
  133    -27.71897    2.00000
  134    -27.71882    2.00000
  135    -27.71830    2.00000
  136    -27.71711    2.00000
  137    -27.71683    2.00000
  138    -27.71666    2.00000
  139    -27.71645    2.00000
  140    -27.71569    2.00000
  141    -27.71550    2.00000
  142    -27.71538    2.00000
  143    -27.71442    2.00000
  144    -27.71435    2.00000
  145    -27.71296    2.00000
  146    -27.71293    2.00000
  147    -27.71246    2.00000
  148    -27.71235    2.00000
  149    -27.71224    2.00000
  150    -27.71204    2.00000
  151    -27.71187    2.00000
  152    -27.71171    2.00000
  153    -27.71166    2.00000
  154    -27.71147    2.00000
  155    -27.71090    2.00000
  156    -27.71066    2.00000
  157    -27.71063    2.00000
  158    -27.71011    2.00000
  159    -27.70995    2.00000
  160    -27.70983    2.00000
  161    -27.70913    2.00000
  162    -27.70889    2.00000
  163    -27.70871    2.00000
  164    -27.70731    2.00000
  165    -27.70708    2.00000
  166    -27.70689    2.00000
  167    -27.70636    2.00000
  168    -27.70633    2.00000
  169    -27.70588    2.00000
  170    -27.70550    2.00000
  171    -27.70485    2.00000
  172    -27.70390    2.00000
  173    -27.70270    2.00000
  174    -27.70265    2.00000
  175    -27.70234    2.00000
  176    -27.70229    2.00000
  177    -27.70210    2.00000
  178    -27.70153    2.00000
  179    -27.70062    2.00000
  180    -27.70035    2.00000
  181    -27.69992    2.00000
  182    -27.69938    2.00000
  183    -27.69876    2.00000
  184    -27.69826    2.00000
  185    -27.69822    2.00000
  186    -27.69796    2.00000
  187    -27.69769    2.00000
  188    -27.69716    2.00000
  189    -27.69676    2.00000
  190    -27.69664    2.00000
  191    -27.69658    2.00000
  192    -27.69630    2.00000
  193    -27.69594    2.00000
  194    -27.69583    2.00000
  195    -27.69497    2.00000
  196    -27.69484    2.00000
  197    -27.69466    2.00000
  198    -27.69463    2.00000
  199    -27.69396    2.00000
  200    -27.69390    2.00000
  201    -27.69362    2.00000
  202    -27.69361    2.00000
  203    -27.69353    2.00000
  204    -27.69306    2.00000
  205    -27.69234    2.00000
  206    -27.69208    2.00000
  207    -27.69174    2.00000
  208    -27.69148    2.00000
  209    -27.69116    2.00000
  210    -27.68991    2.00000
  211    -27.68891    2.00000
  212    -27.68696    2.00000
  213    -27.68686    2.00000
  214    -27.68682    2.00000
  215    -27.68641    2.00000
  216    -27.68594    2.00000
  217    -27.68589    2.00000
  218    -27.68436    2.00000
  219     -5.89482    2.00000
  220     -5.41570    2.00000
  221     -5.39845    2.00000
  222     -5.33452    2.00000
  223     -4.93235    2.00000
  224     -4.92975    2.00000
  225     -4.87208    2.00000
  226     -4.85174    2.00000
  227     -4.47086    1.99997
  228     -4.46893    1.99997
  229     -4.45349    1.99997
  230     -4.44740    1.99996
  231     -4.43716    1.99996
  232     -4.38813    1.99995
  233     -4.38094    1.99994
  234     -4.00594    1.99931
  235     -3.98852    1.99922
  236     -3.98640    1.99921
  237     -3.94225    1.99895
  238     -3.91640    1.99875
  239     -3.91451    1.99873
  240     -3.90995    1.99869
  241     -3.89735    1.99858
  242     -3.53703    1.98439
  243     -3.48836    1.97848
  244     -3.45081    1.97244
  245     -3.44607    1.97157
  246     -3.28746    1.92027
  247     -3.07260    1.70369
  248     -3.07094    1.70090
  249     -3.06749    1.69500
  250     -3.06723    1.69455
  251     -3.05653    1.67564
  252     -3.03054    1.62575
  253     -3.01449    1.59210
  254     -3.00337    1.56750
  255     -2.84106    1.10245
  256     -2.74329    0.78052
  257     -2.57432    0.34367
  258     -2.56235    0.32154
  259     -2.52953    0.26679
  260     -2.52742    0.26356
  261     -2.52555    0.26071
  262     -2.52161    0.25482
  263     -2.41691    0.13546
  264     -2.32567    0.07608
  265     -2.20128    0.03393
  266     -2.14695    0.02374
  267     -2.14105    0.02283
  268     -1.96021    0.00689
  269     -1.92639    0.00551
  270     -1.90228    0.00469
  271     -1.88060    0.00406
  272     -1.83924    0.00308
  273     -1.76206    0.00184
  274     -1.73448    0.00154
  275     -1.73087    0.00150
  276     -1.71770    0.00137
  277     -1.71470    0.00135
  278     -1.71002    0.00130
  279     -1.70815    0.00129
  280     -1.70246    0.00124
  281     -1.69999    0.00122
  282     -1.67952    0.00106
  283     -1.63080    0.00077
  284     -1.62623    0.00075
  285     -1.44417    0.00022
  286     -1.42197    0.00019
  287     -1.39101    0.00016
  288     -1.34914    0.00012
  289     -1.33981    0.00011
  290     -1.28127    0.00007
  291     -1.10993    0.00002
  292     -1.04362    0.00002
  293     -1.04291    0.00002
  294     -1.02431    0.00001
  295     -1.01509    0.00001
  296     -1.00740    0.00001
  297     -1.00201    0.00001
  298     -0.88674    0.00001
  299     -0.85008    0.00000
  300     -0.82458    0.00000
  301     -0.81840    0.00000
  302     -0.81732    0.00000
  303     -0.76456    0.00000
  304     -0.75756    0.00000
  305     -0.59411    0.00000
  306     -0.59295    0.00000
  307     -0.57572    0.00000
  308     -0.52154    0.00000
  309     -0.51844    0.00000
  310     -0.50982    0.00000

Fermi level: -2.81022

Gap: 0.098 eV
Transition (v -> c):
  (s=0, k=0, n=255, [0.00, 0.00, 0.00]) -> (s=0, k=0, n=256, [0.00, 0.00, 0.00])
No difference between direct/indirect transitions

Forces in eV/Ang:
  0 Na    0.00021    0.00000   -0.00608
  1 Na   -0.00009   -0.00514   -0.00261
  2 Na    0.00037    0.00000   -0.00813
  3 Na    0.00657    0.00459   -0.00702
  4 Na    0.02220    0.00000    0.00577
  5 Na   -0.00018   -0.01996    0.02021
  6 Na   -0.00012    0.00000   -0.04215
  7 Na    0.00956   -0.01455    0.02030
  8 Na   -0.00669   -0.00457   -0.00016
  9 Na    0.00084    0.00000    0.00761
 10 Na    0.00020    0.03664   -0.05369
 11 Na    0.00256    0.00000    0.01551
 12 Na   -0.01446   -0.00253    0.01826
 13 Na    0.00002    0.00000    0.01840
 14 Na   -0.00007   -0.01657    0.00530
 15 Na    0.01128    0.00000    0.00144
 16 Na   -0.00669    0.00457   -0.00016
 17 Na   -0.00009    0.00514   -0.00261
 18 Na    0.00020   -0.03664   -0.05369
 19 Na    0.00657   -0.00459   -0.00702
 20 Na   -0.01446    0.00253    0.01826
 21 Na   -0.00018    0.01996    0.02021
 22 Na   -0.00007    0.01657    0.00530
 23 Na    0.00956    0.01455    0.02030
 24 Na   -0.00108    0.00000   -0.00634
 25 Na    0.00267    0.00247   -0.00597
 26 Na   -0.00029    0.00000    0.00610
 27 Na    0.00024    0.00083    0.00272
 28 Na   -0.02273    0.00000    0.00586
 29 Na    0.00274    0.00101    0.00152
 30 Na   -0.00681    0.00000   -0.00193
 31 Na   -0.00924   -0.01478    0.01996
 32 Na    0.00675   -0.00435    0.00000
 33 Na    0.01015    0.00000   -0.00859
 34 Na    0.00364    0.00106    0.00924
 35 Na    0.00042    0.00000    0.00574
 36 Na    0.01442   -0.00250    0.01814
 37 Na    0.00043    0.00000   -0.00013
 38 Na   -0.01103   -0.00633   -0.00231
 39 Na   -0.01096    0.00000    0.00169
 40 Na    0.00675    0.00435    0.00000
 41 Na    0.00267   -0.00247   -0.00597
 42 Na    0.00364   -0.00106    0.00924
 43 Na    0.00024   -0.00083    0.00272
 44 Na    0.01442    0.00250    0.01814
 45 Na    0.00274   -0.00101    0.00152
 46 Na   -0.01103    0.00633   -0.00231
 47 Na   -0.00924    0.01478    0.01996
 48 Na    0.00086    0.00000   -0.00342
 49 Na   -0.00257    0.00226   -0.00580
 50 Na   -0.00011    0.00000    0.00609
 51 Na   -0.00687    0.00437   -0.00649
 52 Na    0.00020    0.00000    0.00054
 53 Na   -0.00251    0.00082    0.00134
 54 Na    0.00699    0.00000   -0.00167
 55 Na   -0.00018    0.00039   -0.00113
 56 Na   -0.00005    0.00721   -0.01534
 57 Na   -0.01099    0.00000   -0.00884
 58 Na   -0.00382    0.00083    0.00872
 59 Na   -0.00300    0.00000    0.01558
 60 Na   -0.00025   -0.00055   -0.00019
 61 Na   -0.00070    0.00000   -0.00026
 62 Na    0.01117   -0.00664   -0.00224
 63 Na    0.00008    0.00000   -0.00117
 64 Na   -0.00005   -0.00721   -0.01534
 65 Na   -0.00257   -0.00226   -0.00580
 66 Na   -0.00382   -0.00083    0.00872
 67 Na   -0.00687   -0.00437   -0.00649
 68 Na   -0.00025    0.00055   -0.00019
 69 Na   -0.00251   -0.00082    0.00134
 70 Na    0.01117    0.00664   -0.00224
 71 Na   -0.00018   -0.00039   -0.00113
 72 Na    0.00107    0.00000   -0.04817

Timing:                                       incl.     excl.
--------------------------------------------------------------------
Basic WFS set positions:                      0.726     0.037   0.0% |
 Redistribute:                                0.689     0.689   0.0% |
Basis functions set positions:               18.980    18.980   0.1% |
Forces:                                    2073.436    20.369   0.1% |
 LCAO forces:                              2053.066     3.643   0.0% |
  Atomic Hamiltonian force:                  12.271    12.271   0.1% |
  Initial:                                    0.553     0.000   0.0% |
   Get density matrix:                        0.553     0.553   0.0% |
  Paw correction:                            16.390    16.390   0.1% |
  Potential:                               1968.008  1968.008  10.6% |---|
  TCI derivative:                            52.192    52.192   0.3% |
  Wait for sum:                               0.008     0.008   0.0% |
LCAO WFS Initialize:                        409.393     0.632   0.0% |
 Density initialized from wave functions:   358.593    30.296   0.2% |
  Calculate density matrix:                   3.341     3.341   0.0% |
  Construct density:                        324.363   324.363   1.7% ||
  Symmetrize density:                         0.593     0.593   0.0% |
 Hamiltonian:                                50.168     0.015   0.0% |
  Atomic:                                    13.526     0.065   0.0% |
   XC Correction:                            13.461    13.461   0.1% |
  Calculate atomic Hamiltonians:              1.490     1.490   0.0% |
  Communicate:                                0.000     0.000   0.0% |
  Hartree integrate/restrict:                 1.102     1.102   0.0% |
  Initialize Hamiltonian:                     0.000     0.000   0.0% |
  Poisson:                                   14.954     5.579   0.0% |
   Communicate from 1D:                       1.525     1.525   0.0% |
   Communicate from 2D:                       0.753     0.753   0.0% |
   Communicate to 1D:                         0.548     0.548   0.0% |
   Communicate to 2D:                         2.300     2.300   0.0% |
   FFT 1D:                                    1.821     1.821   0.0% |
   FFT 2D:                                    2.429     2.429   0.0% |
  XC 3D grid:                                14.543    14.543   0.1% |
  vbar:                                       4.538     4.538   0.0% |
P tci:                                       21.442    21.442   0.1% |
Redistribute:                                 0.003     0.003   0.0% |
SCF-cycle:                                 5550.994     0.909   0.0% |
 Density:                                  2287.047     0.007   0.0% |
  Atomic density matrices:                    0.650     0.650   0.0% |
  Mix:                                       63.315    63.315   0.3% |
  Multipole moments:                          0.172     0.172   0.0% |
  Normalize:                                  0.056     0.056   0.0% |
  Pseudo density:                          2222.847     0.878   0.0% |
   Calculate density matrix:                  2.031     2.031   0.0% |
   Construct density:                      2218.542  2218.542  11.9% |----|
   Symmetrize density:                        1.396     1.396   0.0% |
 Hamiltonian:                               282.508     0.030   0.0% |
  Atomic:                                    90.306     0.385   0.0% |
   XC Correction:                            89.921    89.921   0.5% |
  Calculate atomic Hamiltonians:              5.404     5.404   0.0% |
  Communicate:                                0.003     0.003   0.0% |
  Hartree integrate/restrict:                 2.550     2.550   0.0% |
  Poisson:                                   71.555     9.393   0.1% |
   Communicate from 1D:                       5.346     5.346   0.0% |
   Communicate from 2D:                       4.844     4.844   0.0% |
   Communicate to 1D:                         3.706     3.706   0.0% |
   Communicate to 2D:                        13.241    13.241   0.1% |
   FFT 1D:                                   11.423    11.423   0.1% |
   FFT 2D:                                   23.603    23.603   0.1% |
  XC 3D grid:                               103.885   103.885   0.6% |
  vbar:                                       8.775     8.775   0.0% |
 LCAO eigensolver:                         2980.530     2.046   0.0% |
  Calculate projections:                      1.512     1.512   0.0% |
  DenseAtomicCorrection:                     22.053    22.053   0.1% |
  Distribute overlap matrix:                  0.042     0.042   0.0% |
  Orbital Layouts:                           45.092    45.092   0.2% |
  Potential matrix:                        2909.784  2909.784  15.7% |-----|
ST tci:                                      21.236    21.236   0.1% |
Set symmetry:                                 0.000     0.000   0.0% |
TCI: Evaluate splines:                        0.040     0.040   0.0% |
mktci:                                        4.577     4.577   0.0% |
Other:                                    10469.263 10469.263  56.4% |----------------------|
--------------------------------------------------------------------
Total:                                              18570.090 100.0%

Memory usage: 3.67 GiB
Date: Wed Nov 26 11:25:56 2025
