
  ___ ___ ___ _ _ _  
 |   |   |_  | | | | 
 | | | | | . | | | | 
 |__ |  _|___|_____|  25.7.0
 |___|_|             

User:   tew@Mathuss-MacBook-Air-357.local
Date:   Wed Nov 26 11:25:56 2025
Arch:   arm64
Pid:    88448
CWD:    /Users/tew/Documents/Project/GitHub/chem-com
Python: 3.13.5
gpaw:   /Users/tew/Documents/Project/GitHub/chem-com/.venv/lib/python3.13/site-packages/gpaw
_gpaw:  /Users/tew/Documents/Project/GitHub/chem-com/.venv/lib/python3.13/site-packages/
        _gpaw.cpython-313-darwin.so
ase:    /Users/tew/Documents/Project/GitHub/chem-com/.venv/lib/python3.13/site-packages/ase (version 3.26.0)
numpy:  /Users/tew/Documents/Project/GitHub/chem-com/.venv/lib/python3.13/site-packages/numpy (version 2.3.5)
scipy:  /Users/tew/Documents/Project/GitHub/chem-com/.venv/lib/python3.13/site-packages/scipy (version 1.16.3)
libxc:  2.x.y
units:  Angstrom and eV
cores: 1
OpenMP: False
OMP_NUM_THREADS: 1

Input parameters:
  basis: dzp
  convergence: {density: 0.0001,
                eigenstates: 5e-06}
  kpts: [1 1 1]
  mode: {interpolation: 3,
         name: lcao}
  occupations: {fixmagmom: False,
                name: fermi-dirac,
                width: 0.15}
  xc: PBE

System changes: positions, numbers, cell, pbc, initial_charges, initial_magmoms 

Initialize ...

species:
  Na:
    name: Sodium
    id: d7ecbc49209718622bcbe287195dca2a
    Z: 11.0
    valence: 7
    core: 4
    charge: 0.0
    file: /Users/tew/Documents/Project/GitHub/chem-com/.venv/lib/python3.13/site-packages/gpaw_data/setups/Na.PBE.gz
    compensation charges: {type: gauss,
                           rc: 0.37,
                           lmax: 2}
    cutoffs: {filter: 2.17,
              core: 2.59}
    projectors:
      #              energy  rcut
      - 3s(1.00)    -2.744   1.201
      - 2p(6.00)   -28.672   1.217
      - 3p(0.00)    -0.743   1.217
      -  s          24.468   1.201
      -  d           0.000   1.238
  
    # LCAO basis set for Na:
    #   Name: dzp
    #   File: /Users/tew/Documents/Project/GitHub/chem-com/.venv/lib/python3.13/site-packages/gpaw_data/setups/Na.dzp.basis.gz
    #   Number of radial functions: 7
    #   Number of spherical harmonics: 17
    #     l=0, rc=11.4062 Bohr: 3s-sz confined orbital
    #     l=1, rc=3.6719 Bohr: 2p-sz confined orbital
    #     l=1, rc=15.9375 Bohr: 3p-sz confined orbital
    #     l=0, rc=6.9531 Bohr: 3s-dz split-valence wave
    #     l=1, rc=2.4219 Bohr: 2p-dz split-valence wave
    #     l=1, rc=10.0469 Bohr: 3p-dz split-valence wave
    #     l=1, rc=11.4062 Bohr: p-type Gaussian polarization
    #   Number of RI-basis functions 0

Reference energy: -322558.566329  # eV

Spin-paired calculation

Convergence criteria:
 Maximum [total energy] change in last 3 cyles: 0.0005 eV / valence electron
 Maximum integral of absolute [dens]ity change: 0.0001 electrons / valence electron
 Maximum integral of absolute [eigenst]ate change: 5e-06 eV^2 / valence electron
 Maximum number of scf [iter]ations: 333
 (Square brackets indicate name in SCF output, whereas a 'c' in
 the SCF output indicates the quantity has converged.)

Symmetries present (total): 1

  ( 1  0  0)
  ( 0  1  0)
  ( 0  0  1)

1 k-point (Gamma)
1 k-point in the irreducible part of the Brillouin zone
       k-points in crystal coordinates                weights
   0:     0.00000000    0.00000000    0.00000000          1/1

Wave functions: LCAO
  Diagonalizer: Serial LAPACK
  Atomic Correction: dense with blas
  Data-type: float
 

Occupation numbers: Fermi-Dirac:
  width: 0.1500  # eV
 

Eigensolver
   LCAO using direct dense diagonalizer 

Densities:
  Coarse grid: 88*64*144 grid
  Fine grid: 176*128*288 grid
  Total Charge: 0.000000 

Density mixing:
  Method: separate
  Backend: pulay
  Linear mixing parameter: 0.05
  old densities: 5
  Damping of long wavelength oscillations: 50 

Hamiltonian:
  XC and Coulomb potentials evaluated on a 176*128*288 grid
  Using the PBE Exchange-Correlation functional
  Interpolation: tri-quintic (5. degree polynomial)
  Poisson solver: FastPoissonSolver using
    Stencil: 6*3+1=19 point O(h^6) finite-difference Laplacian
    FFT axes: [np.int64(0), np.int64(1)]
    FST axes: [np.int64(2)]
 

XC parameters: PBE with 2 nearest neighbor stencil

Memory estimate:
  Process memory now: 3762.67 MiB
  Calculator: 1616.02 MiB
    Density: 540.29 MiB
      Arrays: 160.27 MiB
      Localized functions: 318.57 MiB
      Mixer: 61.45 MiB
    Hamiltonian: 128.23 MiB
      Arrays: 104.80 MiB
      XC: 0.00 MiB
      Poisson: 0.00 MiB
      vbar: 23.43 MiB
    Wavefunctions: 947.50 MiB
      C [qnM]: 2.94 MiB
      S, T [2 x qmm]: 23.50 MiB
      P [aqMi]: 1.12 MiB
      BasisFunctions: 919.93 MiB
      Eigensolver: 0.00 MiB

Total number of cores used: 1

Number of atoms: 73
Number of atomic orbitals: 1241
Number of bands in calculation: 311
Number of valence electrons: 511
Bands to converge: occupied

... initialized

Initializing position-dependent things.

Density initialized from atomic densities
         .-------------------------------------------.  
        /|                                           |  
       / |                                           |  
      /  |                                           |  
     /   |                                           |  
    /    |                                           |  
   /     |                                           |  
  /      |                                           |  
 *       |                                           |  
 |       |                                           |  
 |       |                                           |  
 |       |                                           |  
 |       |                                           |  
 |       |                                           |  
 |      Na            Na             Na              |  
 |       |    Na            Na             Na        |  
 |       |          Na            Na             Na  Na 
 |   Na  |                    Na            Na       |  
 |       | Na  Na         Na            Na           |  
 |Na     |       Na  Na         Na  Na            Na |  
 |       |  Na         Na  Na         Na  Na         |  
 |      Na        Na  Na         Na  Na              |  
 |       |                                      Na   |  
 |       |Na  Na        Na  Na         Na  Na        |  
 |   Na  |      Na  Na        Na  Na                 |  
 |       | Na  Na         Na  Na        Na  Na       |  
 |    Na |           Na             Na               |  
 |Na     |       Na             Na                   |  
 |      Na  Na         Na  Na         Na  Na         |  
 |  Na   |        Na             Na                  |  
 |       |Na            Na             Na            |  
 |       |                                           |  
 Na      |      Na            Na                     |  
 |       |                                           |  
 |       |                                           |  
 |       |                                           |  
 |       .-------------------------------------------.  
 |      /                                           /   
 |     /                                           /    
 |    /                                           /     
 |   /                                           /      
 |  /                                           /       
 | /                                           /        
 |/                                           /         
 *-------------------------------------------*          

Atomic positions and initial magnetic moments

Positions:
   0 Na     0.000000    0.000000   10.000000    ( 0.0000,  0.0000,  0.0000)
   1 Na     2.991062    2.115000   10.000000    ( 0.0000,  0.0000,  0.0000)
   2 Na     2.991062    0.000000   12.991062    ( 0.0000,  0.0000,  0.0000)
   3 Na     5.982123    2.115000   12.991062    ( 0.0000,  0.0000,  0.0000)
   4 Na    -0.010272   -0.060729   15.875577    ( 0.0000,  0.0000,  0.0000)
   5 Na     2.999682    2.182431   15.868424    ( 0.0000,  0.0000,  0.0000)
   6 Na     2.968551    0.022301   18.720084    ( 0.0000,  0.0000,  0.0000)
   7 Na     0.025310    2.089845   18.722811    ( 0.0000,  0.0000,  0.0000)
   8 Na     0.000000    4.230000   10.000000    ( 0.0000,  0.0000,  0.0000)
   9 Na     2.991062    6.345000   10.000000    ( 0.0000,  0.0000,  0.0000)
  10 Na     2.991062    4.230000   12.991062    ( 0.0000,  0.0000,  0.0000)
  11 Na     5.982123    6.345000   12.991062    ( 0.0000,  0.0000,  0.0000)
  12 Na    -0.003196    4.289010   15.892884    ( 0.0000,  0.0000,  0.0000)
  13 Na     2.994903    6.342445   15.973916    ( 0.0000,  0.0000,  0.0000)
  14 Na     2.968090    4.185577   19.037728    ( 0.0000,  0.0000,  0.0000)
  15 Na    -0.000256    6.322244   19.005138    ( 0.0000,  0.0000,  0.0000)
  16 Na     0.000000    8.460000   10.000000    ( 0.0000,  0.0000,  0.0000)
  17 Na     2.991062   10.575000   10.000000    ( 0.0000,  0.0000,  0.0000)
  18 Na     2.991062    8.460000   12.991062    ( 0.0000,  0.0000,  0.0000)
  19 Na     5.982123   10.575000   12.991062    ( 0.0000,  0.0000,  0.0000)
  20 Na    -0.003196    8.461089   15.974400    ( 0.0000,  0.0000,  0.0000)
  21 Na     2.994518   10.510199   15.883241    ( 0.0000,  0.0000,  0.0000)
  22 Na     2.990993    8.482612   19.007864    ( 0.0000,  0.0000,  0.0000)
  23 Na     0.025310   10.622158   19.038723    ( 0.0000,  0.0000,  0.0000)
  24 Na     5.982123    0.000000   10.000000    ( 0.0000,  0.0000,  0.0000)
  25 Na     8.973185    2.115000   10.000000    ( 0.0000,  0.0000,  0.0000)
  26 Na     8.973185    0.000000   12.991062    ( 0.0000,  0.0000,  0.0000)
  27 Na    11.964247    2.115000   12.991062    ( 0.0000,  0.0000,  0.0000)
  28 Na     5.991692    0.000545   15.955890    ( 0.0000,  0.0000,  0.0000)
  29 Na     8.973024    2.112559   15.972347    ( 0.0000,  0.0000,  0.0000)
  30 Na     8.973253    0.000353   18.977248    ( 0.0000,  0.0000,  0.0000)
  31 Na     5.957167    2.089975   19.013584    ( 0.0000,  0.0000,  0.0000)
  32 Na     5.982123    4.230000   10.000000    ( 0.0000,  0.0000,  0.0000)
  33 Na     8.973185    6.345000   10.000000    ( 0.0000,  0.0000,  0.0000)
  34 Na     8.973185    4.230000   12.991062    ( 0.0000,  0.0000,  0.0000)
  35 Na    11.964247    6.345000   12.991062    ( 0.0000,  0.0000,  0.0000)
  36 Na     5.985122    4.228242   15.973422    ( 0.0000,  0.0000,  0.0000)
  37 Na     8.972914    6.345893   15.963151    ( 0.0000,  0.0000,  0.0000)
  38 Na     8.972375    4.228972   18.978192    ( 0.0000,  0.0000,  0.0000)
  39 Na     5.980407    6.343361   18.980079    ( 0.0000,  0.0000,  0.0000)
  40 Na     5.982123    8.460000   10.000000    ( 0.0000,  0.0000,  0.0000)
  41 Na     8.973185   10.575000   10.000000    ( 0.0000,  0.0000,  0.0000)
  42 Na     8.973185    8.460000   12.991062    ( 0.0000,  0.0000,  0.0000)
  43 Na    11.964247   10.575000   12.991062    ( 0.0000,  0.0000,  0.0000)
  44 Na     5.984945    8.461212   15.969234    ( 0.0000,  0.0000,  0.0000)
  45 Na     8.973024   10.576555   15.968568    ( 0.0000,  0.0000,  0.0000)
  46 Na     8.972375    8.460669   18.977739    ( 0.0000,  0.0000,  0.0000)
  47 Na     5.956227   10.601683   19.013301    ( 0.0000,  0.0000,  0.0000)
  48 Na    11.964247    0.000000   10.000000    ( 0.0000,  0.0000,  0.0000)
  49 Na    14.955308    2.115000   10.000000    ( 0.0000,  0.0000,  0.0000)
  50 Na    14.955308    0.000000   12.991062    ( 0.0000,  0.0000,  0.0000)
  51 Na    17.946370    2.115000   12.991062    ( 0.0000,  0.0000,  0.0000)
  52 Na    11.964785    0.000545   15.971780    ( 0.0000,  0.0000,  0.0000)
  53 Na    14.946906    2.112814   15.959009    ( 0.0000,  0.0000,  0.0000)
  54 Na    14.977657    0.022301   19.010339    ( 0.0000,  0.0000,  0.0000)
  55 Na    11.964179    2.113504   18.978331    ( 0.0000,  0.0000,  0.0000)
  56 Na    11.964247    4.230000   10.000000    ( 0.0000,  0.0000,  0.0000)
  57 Na    14.955308    6.345000   10.000000    ( 0.0000,  0.0000,  0.0000)
  58 Na    14.955308    4.230000   12.991062    ( 0.0000,  0.0000,  0.0000)
  59 Na    17.946370    6.345000   12.991062    ( 0.0000,  0.0000,  0.0000)
  60 Na    11.964419    4.232037   15.968999    ( 0.0000,  0.0000,  0.0000)
  61 Na    14.951759    6.342445   15.967926    ( 0.0000,  0.0000,  0.0000)
  62 Na    14.979267    4.207658   19.010334    ( 0.0000,  0.0000,  0.0000)
  63 Na    11.966275    6.343361   18.976824    ( 0.0000,  0.0000,  0.0000)
  64 Na    11.964247    8.460000   10.000000    ( 0.0000,  0.0000,  0.0000)
  65 Na    14.955308   10.575000   10.000000    ( 0.0000,  0.0000,  0.0000)
  66 Na    14.955308    8.460000   12.991062    ( 0.0000,  0.0000,  0.0000)
  67 Na    17.946370   10.575000   12.991062    ( 0.0000,  0.0000,  0.0000)
  68 Na    11.964596    8.457417   15.964812    ( 0.0000,  0.0000,  0.0000)
  69 Na    14.952070   10.579816   15.973827    ( 0.0000,  0.0000,  0.0000)
  70 Na    14.956364    8.460531   18.980470    ( 0.0000,  0.0000,  0.0000)
  71 Na    11.965119   10.578155   18.978049    ( 0.0000,  0.0000,  0.0000)
  72 Na     1.496199    1.057123   21.577375    ( 0.0000,  0.0000,  0.0000)

Unit cell:
           periodic     x           y           z      points  spacing
  1. axis:    yes   17.946370    0.000000    0.000000    88     0.2039
  2. axis:    yes    0.000000   12.690000    0.000000    64     0.1983
  3. axis:    no     0.000000    0.000000   28.973185   144     0.2012

  Lengths:  17.946370  12.690000  28.973185
  Angles:   90.000000  90.000000  90.000000

Effective grid spacing dv^(1/3) = 0.2011

     iter     time        total  log10-change:
                         energy   eigst   dens
iter:   1 11:57:44   -89.359163        c
iter:   2 11:58:37   -88.529856        c -1.61
iter:   3 11:59:30   -87.977350        c -1.71
iter:   4 12:00:30   -87.883782        c -1.87
iter:   5 12:01:17   -87.864581c       c -2.05
iter:   6 12:02:02   -87.887702c       c -2.25
iter:   7 12:03:06   -87.810614c       c -2.25
iter:   8 12:03:58   -87.802292c       c -2.72
iter:   9 12:04:50   -87.794009c       c -2.88
iter:  10 12:05:40   -87.792857c       c -3.16
iter:  11 12:06:36   -87.792021c       c -3.23
iter:  12 12:07:24   -87.791187c       c -3.42
iter:  13 12:08:17   -87.791203c       c -3.59
iter:  14 12:09:09   -87.791715c       c -3.73
iter:  15 12:09:53   -87.791818c       c -3.96
iter:  16 12:10:38   -87.791772c       c -4.07c

Converged after 16 iterations.

Dipole moment: (-24.239887, -15.593026, 0.315057) |e|*Ang

Energy contributions relative to reference atoms: (reference = -322558.566329)

Kinetic:       +144.597074
Potential:     -131.619270
External:        +0.000000
XC:             -99.696975
Entropy (-ST):   -2.607552
Local:           +0.231175
SIC:             +0.000000
--------------------------
Free energy:    -89.095548
Extrapolated:   -87.791772

 Band  Eigenvalues  Occupancy
    0    -28.48035    2.00000
    1    -28.47482    2.00000
    2    -28.46336    2.00000
    3    -27.93999    2.00000
    4    -27.93915    2.00000
    5    -27.93877    2.00000
    6    -27.93800    2.00000
    7    -27.93603    2.00000
    8    -27.93320    2.00000
    9    -27.93040    2.00000
   10    -27.93030    2.00000
   11    -27.93020    2.00000
   12    -27.92812    2.00000
   13    -27.92687    2.00000
   14    -27.92634    2.00000
   15    -27.92485    2.00000
   16    -27.92188    2.00000
   17    -27.92167    2.00000
   18    -27.92162    2.00000
   19    -27.92036    2.00000
   20    -27.92006    2.00000
   21    -27.91993    2.00000
   22    -27.91910    2.00000
   23    -27.91698    2.00000
   24    -27.91638    2.00000
   25    -27.91550    2.00000
   26    -27.91512    2.00000
   27    -27.91502    2.00000
   28    -27.91464    2.00000
   29    -27.91387    2.00000
   30    -27.91345    2.00000
   31    -27.91329    2.00000
   32    -27.91293    2.00000
   33    -27.91168    2.00000
   34    -27.91134    2.00000
   35    -27.91129    2.00000
   36    -27.91126    2.00000
   37    -27.91118    2.00000
   38    -27.91063    2.00000
   39    -27.91060    2.00000
   40    -27.91001    2.00000
   41    -27.90997    2.00000
   42    -27.90975    2.00000
   43    -27.90944    2.00000
   44    -27.90937    2.00000
   45    -27.90899    2.00000
   46    -27.90877    2.00000
   47    -27.90866    2.00000
   48    -27.90841    2.00000
   49    -27.90814    2.00000
   50    -27.90774    2.00000
   51    -27.90718    2.00000
   52    -27.90689    2.00000
   53    -27.90641    2.00000
   54    -27.90575    2.00000
   55    -27.90524    2.00000
   56    -27.90340    2.00000
   57    -27.90280    2.00000
   58    -27.90269    2.00000
   59    -27.90233    2.00000
   60    -27.90228    2.00000
   61    -27.90149    2.00000
   62    -27.90054    2.00000
   63    -27.90043    2.00000
   64    -27.89932    2.00000
   65    -27.89879    2.00000
   66    -27.89818    2.00000
   67    -27.89768    2.00000
   68    -27.89750    2.00000
   69    -27.89729    2.00000
   70    -27.89692    2.00000
   71    -27.89652    2.00000
   72    -27.89542    2.00000
   73    -27.89521    2.00000
   74    -27.89491    2.00000
   75    -27.89462    2.00000
   76    -27.89428    2.00000
   77    -27.89417    2.00000
   78    -27.89299    2.00000
   79    -27.89229    2.00000
   80    -27.89196    2.00000
   81    -27.89142    2.00000
   82    -27.89070    2.00000
   83    -27.89032    2.00000
   84    -27.88967    2.00000
   85    -27.88930    2.00000
   86    -27.88897    2.00000
   87    -27.88869    2.00000
   88    -27.88787    2.00000
   89    -27.88654    2.00000
   90    -27.88631    2.00000
   91    -27.88596    2.00000
   92    -27.88569    2.00000
   93    -27.88304    2.00000
   94    -27.88283    2.00000
   95    -27.88157    2.00000
   96    -27.88040    2.00000
   97    -27.87991    2.00000
   98    -27.87953    2.00000
   99    -27.87937    2.00000
  100    -27.87922    2.00000
  101    -27.87178    2.00000
  102    -27.86520    2.00000
  103    -27.86412    2.00000
  104    -27.86091    2.00000
  105    -27.75293    2.00000
  106    -27.74934    2.00000
  107    -27.74740    2.00000
  108    -27.74174    2.00000
  109    -27.74026    2.00000
  110    -27.73560    2.00000
  111    -27.73433    2.00000
  112    -27.73269    2.00000
  113    -27.73164    2.00000
  114    -27.73069    2.00000
  115    -27.72838    2.00000
  116    -27.72621    2.00000
  117    -27.72486    2.00000
  118    -27.72471    2.00000
  119    -27.72409    2.00000
  120    -27.72345    2.00000
  121    -27.72279    2.00000
  122    -27.72134    2.00000
  123    -27.72128    2.00000
  124    -27.72098    2.00000
  125    -27.72037    2.00000
  126    -27.71970    2.00000
  127    -27.71942    2.00000
  128    -27.71884    2.00000
  129    -27.71873    2.00000
  130    -27.71746    2.00000
  131    -27.71740    2.00000
  132    -27.71644    2.00000
  133    -27.71595    2.00000
  134    -27.71574    2.00000
  135    -27.71569    2.00000
  136    -27.71519    2.00000
  137    -27.71428    2.00000
  138    -27.71406    2.00000
  139    -27.71384    2.00000
  140    -27.71381    2.00000
  141    -27.71357    2.00000
  142    -27.71279    2.00000
  143    -27.71268    2.00000
  144    -27.71206    2.00000
  145    -27.71191    2.00000
  146    -27.71177    2.00000
  147    -27.71128    2.00000
  148    -27.71085    2.00000
  149    -27.71049    2.00000
  150    -27.71007    2.00000
  151    -27.70969    2.00000
  152    -27.70947    2.00000
  153    -27.70903    2.00000
  154    -27.70888    2.00000
  155    -27.70790    2.00000
  156    -27.70735    2.00000
  157    -27.70696    2.00000
  158    -27.70674    2.00000
  159    -27.70647    2.00000
  160    -27.70593    2.00000
  161    -27.70585    2.00000
  162    -27.70573    2.00000
  163    -27.70523    2.00000
  164    -27.70406    2.00000
  165    -27.70385    2.00000
  166    -27.70370    2.00000
  167    -27.70356    2.00000
  168    -27.70339    2.00000
  169    -27.70328    2.00000
  170    -27.70288    2.00000
  171    -27.70231    2.00000
  172    -27.70230    2.00000
  173    -27.70159    2.00000
  174    -27.70133    2.00000
  175    -27.70127    2.00000
  176    -27.70087    2.00000
  177    -27.70041    2.00000
  178    -27.70036    2.00000
  179    -27.69963    2.00000
  180    -27.69931    2.00000
  181    -27.69869    2.00000
  182    -27.69859    2.00000
  183    -27.69749    2.00000
  184    -27.69723    2.00000
  185    -27.69693    2.00000
  186    -27.69690    2.00000
  187    -27.69584    2.00000
  188    -27.69560    2.00000
  189    -27.69549    2.00000
  190    -27.69538    2.00000
  191    -27.69528    2.00000
  192    -27.69471    2.00000
  193    -27.69461    2.00000
  194    -27.69450    2.00000
  195    -27.69403    2.00000
  196    -27.69389    2.00000
  197    -27.69377    2.00000
  198    -27.69354    2.00000
  199    -27.69318    2.00000
  200    -27.69308    2.00000
  201    -27.69285    2.00000
  202    -27.69154    2.00000
  203    -27.69129    2.00000
  204    -27.69057    2.00000
  205    -27.69048    2.00000
  206    -27.68966    2.00000
  207    -27.68959    2.00000
  208    -27.68862    2.00000
  209    -27.68835    2.00000
  210    -27.68768    2.00000
  211    -27.68726    2.00000
  212    -27.68689    2.00000
  213    -27.68578    2.00000
  214    -27.68385    2.00000
  215    -27.68360    2.00000
  216    -27.68225    2.00000
  217    -27.68096    2.00000
  218    -27.67747    2.00000
  219     -5.89327    2.00000
  220     -5.41111    2.00000
  221     -5.40025    2.00000
  222     -5.33559    2.00000
  223     -4.93251    2.00000
  224     -4.92656    2.00000
  225     -4.87292    2.00000
  226     -4.85302    2.00000
  227     -4.47519    1.99997
  228     -4.46099    1.99997
  229     -4.45202    1.99997
  230     -4.45088    1.99996
  231     -4.43615    1.99996
  232     -4.38683    1.99995
  233     -4.38203    1.99994
  234     -4.01663    1.99936
  235     -3.98628    1.99922
  236     -3.98115    1.99919
  237     -3.94073    1.99895
  238     -3.91639    1.99876
  239     -3.91290    1.99873
  240     -3.90658    1.99868
  241     -3.90159    1.99863
  242     -3.54531    1.98538
  243     -3.48348    1.97801
  244     -3.44903    1.97241
  245     -3.44697    1.97203
  246     -3.28577    1.92023
  247     -3.07719    1.71396
  248     -3.06764    1.69799
  249     -3.06630    1.69570
  250     -3.06567    1.69463
  251     -3.05454    1.67491
  252     -3.02555    1.61882
  253     -3.00957    1.58487
  254     -3.00326    1.57085
  255     -2.83985    1.10371
  256     -2.73954    0.77372
  257     -2.57871    0.35518
  258     -2.55604    0.31317
  259     -2.52825    0.26728
  260     -2.52761    0.26629
  261     -2.52565    0.26329
  262     -2.52112    0.25646
  263     -2.41492    0.13513
  264     -2.31991    0.07407
  265     -2.19964    0.03392
  266     -2.14303    0.02338
  267     -2.14145    0.02314
  268     -1.96314    0.00710
  269     -1.92248    0.00542
  270     -1.89675    0.00457
  271     -1.87201    0.00388
  272     -1.83940    0.00312
  273     -1.76004    0.00184
  274     -1.73596    0.00157
  275     -1.71880    0.00140
  276     -1.71511    0.00136
  277     -1.71127    0.00133
  278     -1.70921    0.00131
  279     -1.70588    0.00128
  280     -1.70406    0.00127
  281     -1.70127    0.00124
  282     -1.67468    0.00104
  283     -1.62939    0.00077
  284     -1.62864    0.00077
  285     -1.44328    0.00022
  286     -1.41026    0.00018
  287     -1.39943    0.00017
  288     -1.34566    0.00012
  289     -1.32947    0.00010
  290     -1.27943    0.00007
  291     -1.10432    0.00002
  292     -1.04179    0.00002
  293     -1.04117    0.00002
  294     -1.03179    0.00001
  295     -1.01999    0.00001
  296     -1.00340    0.00001
  297     -1.00271    0.00001
  298     -0.88361    0.00001
  299     -0.84637    0.00000
  300     -0.83936    0.00000
  301     -0.81637    0.00000
  302     -0.79090    0.00000
  303     -0.76268    0.00000
  304     -0.76036    0.00000
  305     -0.59680    0.00000
  306     -0.58943    0.00000
  307     -0.54506    0.00000
  308     -0.52373    0.00000
  309     -0.51711    0.00000
  310     -0.50366    0.00000

Fermi level: -2.80862

Gap: 0.100 eV
Transition (v -> c):
  (s=0, k=0, n=255, [0.00, 0.00, 0.00]) -> (s=0, k=0, n=256, [0.00, 0.00, 0.00])
No difference between direct/indirect transitions

Forces in eV/Ang:
  0 Na   -0.00059    0.00149   -0.00471
  1 Na    0.00051   -0.00224   -0.00559
  2 Na    0.00385   -0.00343   -0.01070
  3 Na    0.00444    0.00140   -0.00124
  4 Na    0.01600    0.00631    0.00468
  5 Na   -0.01258   -0.01202    0.01053
  6 Na    0.05899   -0.04234   -0.01942
  7 Na   -0.06001    0.04505   -0.01643
  8 Na   -0.00289   -0.00715    0.00004
  9 Na    0.00821   -0.00650    0.00626
 10 Na    0.00268    0.01933   -0.02609
 11 Na    0.00398   -0.00169    0.01445
 12 Na   -0.00744   -0.01382    0.00960
 13 Na    0.00842   -0.00505    0.01253
 14 Na   -0.00618   -0.01964    0.02258
 15 Na    0.00910    0.00134   -0.00237
 16 Na   -0.00737    0.00587    0.00560
 17 Na    0.00278    0.00853    0.00031
 18 Na    0.00127   -0.01543   -0.01377
 19 Na    0.00468   -0.00030    0.00258
 20 Na   -0.00947    0.00459    0.01303
 21 Na    0.00697    0.01804    0.01555
 22 Na   -0.00778   -0.00323   -0.00382
 23 Na    0.00500    0.01857    0.02240
 24 Na   -0.00109   -0.00005   -0.00492
 25 Na    0.00117    0.00229   -0.00555
 26 Na   -0.00204   -0.00068    0.00720
 27 Na    0.00230   -0.00055    0.00647
 28 Na   -0.01757   -0.00058    0.01111
 29 Na    0.00270    0.00037   -0.00048
 30 Na   -0.00356   -0.00057   -0.00312
 31 Na   -0.00462    0.00206    0.00638
 32 Na    0.00361    0.00038   -0.00516
 33 Na    0.00734    0.00345   -0.01561
 34 Na    0.00052    0.00213    0.00786
 35 Na   -0.00201    0.00020    0.00937
 36 Na    0.00789    0.00074    0.00828
 37 Na   -0.00048    0.00057   -0.00317
 38 Na   -0.00742   -0.00351   -0.00017
 39 Na   -0.00843   -0.00229    0.00023
 40 Na    0.00931   -0.00029   -0.00283
 41 Na    0.00410   -0.00572   -0.01002
 42 Na    0.00240   -0.00153    0.00944
 43 Na   -0.00031    0.00042    0.00722
 44 Na    0.00922   -0.00069    0.00810
 45 Na    0.00256   -0.00091   -0.00293
 46 Na   -0.00833    0.00372   -0.00053
 47 Na    0.00755   -0.00004   -0.00753
 48 Na   -0.00029   -0.00283   -0.00474
 49 Na    0.00028   -0.00072   -0.00559
 50 Na   -0.00494   -0.00226   -0.00009
 51 Na   -0.00364    0.00231   -0.01013
 52 Na   -0.00228    0.00013   -0.00093
 53 Na    0.01402    0.00136    0.00901
 54 Na    0.00687    0.00082    0.00804
 55 Na    0.00291    0.00039   -0.00312
 56 Na   -0.00416    0.00709   -0.00992
 57 Na   -0.01008   -0.00056   -0.00216
 58 Na   -0.00495    0.00228    0.00317
 59 Na   -0.00090    0.01206   -0.00964
 60 Na   -0.00256    0.00013   -0.00303
 61 Na   -0.00806    0.00052    0.00703
 62 Na   -0.00555   -0.00178   -0.00655
 63 Na    0.00777   -0.00386   -0.00016
 64 Na   -0.00739   -0.00429   -0.01652
 65 Na   -0.00345    0.00123   -0.00510
 66 Na   -0.00473    0.00062    0.01370
 67 Na   -0.00265   -0.01494   -0.02296
 68 Na    0.00013   -0.00020   -0.00319
 69 Na   -0.00673   -0.00080    0.00745
 70 Na    0.00863    0.00233    0.00004
 71 Na    0.00670    0.00395    0.00000
 72 Na    0.00099   -0.00035    0.00457

System changes: positions 

Initializing position-dependent things.

Density initialized from wave functions
         .-------------------------------------------.  
        /|                                           |  
       / |                                           |  
      /  |                                           |  
     /   |                                           |  
    /    |                                           |  
   /     |                                           |  
  /      |                                           |  
 *       |                                           |  
 |       |                                           |  
 |       |                                           |  
 |       |                                           |  
 |       |                                           |  
 |       |                                           |  
 |      Na            Na             Na              |  
 |       |    Na            Na             Na        |  
 |       |          Na            Na             Na  Na 
 |   Na  |                    Na            Na       |  
 |       | Na  Na         Na            Na           |  
 |Na     |       Na  Na         Na  Na            Na |  
 |       |  Na         Na  Na         Na  Na         |  
 |      Na        Na  Na         Na  Na              |  
 |       |                                      Na   |  
 |       |Na  Na        Na  Na         Na  Na        |  
 |   Na  |      Na  Na        Na  Na                 |  
 |       | Na  Na         Na  Na        Na  Na       |  
 |    Na |           Na             Na               |  
 |Na     |       Na             Na                   |  
 |      Na  Na         Na  Na         Na  Na         |  
 |  Na   |        Na             Na                  |  
 |       |Na            Na             Na            |  
 |       |                                           |  
 Na      |      Na            Na                     |  
 |       |                                           |  
 |       |                                           |  
 |       |                                           |  
 |       .-------------------------------------------.  
 |      /                                           /   
 |     /                                           /    
 |    /                                           /     
 |   /                                           /      
 |  /                                           /       
 | /                                           /        
 |/                                           /         
 *-------------------------------------------*          

Atomic positions and initial magnetic moments

Positions:
   0 Na     0.000000    0.000000   10.000000    ( 0.0000,  0.0000,  0.0000)
   1 Na     2.991062    2.115000   10.000000    ( 0.0000,  0.0000,  0.0000)
   2 Na     2.991062    0.000000   12.991062    ( 0.0000,  0.0000,  0.0000)
   3 Na     5.982123    2.115000   12.991062    ( 0.0000,  0.0000,  0.0000)
   4 Na    -0.010112   -0.060666   15.875624    ( 0.0000,  0.0000,  0.0000)
   5 Na     2.999556    2.182310   15.868529    ( 0.0000,  0.0000,  0.0000)
   6 Na     2.969141    0.021877   18.719890    ( 0.0000,  0.0000,  0.0000)
   7 Na     0.024710    2.090295   18.722647    ( 0.0000,  0.0000,  0.0000)
   8 Na     0.000000    4.230000   10.000000    ( 0.0000,  0.0000,  0.0000)
   9 Na     2.991062    6.345000   10.000000    ( 0.0000,  0.0000,  0.0000)
  10 Na     2.991062    4.230000   12.991062    ( 0.0000,  0.0000,  0.0000)
  11 Na     5.982123    6.345000   12.991062    ( 0.0000,  0.0000,  0.0000)
  12 Na    -0.003270    4.288872   15.892980    ( 0.0000,  0.0000,  0.0000)
  13 Na     2.994987    6.342395   15.974041    ( 0.0000,  0.0000,  0.0000)
  14 Na     2.968028    4.185380   19.037954    ( 0.0000,  0.0000,  0.0000)
  15 Na    -0.000165    6.322257   19.005114    ( 0.0000,  0.0000,  0.0000)
  16 Na     0.000000    8.460000   10.000000    ( 0.0000,  0.0000,  0.0000)
  17 Na     2.991062   10.575000   10.000000    ( 0.0000,  0.0000,  0.0000)
  18 Na     2.991062    8.460000   12.991062    ( 0.0000,  0.0000,  0.0000)
  19 Na     5.982123   10.575000   12.991062    ( 0.0000,  0.0000,  0.0000)
  20 Na    -0.003290    8.461135   15.974530    ( 0.0000,  0.0000,  0.0000)
  21 Na     2.994587   10.510379   15.883396    ( 0.0000,  0.0000,  0.0000)
  22 Na     2.990915    8.482580   19.007825    ( 0.0000,  0.0000,  0.0000)
  23 Na     0.025360   10.622344   19.038947    ( 0.0000,  0.0000,  0.0000)
  24 Na     5.982123    0.000000   10.000000    ( 0.0000,  0.0000,  0.0000)
  25 Na     8.973185    2.115000   10.000000    ( 0.0000,  0.0000,  0.0000)
  26 Na     8.973185    0.000000   12.991062    ( 0.0000,  0.0000,  0.0000)
  27 Na    11.964247    2.115000   12.991062    ( 0.0000,  0.0000,  0.0000)
  28 Na     5.991517    0.000539   15.956001    ( 0.0000,  0.0000,  0.0000)
  29 Na     8.973051    2.112563   15.972342    ( 0.0000,  0.0000,  0.0000)
  30 Na     8.973217    0.000347   18.977217    ( 0.0000,  0.0000,  0.0000)
  31 Na     5.957121    2.089996   19.013648    ( 0.0000,  0.0000,  0.0000)
  32 Na     5.982123    4.230000   10.000000    ( 0.0000,  0.0000,  0.0000)
  33 Na     8.973185    6.345000   10.000000    ( 0.0000,  0.0000,  0.0000)
  34 Na     8.973185    4.230000   12.991062    ( 0.0000,  0.0000,  0.0000)
  35 Na    11.964247    6.345000   12.991062    ( 0.0000,  0.0000,  0.0000)
  36 Na     5.985201    4.228249   15.973504    ( 0.0000,  0.0000,  0.0000)
  37 Na     8.972909    6.345899   15.963120    ( 0.0000,  0.0000,  0.0000)
  38 Na     8.972301    4.228937   18.978191    ( 0.0000,  0.0000,  0.0000)
  39 Na     5.980322    6.343338   18.980081    ( 0.0000,  0.0000,  0.0000)
  40 Na     5.982123    8.460000   10.000000    ( 0.0000,  0.0000,  0.0000)
  41 Na     8.973185   10.575000   10.000000    ( 0.0000,  0.0000,  0.0000)
  42 Na     8.973185    8.460000   12.991062    ( 0.0000,  0.0000,  0.0000)
  43 Na    11.964247   10.575000   12.991062    ( 0.0000,  0.0000,  0.0000)
  44 Na     5.985037    8.461205   15.969315    ( 0.0000,  0.0000,  0.0000)
  45 Na     8.973049   10.576546   15.968539    ( 0.0000,  0.0000,  0.0000)
  46 Na     8.972292    8.460706   18.977734    ( 0.0000,  0.0000,  0.0000)
  47 Na     5.956302   10.601683   19.013226    ( 0.0000,  0.0000,  0.0000)
  48 Na    11.964247    0.000000   10.000000    ( 0.0000,  0.0000,  0.0000)
  49 Na    14.955308    2.115000   10.000000    ( 0.0000,  0.0000,  0.0000)
  50 Na    14.955308    0.000000   12.991062    ( 0.0000,  0.0000,  0.0000)
  51 Na    17.946370    2.115000   12.991062    ( 0.0000,  0.0000,  0.0000)
  52 Na    11.964762    0.000546   15.971770    ( 0.0000,  0.0000,  0.0000)
  53 Na    14.947046    2.112827   15.959099    ( 0.0000,  0.0000,  0.0000)
  54 Na    14.977726    0.022309   19.010419    ( 0.0000,  0.0000,  0.0000)
  55 Na    11.964208    2.113507   18.978300    ( 0.0000,  0.0000,  0.0000)
  56 Na    11.964247    4.230000   10.000000    ( 0.0000,  0.0000,  0.0000)
  57 Na    14.955308    6.345000   10.000000    ( 0.0000,  0.0000,  0.0000)
  58 Na    14.955308    4.230000   12.991062    ( 0.0000,  0.0000,  0.0000)
  59 Na    17.946370    6.345000   12.991062    ( 0.0000,  0.0000,  0.0000)
  60 Na    11.964394    4.232038   15.968969    ( 0.0000,  0.0000,  0.0000)
  61 Na    14.951678    6.342451   15.967997    ( 0.0000,  0.0000,  0.0000)
  62 Na    14.979212    4.207640   19.010269    ( 0.0000,  0.0000,  0.0000)
  63 Na    11.966353    6.343322   18.976823    ( 0.0000,  0.0000,  0.0000)
  64 Na    11.964247    8.460000   10.000000    ( 0.0000,  0.0000,  0.0000)
  65 Na    14.955308   10.575000   10.000000    ( 0.0000,  0.0000,  0.0000)
  66 Na    14.955308    8.460000   12.991062    ( 0.0000,  0.0000,  0.0000)
  67 Na    17.946370   10.575000   12.991062    ( 0.0000,  0.0000,  0.0000)
  68 Na    11.964598    8.457415   15.964780    ( 0.0000,  0.0000,  0.0000)
  69 Na    14.952002   10.579808   15.973901    ( 0.0000,  0.0000,  0.0000)
  70 Na    14.956451    8.460554   18.980470    ( 0.0000,  0.0000,  0.0000)
  71 Na    11.965186   10.578195   18.978049    ( 0.0000,  0.0000,  0.0000)
  72 Na     1.496208    1.057120   21.577421    ( 0.0000,  0.0000,  0.0000)

Unit cell:
           periodic     x           y           z      points  spacing
  1. axis:    yes   17.946370    0.000000    0.000000    88     0.2039
  2. axis:    yes    0.000000   12.690000    0.000000    64     0.1983
  3. axis:    no     0.000000    0.000000   28.973185   144     0.2012

  Lengths:  17.946370  12.690000  28.973185
  Angles:   90.000000  90.000000  90.000000

Effective grid spacing dv^(1/3) = 0.2011

     iter     time        total  log10-change:
                         energy   eigst   dens
iter:   1 12:55:50   -87.792818        c
iter:   2 12:56:39   -87.792296        c -3.56
iter:   3 12:57:27   -87.792236c       c -4.12c

Converged after 3 iterations.

Dipole moment: (-24.224803, -15.586008, 0.316457) |e|*Ang

Energy contributions relative to reference atoms: (reference = -322558.566329)

Kinetic:       +143.755405
Potential:     -130.877771
External:        +0.000000
XC:             -99.603775
Entropy (-ST):   -2.606982
Local:           +0.237396
SIC:             +0.000000
--------------------------
Free energy:    -89.095727
Extrapolated:   -87.792236

 Band  Eigenvalues  Occupancy
    0    -28.47722    2.00000
    1    -28.47156    2.00000
    2    -28.46011    2.00000
    3    -27.93924    2.00000
    4    -27.93864    2.00000
    5    -27.93808    2.00000
    6    -27.93743    2.00000
    7    -27.93607    2.00000
    8    -27.93184    2.00000
    9    -27.93033    2.00000
   10    -27.93025    2.00000
   11    -27.93011    2.00000
   12    -27.92687    2.00000
   13    -27.92680    2.00000
   14    -27.92631    2.00000
   15    -27.92354    2.00000
   16    -27.92161    2.00000
   17    -27.92089    2.00000
   18    -27.92084    2.00000
   19    -27.91937    2.00000
   20    -27.91896    2.00000
   21    -27.91890    2.00000
   22    -27.91874    2.00000
   23    -27.91668    2.00000
   24    -27.91627    2.00000
   25    -27.91591    2.00000
   26    -27.91514    2.00000
   27    -27.91451    2.00000
   28    -27.91382    2.00000
   29    -27.91324    2.00000
   30    -27.91275    2.00000
   31    -27.91266    2.00000
   32    -27.91205    2.00000
   33    -27.91119    2.00000
   34    -27.91084    2.00000
   35    -27.91084    2.00000
   36    -27.91077    2.00000
   37    -27.91048    2.00000
   38    -27.91037    2.00000
   39    -27.91011    2.00000
   40    -27.90991    2.00000
   41    -27.90977    2.00000
   42    -27.90938    2.00000
   43    -27.90937    2.00000
   44    -27.90928    2.00000
   45    -27.90889    2.00000
   46    -27.90827    2.00000
   47    -27.90822    2.00000
   48    -27.90816    2.00000
   49    -27.90745    2.00000
   50    -27.90738    2.00000
   51    -27.90678    2.00000
   52    -27.90589    2.00000
   53    -27.90559    2.00000
   54    -27.90484    2.00000
   55    -27.90445    2.00000
   56    -27.90290    2.00000
   57    -27.90274    2.00000
   58    -27.90255    2.00000
   59    -27.90210    2.00000
   60    -27.90190    2.00000
   61    -27.90079    2.00000
   62    -27.90007    2.00000
   63    -27.89969    2.00000
   64    -27.89891    2.00000
   65    -27.89797    2.00000
   66    -27.89766    2.00000
   67    -27.89746    2.00000
   68    -27.89725    2.00000
   69    -27.89720    2.00000
   70    -27.89663    2.00000
   71    -27.89623    2.00000
   72    -27.89609    2.00000
   73    -27.89569    2.00000
   74    -27.89491    2.00000
   75    -27.89419    2.00000
   76    -27.89384    2.00000
   77    -27.89351    2.00000
   78    -27.89264    2.00000
   79    -27.89119    2.00000
   80    -27.89118    2.00000
   81    -27.89100    2.00000
   82    -27.89044    2.00000
   83    -27.89017    2.00000
   84    -27.88956    2.00000
   85    -27.88909    2.00000
   86    -27.88888    2.00000
   87    -27.88851    2.00000
   88    -27.88766    2.00000
   89    -27.88615    2.00000
   90    -27.88594    2.00000
   91    -27.88593    2.00000
   92    -27.88518    2.00000
   93    -27.88314    2.00000
   94    -27.88294    2.00000
   95    -27.88211    2.00000
   96    -27.88095    2.00000
   97    -27.88090    2.00000
   98    -27.88058    2.00000
   99    -27.87996    2.00000
  100    -27.87940    2.00000
  101    -27.87223    2.00000
  102    -27.86565    2.00000
  103    -27.86460    2.00000
  104    -27.86142    2.00000
  105    -27.75387    2.00000
  106    -27.75024    2.00000
  107    -27.74823    2.00000
  108    -27.74270    2.00000
  109    -27.74123    2.00000
  110    -27.73651    2.00000
  111    -27.73535    2.00000
  112    -27.73376    2.00000
  113    -27.73253    2.00000
  114    -27.73044    2.00000
  115    -27.72818    2.00000
  116    -27.72648    2.00000
  117    -27.72601    2.00000
  118    -27.72495    2.00000
  119    -27.72475    2.00000
  120    -27.72437    2.00000
  121    -27.72266    2.00000
  122    -27.72176    2.00000
  123    -27.72146    2.00000
  124    -27.72109    2.00000
  125    -27.72048    2.00000
  126    -27.72021    2.00000
  127    -27.71999    2.00000
  128    -27.71903    2.00000
  129    -27.71896    2.00000
  130    -27.71819    2.00000
  131    -27.71788    2.00000
  132    -27.71730    2.00000
  133    -27.71657    2.00000
  134    -27.71646    2.00000
  135    -27.71627    2.00000
  136    -27.71533    2.00000
  137    -27.71483    2.00000
  138    -27.71445    2.00000
  139    -27.71424    2.00000
  140    -27.71408    2.00000
  141    -27.71368    2.00000
  142    -27.71303    2.00000
  143    -27.71285    2.00000
  144    -27.71228    2.00000
  145    -27.71199    2.00000
  146    -27.71184    2.00000
  147    -27.71171    2.00000
  148    -27.71148    2.00000
  149    -27.71088    2.00000
  150    -27.71059    2.00000
  151    -27.71001    2.00000
  152    -27.70988    2.00000
  153    -27.70929    2.00000
  154    -27.70910    2.00000
  155    -27.70816    2.00000
  156    -27.70761    2.00000
  157    -27.70733    2.00000
  158    -27.70726    2.00000
  159    -27.70705    2.00000
  160    -27.70622    2.00000
  161    -27.70620    2.00000
  162    -27.70603    2.00000
  163    -27.70555    2.00000
  164    -27.70438    2.00000
  165    -27.70427    2.00000
  166    -27.70396    2.00000
  167    -27.70384    2.00000
  168    -27.70378    2.00000
  169    -27.70373    2.00000
  170    -27.70303    2.00000
  171    -27.70285    2.00000
  172    -27.70266    2.00000
  173    -27.70201    2.00000
  174    -27.70156    2.00000
  175    -27.70147    2.00000
  176    -27.70102    2.00000
  177    -27.70076    2.00000
  178    -27.70067    2.00000
  179    -27.70014    2.00000
  180    -27.69945    2.00000
  181    -27.69885    2.00000
  182    -27.69872    2.00000
  183    -27.69796    2.00000
  184    -27.69788    2.00000
  185    -27.69739    2.00000
  186    -27.69729    2.00000
  187    -27.69655    2.00000
  188    -27.69634    2.00000
  189    -27.69621    2.00000
  190    -27.69587    2.00000
  191    -27.69576    2.00000
  192    -27.69537    2.00000
  193    -27.69529    2.00000
  194    -27.69514    2.00000
  195    -27.69461    2.00000
  196    -27.69454    2.00000
  197    -27.69426    2.00000
  198    -27.69396    2.00000
  199    -27.69355    2.00000
  200    -27.69347    2.00000
  201    -27.69301    2.00000
  202    -27.69263    2.00000
  203    -27.69236    2.00000
  204    -27.69117    2.00000
  205    -27.69112    2.00000
  206    -27.69064    2.00000
  207    -27.69059    2.00000
  208    -27.68964    2.00000
  209    -27.68936    2.00000
  210    -27.68897    2.00000
  211    -27.68854    2.00000
  212    -27.68809    2.00000
  213    -27.68683    2.00000
  214    -27.68594    2.00000
  215    -27.68576    2.00000
  216    -27.68433    2.00000
  217    -27.68302    2.00000
  218    -27.67972    2.00000
  219     -5.89273    2.00000
  220     -5.41063    2.00000
  221     -5.39968    2.00000
  222     -5.33475    2.00000
  223     -4.93196    2.00000
  224     -4.92602    2.00000
  225     -4.87205    2.00000
  226     -4.85223    2.00000
  227     -4.47463    1.99997
  228     -4.46043    1.99997
  229     -4.45147    1.99997
  230     -4.45032    1.99996
  231     -4.43538    1.99996
  232     -4.38607    1.99995
  233     -4.38128    1.99994
  234     -4.01597    1.99936
  235     -3.98575    1.99922
  236     -3.98054    1.99919
  237     -3.94029    1.99895
  238     -3.91562    1.99876
  239     -3.91207    1.99873
  240     -3.90578    1.99867
  241     -3.90083    1.99863
  242     -3.54446    1.98536
  243     -3.48300    1.97802
  244     -3.44831    1.97238
  245     -3.44617    1.97199
  246     -3.28519    1.92023
  247     -3.07664    1.71402
  248     -3.06709    1.69806
  249     -3.06573    1.69574
  250     -3.06512    1.69468
  251     -3.05398    1.67498
  252     -3.02505    1.61901
  253     -3.00911    1.58515
  254     -3.00284    1.57124
  255     -2.83931    1.10386
  256     -2.73903    0.77394
  257     -2.57794    0.35484
  258     -2.55545    0.31316
  259     -2.52748    0.26699
  260     -2.52684    0.26601
  261     -2.52489    0.26302
  262     -2.52037    0.25622
  263     -2.41425    0.13506
  264     -2.31935    0.07409
  265     -2.19905    0.03392
  266     -2.14250    0.02339
  267     -2.14091    0.02315
  268     -1.96258    0.00711
  269     -1.92197    0.00543
  270     -1.89617    0.00457
  271     -1.87155    0.00388
  272     -1.83888    0.00312
  273     -1.75940    0.00184
  274     -1.73532    0.00157
  275     -1.71827    0.00140
  276     -1.71464    0.00136
  277     -1.71077    0.00133
  278     -1.70873    0.00131
  279     -1.70536    0.00128
  280     -1.70342    0.00127
  281     -1.70069    0.00124
  282     -1.67423    0.00104
  283     -1.62862    0.00077
  284     -1.62786    0.00077
  285     -1.44234    0.00022
  286     -1.40946    0.00018
  287     -1.39876    0.00017
  288     -1.34518    0.00012
  289     -1.32883    0.00010
  290     -1.27891    0.00007
  291     -1.10353    0.00002
  292     -1.04125    0.00002
  293     -1.04062    0.00002
  294     -1.03099    0.00001
  295     -1.01922    0.00001
  296     -1.00268    0.00001
  297     -1.00202    0.00001
  298     -0.88301    0.00001
  299     -0.84580    0.00000
  300     -0.83869    0.00000
  301     -0.81589    0.00000
  302     -0.79028    0.00000
  303     -0.76214    0.00000
  304     -0.75992    0.00000
  305     -0.59623    0.00000
  306     -0.58888    0.00000
  307     -0.54432    0.00000
  308     -0.52298    0.00000
  309     -0.51646    0.00000
  310     -0.50309    0.00000

Fermi level: -2.80804

Gap: 0.100 eV
Transition (v -> c):
  (s=0, k=0, n=255, [0.00, 0.00, 0.00]) -> (s=0, k=0, n=256, [0.00, 0.00, 0.00])
No difference between direct/indirect transitions

Forces in eV/Ang:
  0 Na   -0.00048    0.00102   -0.00486
  1 Na    0.00040   -0.00177   -0.00574
  2 Na    0.00346   -0.00348   -0.01134
  3 Na    0.00380    0.00133   -0.00242
  4 Na    0.01445    0.00498    0.00301
  5 Na   -0.01101   -0.01067    0.00883
  6 Na    0.05718   -0.04126   -0.01528
  7 Na   -0.05813    0.04399   -0.01229
  8 Na   -0.00264   -0.00638   -0.00022
  9 Na    0.00792   -0.00621    0.00577
 10 Na    0.00210    0.01881   -0.02715
 11 Na    0.00392   -0.00194    0.01236
 12 Na   -0.00841   -0.01138    0.00937
 13 Na    0.00853   -0.00392    0.01477
 14 Na   -0.00678   -0.01951    0.02363
 15 Na    0.00887    0.00220   -0.00387
 16 Na   -0.00708    0.00558    0.00512
 17 Na    0.00254    0.00776    0.00005
 18 Na    0.00074   -0.01488   -0.01543
 19 Na    0.00422    0.00000    0.00114
 20 Na   -0.00957    0.00346    0.01527
 21 Na    0.00794    0.01563    0.01530
 22 Na   -0.00755   -0.00407   -0.00531
 23 Na    0.00564    0.01840    0.02344
 24 Na   -0.00108   -0.00014   -0.00486
 25 Na    0.00154    0.00198   -0.00511
 26 Na   -0.00220   -0.00090    0.00429
 27 Na    0.00247   -0.00033    0.00356
 28 Na   -0.01620   -0.00119    0.01240
 29 Na    0.00189    0.00057    0.00349
 30 Na   -0.00302   -0.00073   -0.00457
 31 Na   -0.00323    0.00204    0.00613
 32 Na    0.00311    0.00063   -0.00510
 33 Na    0.00700    0.00325   -0.01467
 34 Na    0.00062    0.00246    0.00540
 35 Na   -0.00240    0.00030    0.00720
 36 Na    0.00845    0.00141    0.01047
 37 Na   -0.00081    0.00067    0.00026
 38 Na   -0.00716   -0.00336   -0.00162
 39 Na   -0.00746   -0.00146   -0.00192
 40 Na    0.00838   -0.00044   -0.00283
 41 Na    0.00414   -0.00520   -0.00931
 42 Na    0.00279   -0.00163    0.00728
 43 Na   -0.00041    0.00009    0.00475
 44 Na    0.00893   -0.00076    0.01182
 45 Na    0.00186   -0.00123    0.00086
 46 Na   -0.00866    0.00374   -0.00203
 47 Na    0.00900   -0.00097   -0.00889
 48 Na   -0.00065   -0.00252   -0.00429
 49 Na    0.00027   -0.00062   -0.00552
 50 Na   -0.00431   -0.00219   -0.00129
 51 Na   -0.00325    0.00236   -0.01080
 52 Na   -0.00148   -0.00008    0.00304
 53 Na    0.01264    0.00197    0.01028
 54 Na    0.00542    0.00083    0.00780
 55 Na    0.00237    0.00054   -0.00456
 56 Na   -0.00420    0.00657   -0.00920
 57 Na   -0.00914   -0.00041   -0.00213
 58 Na   -0.00450    0.00198    0.00173
 59 Na   -0.00039    0.01154   -0.01131
 60 Na   -0.00187    0.00046    0.00075
 61 Na   -0.00776    0.00059    0.01075
 62 Na   -0.00702   -0.00084   -0.00790
 63 Na    0.00809   -0.00389   -0.00165
 64 Na   -0.00707   -0.00407   -0.01557
 65 Na   -0.00295    0.00098   -0.00503
 66 Na   -0.00467    0.00087    0.01161
 67 Na   -0.00208   -0.01445   -0.02403
 68 Na    0.00045   -0.00031    0.00022
 69 Na   -0.00730   -0.00147    0.00963
 70 Na    0.00767    0.00148   -0.00210
 71 Na    0.00643    0.00382   -0.00144
 72 Na    0.00100   -0.00034   -0.00019

System changes: positions 

Initializing position-dependent things.

Density initialized from wave functions
         .-------------------------------------------.  
        /|                                           |  
       / |                                           |  
      /  |                                           |  
     /   |                                           |  
    /    |                                           |  
   /     |                                           |  
  /      |                                           |  
 *       |                                           |  
 |       |                                           |  
 |       |                                           |  
 |       |                                           |  
 |       |                                           |  
 |       |                                           |  
 |      Na            Na             Na              |  
 |       |    Na            Na             Na        |  
 |   Na  |          Na            Na                 Na 
 |   Na  |                    Na            Na       |  
 |       | Na  Na         Na            Na           |  
 |Na     |       Na  Na         Na  Na            Na |  
 |       |  Na         Na  Na         Na  Na         |  
 |      Na        Na  Na         Na  Na              |  
 |       |                                      Na   |  
 |       |Na  Na        Na  Na         Na  Na        |  
 |   Na  |      Na  Na        Na  Na                 |  
 |       | Na  Na         Na  Na        Na  Na       |  
 |    Na |           Na             Na               |  
 |Na     |       Na             Na                   |  
 |      Na  Na         Na  Na         Na  Na         |  
 |  Na   |        Na             Na                  |  
 |       |Na            Na             Na            |  
 |       |                                           |  
 Na      |      Na            Na                     |  
 |       |                                           |  
 |       |                                           |  
 |       |                                           |  
 |       .-------------------------------------------.  
 |      /                                           /   
 |     /                                           /    
 |    /                                           /     
 |   /                                           /      
 |  /                                           /       
 | /                                           /        
 |/                                           /         
 *-------------------------------------------*          

Atomic positions and initial magnetic moments

Positions:
   0 Na     0.000000    0.000000   10.000000    ( 0.0000,  0.0000,  0.0000)
   1 Na     2.991062    2.115000   10.000000    ( 0.0000,  0.0000,  0.0000)
   2 Na     2.991062    0.000000   12.991062    ( 0.0000,  0.0000,  0.0000)
   3 Na     5.982123    2.115000   12.991062    ( 0.0000,  0.0000,  0.0000)
   4 Na    -0.009809   -0.060555   15.875699    ( 0.0000,  0.0000,  0.0000)
   5 Na     2.999321    2.182085   15.868721    ( 0.0000,  0.0000,  0.0000)
   6 Na     2.970303    0.021041   18.719547    ( 0.0000,  0.0000,  0.0000)
   7 Na     0.023529    2.091186   18.722363    ( 0.0000,  0.0000,  0.0000)
   8 Na     0.000000    4.230000   10.000000    ( 0.0000,  0.0000,  0.0000)
   9 Na     2.991062    6.345000   10.000000    ( 0.0000,  0.0000,  0.0000)
  10 Na     2.991062    4.230000   12.991062    ( 0.0000,  0.0000,  0.0000)
  11 Na     5.982123    6.345000   12.991062    ( 0.0000,  0.0000,  0.0000)
  12 Na    -0.003430    4.288622   15.893170    ( 0.0000,  0.0000,  0.0000)
  13 Na     2.995157    6.342306   15.974317    ( 0.0000,  0.0000,  0.0000)
  14 Na     2.967898    4.184988   19.038417    ( 0.0000,  0.0000,  0.0000)
  15 Na     0.000015    6.322294   19.005050    ( 0.0000,  0.0000,  0.0000)
  16 Na     0.000000    8.460000   10.000000    ( 0.0000,  0.0000,  0.0000)
  17 Na     2.991062   10.575000   10.000000    ( 0.0000,  0.0000,  0.0000)
  18 Na     2.991062    8.460000   12.991062    ( 0.0000,  0.0000,  0.0000)
  19 Na     5.982123   10.575000   12.991062    ( 0.0000,  0.0000,  0.0000)
  20 Na    -0.003481    8.461215   15.974816    ( 0.0000,  0.0000,  0.0000)
  21 Na     2.994738   10.510714   15.883705    ( 0.0000,  0.0000,  0.0000)
  22 Na     2.990762    8.482506   19.007732    ( 0.0000,  0.0000,  0.0000)
  23 Na     0.025468   10.622714   19.039407    ( 0.0000,  0.0000,  0.0000)
  24 Na     5.982123    0.000000   10.000000    ( 0.0000,  0.0000,  0.0000)
  25 Na     8.973185    2.115000   10.000000    ( 0.0000,  0.0000,  0.0000)
  26 Na     8.973185    0.000000   12.991062    ( 0.0000,  0.0000,  0.0000)
  27 Na    11.964247    2.115000   12.991062    ( 0.0000,  0.0000,  0.0000)
  28 Na     5.991180    0.000521   15.956238    ( 0.0000,  0.0000,  0.0000)
  29 Na     8.973096    2.112572   15.972376    ( 0.0000,  0.0000,  0.0000)
  30 Na     8.973152    0.000334   18.977139    ( 0.0000,  0.0000,  0.0000)
  31 Na     5.957043    2.090037   19.013773    ( 0.0000,  0.0000,  0.0000)
  32 Na     5.982123    4.230000   10.000000    ( 0.0000,  0.0000,  0.0000)
  33 Na     8.973185    6.345000   10.000000    ( 0.0000,  0.0000,  0.0000)
  34 Na     8.973185    4.230000   12.991062    ( 0.0000,  0.0000,  0.0000)
  35 Na    11.964247    6.345000   12.991062    ( 0.0000,  0.0000,  0.0000)
  36 Na     5.985365    4.228271   15.973694    ( 0.0000,  0.0000,  0.0000)
  37 Na     8.972896    6.345912   15.963094    ( 0.0000,  0.0000,  0.0000)
  38 Na     8.972155    4.228868   18.978171    ( 0.0000,  0.0000,  0.0000)
  39 Na     5.980164    6.343301   18.980062    ( 0.0000,  0.0000,  0.0000)
  40 Na     5.982123    8.460000   10.000000    ( 0.0000,  0.0000,  0.0000)
  41 Na     8.973185   10.575000   10.000000    ( 0.0000,  0.0000,  0.0000)
  42 Na     8.973185    8.460000   12.991062    ( 0.0000,  0.0000,  0.0000)
  43 Na    11.964247   10.575000   12.991062    ( 0.0000,  0.0000,  0.0000)
  44 Na     5.985219    8.461191   15.969518    ( 0.0000,  0.0000,  0.0000)
  45 Na     8.973093   10.576524   15.968522    ( 0.0000,  0.0000,  0.0000)
  46 Na     8.972122    8.460781   18.977707    ( 0.0000,  0.0000,  0.0000)
  47 Na     5.956469   10.601672   19.013060    ( 0.0000,  0.0000,  0.0000)
  48 Na    11.964247    0.000000   10.000000    ( 0.0000,  0.0000,  0.0000)
  49 Na    14.955308    2.115000   10.000000    ( 0.0000,  0.0000,  0.0000)
  50 Na    14.955308    0.000000   12.991062    ( 0.0000,  0.0000,  0.0000)
  51 Na    17.946370    2.115000   12.991062    ( 0.0000,  0.0000,  0.0000)
  52 Na    11.964725    0.000546   15.971795    ( 0.0000,  0.0000,  0.0000)
  53 Na    14.947311    2.112861   15.959294    ( 0.0000,  0.0000,  0.0000)
  54 Na    14.977848    0.022326   19.010578    ( 0.0000,  0.0000,  0.0000)
  55 Na    11.964260    2.113517   18.978222    ( 0.0000,  0.0000,  0.0000)
  56 Na    11.964247    4.230000   10.000000    ( 0.0000,  0.0000,  0.0000)
  57 Na    14.955308    6.345000   10.000000    ( 0.0000,  0.0000,  0.0000)
  58 Na    14.955308    4.230000   12.991062    ( 0.0000,  0.0000,  0.0000)
  59 Na    17.946370    6.345000   12.991062    ( 0.0000,  0.0000,  0.0000)
  60 Na    11.964350    4.232044   15.968950    ( 0.0000,  0.0000,  0.0000)
  61 Na    14.951520    6.342462   15.968178    ( 0.0000,  0.0000,  0.0000)
  62 Na    14.979084    4.207615   19.010123    ( 0.0000,  0.0000,  0.0000)
  63 Na    11.966512    6.343244   18.976803    ( 0.0000,  0.0000,  0.0000)
  64 Na    11.964247    8.460000   10.000000    ( 0.0000,  0.0000,  0.0000)
  65 Na    14.955308   10.575000   10.000000    ( 0.0000,  0.0000,  0.0000)
  66 Na    14.955308    8.460000   12.991062    ( 0.0000,  0.0000,  0.0000)
  67 Na    17.946370   10.575000   12.991062    ( 0.0000,  0.0000,  0.0000)
  68 Na    11.964604    8.457410   15.964753    ( 0.0000,  0.0000,  0.0000)
  69 Na    14.951861   10.579784   15.974074    ( 0.0000,  0.0000,  0.0000)
  70 Na    14.956613    8.460592   18.980448    ( 0.0000,  0.0000,  0.0000)
  71 Na    11.965318   10.578272   18.978033    ( 0.0000,  0.0000,  0.0000)
  72 Na     1.496228    1.057113   21.577460    ( 0.0000,  0.0000,  0.0000)

Unit cell:
           periodic     x           y           z      points  spacing
  1. axis:    yes   17.946370    0.000000    0.000000    88     0.2039
  2. axis:    yes    0.000000   12.690000    0.000000    64     0.1983
  3. axis:    no     0.000000    0.000000   28.973185   144     0.2012

  Lengths:  17.946370  12.690000  28.973185
  Angles:   90.000000  90.000000  90.000000

Effective grid spacing dv^(1/3) = 0.2011

     iter     time        total  log10-change:
                         energy   eigst   dens
iter:   1 13:21:33   -87.791672        c
iter:   2 13:22:42   -87.791906        c -3.82
iter:   3 13:23:58   -87.792308c       c -4.03c

Converged after 3 iterations.

Dipole moment: (-24.198921, -15.568194, 0.316175) |e|*Ang

Energy contributions relative to reference atoms: (reference = -322558.566329)

Kinetic:       +144.049719
Potential:     -131.138721
External:        +0.000000
XC:             -99.636883
Entropy (-ST):   -2.607519
Local:           +0.237337
SIC:             +0.000000
--------------------------
Free energy:    -89.096068
Extrapolated:   -87.792308

 Band  Eigenvalues  Occupancy
    0    -28.48170    2.00000
    1    -28.47603    2.00000
    2    -28.46460    2.00000
    3    -27.94014    2.00000
    4    -27.93947    2.00000
    5    -27.93892    2.00000
    6    -27.93832    2.00000
    7    -27.93626    2.00000
    8    -27.93331    2.00000
    9    -27.93051    2.00000
   10    -27.93029    2.00000
   11    -27.93013    2.00000
   12    -27.92823    2.00000
   13    -27.92708    2.00000
   14    -27.92644    2.00000
   15    -27.92496    2.00000
   16    -27.92190    2.00000
   17    -27.92186    2.00000
   18    -27.92182    2.00000
   19    -27.92028    2.00000
   20    -27.92018    2.00000
   21    -27.91982    2.00000
   22    -27.91909    2.00000
   23    -27.91686    2.00000
   24    -27.91617    2.00000
   25    -27.91560    2.00000
   26    -27.91522    2.00000
   27    -27.91484    2.00000
   28    -27.91463    2.00000
   29    -27.91376    2.00000
   30    -27.91363    2.00000
   31    -27.91350    2.00000
   32    -27.91280    2.00000
   33    -27.91168    2.00000
   34    -27.91141    2.00000
   35    -27.91138    2.00000
   36    -27.91134    2.00000
   37    -27.91100    2.00000
   38    -27.91099    2.00000
   39    -27.91053    2.00000
   40    -27.91051    2.00000
   41    -27.90993    2.00000
   42    -27.90982    2.00000
   43    -27.90979    2.00000
   44    -27.90977    2.00000
   45    -27.90944    2.00000
   46    -27.90901    2.00000
   47    -27.90894    2.00000
   48    -27.90892    2.00000
   49    -27.90833    2.00000
   50    -27.90799    2.00000
   51    -27.90765    2.00000
   52    -27.90666    2.00000
   53    -27.90631    2.00000
   54    -27.90555    2.00000
   55    -27.90551    2.00000
   56    -27.90329    2.00000
   57    -27.90319    2.00000
   58    -27.90271    2.00000
   59    -27.90266    2.00000
   60    -27.90261    2.00000
   61    -27.90141    2.00000
   62    -27.90076    2.00000
   63    -27.90038    2.00000
   64    -27.89953    2.00000
   65    -27.89863    2.00000
   66    -27.89808    2.00000
   67    -27.89796    2.00000
   68    -27.89793    2.00000
   69    -27.89788    2.00000
   70    -27.89720    2.00000
   71    -27.89692    2.00000
   72    -27.89550    2.00000
   73    -27.89544    2.00000
   74    -27.89518    2.00000
   75    -27.89509    2.00000
   76    -27.89447    2.00000
   77    -27.89446    2.00000
   78    -27.89329    2.00000
   79    -27.89203    2.00000
   80    -27.89177    2.00000
   81    -27.89173    2.00000
   82    -27.89100    2.00000
   83    -27.89064    2.00000
   84    -27.89006    2.00000
   85    -27.88973    2.00000
   86    -27.88903    2.00000
   87    -27.88872    2.00000
   88    -27.88813    2.00000
   89    -27.88685    2.00000
   90    -27.88638    2.00000
   91    -27.88629    2.00000
   92    -27.88605    2.00000
   93    -27.88355    2.00000
   94    -27.88335    2.00000
   95    -27.88205    2.00000
   96    -27.88088    2.00000
   97    -27.88044    2.00000
   98    -27.88029    2.00000
   99    -27.87998    2.00000
  100    -27.87991    2.00000
  101    -27.87224    2.00000
  102    -27.86566    2.00000
  103    -27.86457    2.00000
  104    -27.86136    2.00000
  105    -27.75322    2.00000
  106    -27.74969    2.00000
  107    -27.74770    2.00000
  108    -27.74214    2.00000
  109    -27.74068    2.00000
  110    -27.73603    2.00000
  111    -27.73520    2.00000
  112    -27.73349    2.00000
  113    -27.73239    2.00000
  114    -27.73142    2.00000
  115    -27.72910    2.00000
  116    -27.72694    2.00000
  117    -27.72552    2.00000
  118    -27.72543    2.00000
  119    -27.72477    2.00000
  120    -27.72397    2.00000
  121    -27.72341    2.00000
  122    -27.72203    2.00000
  123    -27.72171    2.00000
  124    -27.72150    2.00000
  125    -27.72085    2.00000
  126    -27.72024    2.00000
  127    -27.71990    2.00000
  128    -27.71931    2.00000
  129    -27.71929    2.00000
  130    -27.71809    2.00000
  131    -27.71794    2.00000
  132    -27.71697    2.00000
  133    -27.71663    2.00000
  134    -27.71632    2.00000
  135    -27.71625    2.00000
  136    -27.71572    2.00000
  137    -27.71495    2.00000
  138    -27.71461    2.00000
  139    -27.71453    2.00000
  140    -27.71441    2.00000
  141    -27.71424    2.00000
  142    -27.71338    2.00000
  143    -27.71324    2.00000
  144    -27.71273    2.00000
  145    -27.71252    2.00000
  146    -27.71235    2.00000
  147    -27.71189    2.00000
  148    -27.71137    2.00000
  149    -27.71113    2.00000
  150    -27.71061    2.00000
  151    -27.71022    2.00000
  152    -27.71008    2.00000
  153    -27.70963    2.00000
  154    -27.70942    2.00000
  155    -27.70839    2.00000
  156    -27.70777    2.00000
  157    -27.70746    2.00000
  158    -27.70742    2.00000
  159    -27.70701    2.00000
  160    -27.70647    2.00000
  161    -27.70634    2.00000
  162    -27.70627    2.00000
  163    -27.70568    2.00000
  164    -27.70470    2.00000
  165    -27.70447    2.00000
  166    -27.70428    2.00000
  167    -27.70404    2.00000
  168    -27.70394    2.00000
  169    -27.70381    2.00000
  170    -27.70335    2.00000
  171    -27.70293    2.00000
  172    -27.70290    2.00000
  173    -27.70207    2.00000
  174    -27.70186    2.00000
  175    -27.70180    2.00000
  176    -27.70142    2.00000
  177    -27.70097    2.00000
  178    -27.70096    2.00000
  179    -27.70015    2.00000
  180    -27.69981    2.00000
  181    -27.69920    2.00000
  182    -27.69902    2.00000
  183    -27.69797    2.00000
  184    -27.69781    2.00000
  185    -27.69745    2.00000
  186    -27.69738    2.00000
  187    -27.69638    2.00000
  188    -27.69611    2.00000
  189    -27.69603    2.00000
  190    -27.69598    2.00000
  191    -27.69588    2.00000
  192    -27.69524    2.00000
  193    -27.69511    2.00000
  194    -27.69499    2.00000
  195    -27.69462    2.00000
  196    -27.69447    2.00000
  197    -27.69435    2.00000
  198    -27.69396    2.00000
  199    -27.69362    2.00000
  200    -27.69355    2.00000
  201    -27.69325    2.00000
  202    -27.69209    2.00000
  203    -27.69194    2.00000
  204    -27.69124    2.00000
  205    -27.69114    2.00000
  206    -27.69001    2.00000
  207    -27.68995    2.00000
  208    -27.68898    2.00000
  209    -27.68860    2.00000
  210    -27.68796    2.00000
  211    -27.68745    2.00000
  212    -27.68739    2.00000
  213    -27.68608    2.00000
  214    -27.68434    2.00000
  215    -27.68410    2.00000
  216    -27.68271    2.00000
  217    -27.68140    2.00000
  218    -27.67791    2.00000
  219     -5.89321    2.00000
  220     -5.41101    2.00000
  221     -5.40022    2.00000
  222     -5.33550    2.00000
  223     -4.93243    2.00000
  224     -4.92652    2.00000
  225     -4.87275    2.00000
  226     -4.85301    2.00000
  227     -4.47497    1.99997
  228     -4.46088    1.99997
  229     -4.45202    1.99997
  230     -4.45088    1.99996
  231     -4.43602    1.99996
  232     -4.38674    1.99995
  233     -4.38201    1.99994
  234     -4.01635    1.99936
  235     -3.98626    1.99922
  236     -3.98105    1.99919
  237     -3.94067    1.99895
  238     -3.91627    1.99876
  239     -3.91280    1.99873
  240     -3.90656    1.99868
  241     -3.90161    1.99863
  242     -3.54507    1.98537
  243     -3.48341    1.97801
  244     -3.44898    1.97241
  245     -3.44693    1.97204
  246     -3.28567    1.92022
  247     -3.07707    1.71391
  248     -3.06760    1.69808
  249     -3.06626    1.69578
  250     -3.06560    1.69466
  251     -3.05437    1.67477
  252     -3.02543    1.61876
  253     -3.00952    1.58495
  254     -3.00323    1.57098
  255     -2.83971    1.10354
  256     -2.73947    0.77379
  257     -2.57853    0.35501
  258     -2.55591    0.31310
  259     -2.52816    0.26728
  260     -2.52751    0.26628
  261     -2.52559    0.26333
  262     -2.52114    0.25662
  263     -2.41477    0.13508
  264     -2.31986    0.07409
  265     -2.19950    0.03391
  266     -2.14299    0.02339
  267     -2.14139    0.02314
  268     -1.96293    0.00710
  269     -1.92243    0.00542
  270     -1.89665    0.00457
  271     -1.87201    0.00388
  272     -1.83934    0.00312
  273     -1.75988    0.00184
  274     -1.73577    0.00157
  275     -1.71867    0.00140
  276     -1.71505    0.00136
  277     -1.71124    0.00133
  278     -1.70915    0.00131
  279     -1.70586    0.00128
  280     -1.70402    0.00127
  281     -1.70123    0.00124
  282     -1.67462    0.00104
  283     -1.62932    0.00077
  284     -1.62861    0.00077
  285     -1.44298    0.00022
  286     -1.41018    0.00018
  287     -1.39933    0.00017
  288     -1.34560    0.00012
  289     -1.32926    0.00010
  290     -1.27949    0.00007
  291     -1.10394    0.00002
  292     -1.04173    0.00002
  293     -1.04110    0.00002
  294     -1.03161    0.00001
  295     -1.01988    0.00001
  296     -1.00332    0.00001
  297     -1.00268    0.00001
  298     -0.88355    0.00001
  299     -0.84630    0.00000
  300     -0.83931    0.00000
  301     -0.81628    0.00000
  302     -0.79085    0.00000
  303     -0.76245    0.00000
  304     -0.76035    0.00000
  305     -0.59676    0.00000
  306     -0.58938    0.00000
  307     -0.54490    0.00000
  308     -0.52374    0.00000
  309     -0.51702    0.00000
  310     -0.50348    0.00000

Fermi level: -2.80853

Gap: 0.100 eV
Transition (v -> c):
  (s=0, k=0, n=255, [0.00, 0.00, 0.00]) -> (s=0, k=0, n=256, [0.00, 0.00, 0.00])
No difference between direct/indirect transitions

Forces in eV/Ang:
  0 Na   -0.00055    0.00146   -0.00582
  1 Na    0.00048   -0.00222   -0.00669
  2 Na    0.00369   -0.00350   -0.01032
  3 Na    0.00455    0.00155   -0.00166
  4 Na    0.01544    0.00591    0.00458
  5 Na   -0.01207   -0.01149    0.01028
  6 Na    0.05693   -0.04074   -0.01777
  7 Na   -0.05787    0.04349   -0.01490
  8 Na   -0.00291   -0.00704   -0.00076
  9 Na    0.00828   -0.00643    0.00580
 10 Na    0.00263    0.01938   -0.02630
 11 Na    0.00424   -0.00154    0.01335
 12 Na   -0.00748   -0.01313    0.00939
 13 Na    0.00828   -0.00524    0.01336
 14 Na   -0.00622   -0.01964    0.02317
 15 Na    0.00886    0.00140   -0.00176
 16 Na   -0.00743    0.00580    0.00513
 17 Na    0.00281    0.00843   -0.00049
 18 Na    0.00137   -0.01540   -0.01477
 19 Na    0.00485   -0.00062    0.00181
 20 Na   -0.00931    0.00477    0.01387
 21 Na    0.00703    0.01731    0.01522
 22 Na   -0.00756   -0.00328   -0.00319
 23 Na    0.00509    0.01851    0.02295
 24 Na   -0.00128   -0.00011   -0.00556
 25 Na    0.00108    0.00231   -0.00579
 26 Na   -0.00174   -0.00080    0.00631
 27 Na    0.00199   -0.00043    0.00558
 28 Na   -0.01714   -0.00049    0.01170
 29 Na    0.00243    0.00044    0.00055
 30 Na   -0.00344   -0.00055   -0.00231
 31 Na   -0.00396    0.00209    0.00704
 32 Na    0.00342    0.00053   -0.00559
 33 Na    0.00716    0.00357   -0.01562
 34 Na    0.00070    0.00243    0.00709
 35 Na   -0.00216    0.00037    0.00855
 36 Na    0.00784    0.00055    0.00900
 37 Na   -0.00023    0.00057   -0.00248
 38 Na   -0.00731   -0.00339    0.00068
 39 Na   -0.00807   -0.00237    0.00098
 40 Na    0.00912   -0.00038   -0.00302
 41 Na    0.00396   -0.00586   -0.01013
 42 Na    0.00254   -0.00169    0.00863
 43 Na   -0.00052    0.00012    0.00646
 44 Na    0.00919   -0.00055    0.00894
 45 Na    0.00257   -0.00099   -0.00201
 46 Na   -0.00804    0.00361    0.00042
 47 Na    0.00812   -0.00036   -0.00687
 48 Na   -0.00020   -0.00286   -0.00498
 49 Na    0.00048   -0.00066   -0.00623
 50 Na   -0.00504   -0.00241   -0.00052
 51 Na   -0.00348    0.00238   -0.00977
 52 Na   -0.00203    0.00003    0.00011
 53 Na    0.01368    0.00125    0.00964
 54 Na    0.00615    0.00077    0.00870
 55 Na    0.00280    0.00038   -0.00230
 56 Na   -0.00403    0.00723   -0.01004
 57 Na   -0.00989   -0.00047   -0.00235
 58 Na   -0.00511    0.00261    0.00239
 59 Na   -0.00098    0.01205   -0.01068
 60 Na   -0.00258    0.00023   -0.00211
 61 Na   -0.00807    0.00037    0.00788
 62 Na   -0.00616   -0.00144   -0.00588
 63 Na    0.00749   -0.00375    0.00080
 64 Na   -0.00723   -0.00440   -0.01653
 65 Na   -0.00326    0.00108   -0.00554
 66 Na   -0.00501    0.00047    0.01259
 67 Na   -0.00260   -0.01501   -0.02321
 68 Na   -0.00011   -0.00020   -0.00249
 69 Na   -0.00672   -0.00059    0.00820
 70 Na    0.00826    0.00240    0.00080
 71 Na    0.00660    0.00384    0.00087
 72 Na    0.00098   -0.00034    0.00081

System changes: positions 

Initializing position-dependent things.

Density initialized from wave functions
         .-------------------------------------------.  
        /|                                           |  
       / |                                           |  
      /  |                                           |  
     /   |                                           |  
    /    |                                           |  
   /     |                                           |  
  /      |                                           |  
 *       |                                           |  
 |       |                                           |  
 |       |                                           |  
 |       |                                           |  
 |       |                                           |  
 |       |                                           |  
 |      Na            Na             Na              |  
 |       |    Na            Na             Na        |  
 |   Na  |          Na            Na                 Na 
 |   Na  |                    Na            Na       |  
 |       | Na  Na         Na            Na           |  
 |Na     |       Na  Na         Na  Na            Na |  
 |       |  Na         Na  Na         Na  Na         |  
 |      Na        Na  Na         Na  Na              |  
 |       |                                      Na   |  
 |       |Na  Na        Na  Na         Na  Na        |  
 |   Na  |      Na  Na        Na  Na                 |  
 |       | Na  Na         Na  Na        Na  Na       |  
 |    Na |           Na             Na               |  
 |Na     |       Na             Na                   |  
 |      Na  Na         Na  Na         Na  Na         |  
 |  Na   |        Na             Na                  |  
 |       |Na            Na             Na            |  
 |       |                                           |  
 Na      |      Na            Na                     |  
 |       |                                           |  
 |       |                                           |  
 |       |                                           |  
 |       .-------------------------------------------.  
 |      /                                           /   
 |     /                                           /    
 |    /                                           /     
 |   /                                           /      
 |  /                                           /       
 | /                                           /        
 |/                                           /         
 *-------------------------------------------*          

Atomic positions and initial magnetic moments

Positions:
   0 Na     0.000000    0.000000   10.000000    ( 0.0000,  0.0000,  0.0000)
   1 Na     2.991062    2.115000   10.000000    ( 0.0000,  0.0000,  0.0000)
   2 Na     2.991062    0.000000   12.991062    ( 0.0000,  0.0000,  0.0000)
   3 Na     5.982123    2.115000   12.991062    ( 0.0000,  0.0000,  0.0000)
   4 Na    -0.009350   -0.060383   15.875822    ( 0.0000,  0.0000,  0.0000)
   5 Na     2.998965    2.181743   15.869018    ( 0.0000,  0.0000,  0.0000)
   6 Na     2.972033    0.019799   18.719024    ( 0.0000,  0.0000,  0.0000)
   7 Na     0.021770    2.092511   18.721929    ( 0.0000,  0.0000,  0.0000)
   8 Na     0.000000    4.230000   10.000000    ( 0.0000,  0.0000,  0.0000)
   9 Na     2.991062    6.345000   10.000000    ( 0.0000,  0.0000,  0.0000)
  10 Na     2.991062    4.230000   12.991062    ( 0.0000,  0.0000,  0.0000)
  11 Na     5.982123    6.345000   12.991062    ( 0.0000,  0.0000,  0.0000)
  12 Na    -0.003663    4.288239   15.893453    ( 0.0000,  0.0000,  0.0000)
  13 Na     2.995409    6.342163   15.974725    ( 0.0000,  0.0000,  0.0000)
  14 Na     2.967706    4.184399   19.039114    ( 0.0000,  0.0000,  0.0000)
  15 Na     0.000283    6.322343   19.004971    ( 0.0000,  0.0000,  0.0000)
  16 Na     0.000000    8.460000   10.000000    ( 0.0000,  0.0000,  0.0000)
  17 Na     2.991062   10.575000   10.000000    ( 0.0000,  0.0000,  0.0000)
  18 Na     2.991062    8.460000   12.991062    ( 0.0000,  0.0000,  0.0000)
  19 Na     5.982123   10.575000   12.991062    ( 0.0000,  0.0000,  0.0000)
  20 Na    -0.003765    8.461344   15.975239    ( 0.0000,  0.0000,  0.0000)
  21 Na     2.994958   10.511224   15.884166    ( 0.0000,  0.0000,  0.0000)
  22 Na     2.990533    8.482400   19.007610    ( 0.0000,  0.0000,  0.0000)
  23 Na     0.025625   10.623270   19.040098    ( 0.0000,  0.0000,  0.0000)
  24 Na     5.982123    0.000000   10.000000    ( 0.0000,  0.0000,  0.0000)
  25 Na     8.973185    2.115000   10.000000    ( 0.0000,  0.0000,  0.0000)
  26 Na     8.973185    0.000000   12.991062    ( 0.0000,  0.0000,  0.0000)
  27 Na    11.964247    2.115000   12.991062    ( 0.0000,  0.0000,  0.0000)
  28 Na     5.990671    0.000498   15.956592    ( 0.0000,  0.0000,  0.0000)
  29 Na     8.973166    2.112586   15.972414    ( 0.0000,  0.0000,  0.0000)
  30 Na     8.973052    0.000316   18.977040    ( 0.0000,  0.0000,  0.0000)
  31 Na     5.956926    2.090099   19.013970    ( 0.0000,  0.0000,  0.0000)
  32 Na     5.982123    4.230000   10.000000    ( 0.0000,  0.0000,  0.0000)
  33 Na     8.973185    6.345000   10.000000    ( 0.0000,  0.0000,  0.0000)
  34 Na     8.973185    4.230000   12.991062    ( 0.0000,  0.0000,  0.0000)
  35 Na    11.964247    6.345000   12.991062    ( 0.0000,  0.0000,  0.0000)
  36 Na     5.985607    4.228298   15.973974    ( 0.0000,  0.0000,  0.0000)
  37 Na     8.972882    6.345930   15.963041    ( 0.0000,  0.0000,  0.0000)
  38 Na     8.971936    4.228766   18.978162    ( 0.0000,  0.0000,  0.0000)
  39 Na     5.979925    6.343239   18.980057    ( 0.0000,  0.0000,  0.0000)
  40 Na     5.982123    8.460000   10.000000    ( 0.0000,  0.0000,  0.0000)
  41 Na     8.973185   10.575000   10.000000    ( 0.0000,  0.0000,  0.0000)
  42 Na     8.973185    8.460000   12.991062    ( 0.0000,  0.0000,  0.0000)
  43 Na    11.964247   10.575000   12.991062    ( 0.0000,  0.0000,  0.0000)
  44 Na     5.985493    8.461171   15.969809    ( 0.0000,  0.0000,  0.0000)
  45 Na     8.973163   10.576493   15.968483    ( 0.0000,  0.0000,  0.0000)
  46 Na     8.971871    8.460892   18.977687    ( 0.0000,  0.0000,  0.0000)
  47 Na     5.956717   10.601658   19.012828    ( 0.0000,  0.0000,  0.0000)
  48 Na    11.964247    0.000000   10.000000    ( 0.0000,  0.0000,  0.0000)
  49 Na    14.955308    2.115000   10.000000    ( 0.0000,  0.0000,  0.0000)
  50 Na    14.955308    0.000000   12.991062    ( 0.0000,  0.0000,  0.0000)
  51 Na    17.946370    2.115000   12.991062    ( 0.0000,  0.0000,  0.0000)
  52 Na    11.964668    0.000547   15.971819    ( 0.0000,  0.0000,  0.0000)
  53 Na    14.947715    2.112907   15.959585    ( 0.0000,  0.0000,  0.0000)
  54 Na    14.978031    0.022350   19.010825    ( 0.0000,  0.0000,  0.0000)
  55 Na    11.964341    2.113530   18.978124    ( 0.0000,  0.0000,  0.0000)
  56 Na    11.964247    4.230000   10.000000    ( 0.0000,  0.0000,  0.0000)
  57 Na    14.955308    6.345000   10.000000    ( 0.0000,  0.0000,  0.0000)
  58 Na    14.955308    4.230000   12.991062    ( 0.0000,  0.0000,  0.0000)
  59 Na    17.946370    6.345000   12.991062    ( 0.0000,  0.0000,  0.0000)
  60 Na    11.964280    4.232053   15.968908    ( 0.0000,  0.0000,  0.0000)
  61 Na    14.951280    6.342476   15.968437    ( 0.0000,  0.0000,  0.0000)
  62 Na    14.978895    4.207575   19.009920    ( 0.0000,  0.0000,  0.0000)
  63 Na    11.966745    6.343129   18.976795    ( 0.0000,  0.0000,  0.0000)
  64 Na    11.964247    8.460000   10.000000    ( 0.0000,  0.0000,  0.0000)
  65 Na    14.955308   10.575000   10.000000    ( 0.0000,  0.0000,  0.0000)
  66 Na    14.955308    8.460000   12.991062    ( 0.0000,  0.0000,  0.0000)
  67 Na    17.946370   10.575000   12.991062    ( 0.0000,  0.0000,  0.0000)
  68 Na    11.964608    8.457403   15.964700    ( 0.0000,  0.0000,  0.0000)
  69 Na    14.951653   10.579756   15.974329    ( 0.0000,  0.0000,  0.0000)
  70 Na    14.956858    8.460654   18.980437    ( 0.0000,  0.0000,  0.0000)
  71 Na    11.965515   10.578388   18.978029    ( 0.0000,  0.0000,  0.0000)
  72 Na     1.496255    1.057104   21.577505    ( 0.0000,  0.0000,  0.0000)

Unit cell:
           periodic     x           y           z      points  spacing
  1. axis:    yes   17.946370    0.000000    0.000000    88     0.2039
  2. axis:    yes    0.000000   12.690000    0.000000    64     0.1983
  3. axis:    no     0.000000    0.000000   28.973185   144     0.2012

  Lengths:  17.946370  12.690000  28.973185
  Angles:   90.000000  90.000000  90.000000

Effective grid spacing dv^(1/3) = 0.2011

     iter     time        total  log10-change:
                         energy   eigst   dens
iter:   1 13:49:59   -87.792884        c
[...]
  60 Na    11.963948    4.232083   15.968737    ( 0.0000,  0.0000,  0.0000)
  61 Na    14.950112    6.342537   15.969755    ( 0.0000,  0.0000,  0.0000)
  62 Na    14.977922    4.207430   19.008897    ( 0.0000,  0.0000,  0.0000)
  63 Na    11.967894    6.342566   18.976711    ( 0.0000,  0.0000,  0.0000)
  64 Na    11.964247    8.460000   10.000000    ( 0.0000,  0.0000,  0.0000)
  65 Na    14.955308   10.575000   10.000000    ( 0.0000,  0.0000,  0.0000)
  66 Na    14.955308    8.460000   12.991062    ( 0.0000,  0.0000,  0.0000)
  67 Na    17.946370   10.575000   12.991062    ( 0.0000,  0.0000,  0.0000)
  68 Na    11.964633    8.457373   15.964476    ( 0.0000,  0.0000,  0.0000)
  69 Na    14.950639   10.579643   15.975616    ( 0.0000,  0.0000,  0.0000)
  70 Na    14.958105    8.460974   18.980353    ( 0.0000,  0.0000,  0.0000)
  71 Na    11.966499   10.578969   18.977971    ( 0.0000,  0.0000,  0.0000)
  72 Na     1.496379    1.057071   21.577381    ( 0.0000,  0.0000,  0.0000)

Unit cell:
           periodic     x           y           z      points  spacing
  1. axis:    yes   17.946370    0.000000    0.000000    88     0.2039
  2. axis:    yes    0.000000   12.690000    0.000000    64     0.1983
  3. axis:    no     0.000000    0.000000   28.973185   144     0.2012

  Lengths:  17.946370  12.690000  28.973185
  Angles:   90.000000  90.000000  90.000000

Effective grid spacing dv^(1/3) = 0.2011

     iter     time        total  log10-change:
                         energy   eigst   dens
iter:   1 15:13:07   -87.795255        c
iter:   2 15:13:54   -87.794954        c -4.01c
iter:   3 15:14:41   -87.794829c       c -4.26c

Converged after 3 iterations.

Dipole moment: (-23.937178, -15.407575, 0.316042) |e|*Ang

Energy contributions relative to reference atoms: (reference = -322558.566329)

Kinetic:       +143.941783
Potential:     -131.048344
External:        +0.000000
XC:             -99.621208
Entropy (-ST):   -2.607968
Local:           +0.236925
SIC:             +0.000000
--------------------------
Free energy:    -89.098813
Extrapolated:   -87.794829

 Band  Eigenvalues  Occupancy
    0    -28.48134    2.00000
    1    -28.47591    2.00000
    2    -28.46464    2.00000
    3    -27.94000    2.00000
    4    -27.93879    2.00000
    5    -27.93805    2.00000
    6    -27.93686    2.00000
    7    -27.93465    2.00000
    8    -27.93317    2.00000
    9    -27.92901    2.00000
   10    -27.92809    2.00000
   11    -27.92756    2.00000
   12    -27.92737    2.00000
   13    -27.92564    2.00000
   14    -27.92481    2.00000
   15    -27.92446    2.00000
   16    -27.92172    2.00000
   17    -27.92167    2.00000
   18    -27.92004    2.00000
   19    -27.92000    2.00000
   20    -27.91994    2.00000
   21    -27.91947    2.00000
   22    -27.91701    2.00000
   23    -27.91644    2.00000
   24    -27.91556    2.00000
   25    -27.91537    2.00000
   26    -27.91517    2.00000
   27    -27.91489    2.00000
   28    -27.91349    2.00000
   29    -27.91337    2.00000
   30    -27.91336    2.00000
   31    -27.91309    2.00000
   32    -27.91203    2.00000
   33    -27.91179    2.00000
   34    -27.91160    2.00000
   35    -27.91156    2.00000
   36    -27.91150    2.00000
   37    -27.91142    2.00000
   38    -27.91094    2.00000
   39    -27.91063    2.00000
   40    -27.91030    2.00000
   41    -27.90980    2.00000
   42    -27.90977    2.00000
   43    -27.90969    2.00000
   44    -27.90968    2.00000
   45    -27.90922    2.00000
   46    -27.90884    2.00000
   47    -27.90874    2.00000
   48    -27.90865    2.00000
   49    -27.90799    2.00000
   50    -27.90778    2.00000
   51    -27.90741    2.00000
   52    -27.90647    2.00000
   53    -27.90612    2.00000
   54    -27.90541    2.00000
   55    -27.90532    2.00000
   56    -27.90322    2.00000
   57    -27.90306    2.00000
   58    -27.90257    2.00000
   59    -27.90254    2.00000
   60    -27.90253    2.00000
   61    -27.90150    2.00000
   62    -27.90062    2.00000
   63    -27.90041    2.00000
   64    -27.89954    2.00000
   65    -27.89849    2.00000
   66    -27.89816    2.00000
   67    -27.89808    2.00000
   68    -27.89795    2.00000
   69    -27.89790    2.00000
   70    -27.89722    2.00000
   71    -27.89680    2.00000
   72    -27.89670    2.00000
   73    -27.89634    2.00000
   74    -27.89549    2.00000
   75    -27.89539    2.00000
   76    -27.89450    2.00000
   77    -27.89440    2.00000
   78    -27.89325    2.00000
   79    -27.89241    2.00000
   80    -27.89219    2.00000
   81    -27.89175    2.00000
   82    -27.89091    2.00000
   83    -27.89054    2.00000
   84    -27.88985    2.00000
   85    -27.88969    2.00000
   86    -27.88952    2.00000
   87    -27.88934    2.00000
   88    -27.88811    2.00000
   89    -27.88685    2.00000
   90    -27.88662    2.00000
   91    -27.88656    2.00000
   92    -27.88598    2.00000
   93    -27.88358    2.00000
   94    -27.88339    2.00000
   95    -27.88274    2.00000
   96    -27.88159    2.00000
   97    -27.88157    2.00000
   98    -27.88118    2.00000
   99    -27.88048    2.00000
  100    -27.87992    2.00000
  101    -27.87285    2.00000
  102    -27.86628    2.00000
  103    -27.86523    2.00000
  104    -27.86205    2.00000
  105    -27.75232    2.00000
  106    -27.74921    2.00000
  107    -27.74666    2.00000
  108    -27.74158    2.00000
  109    -27.74025    2.00000
  110    -27.73659    2.00000
  111    -27.73576    2.00000
  112    -27.73474    2.00000
  113    -27.73368    2.00000
  114    -27.73256    2.00000
  115    -27.72994    2.00000
  116    -27.72796    2.00000
  117    -27.72675    2.00000
  118    -27.72645    2.00000
  119    -27.72595    2.00000
  120    -27.72507    2.00000
  121    -27.72444    2.00000
  122    -27.72322    2.00000
  123    -27.72256    2.00000
  124    -27.72227    2.00000
  125    -27.72140    2.00000
  126    -27.72103    2.00000
  127    -27.72072    2.00000
  128    -27.71975    2.00000
  129    -27.71964    2.00000
  130    -27.71874    2.00000
  131    -27.71860    2.00000
  132    -27.71768    2.00000
  133    -27.71744    2.00000
  134    -27.71723    2.00000
  135    -27.71684    2.00000
  136    -27.71622    2.00000
  137    -27.71577    2.00000
  138    -27.71550    2.00000
  139    -27.71513    2.00000
  140    -27.71495    2.00000
  141    -27.71444    2.00000
  142    -27.71382    2.00000
  143    -27.71372    2.00000
  144    -27.71325    2.00000
  145    -27.71310    2.00000
  146    -27.71246    2.00000
  147    -27.71214    2.00000
  148    -27.71174    2.00000
  149    -27.71164    2.00000
  150    -27.71099    2.00000
  151    -27.71078    2.00000
  152    -27.71021    2.00000
  153    -27.70994    2.00000
  154    -27.70991    2.00000
  155    -27.70892    2.00000
  156    -27.70817    2.00000
  157    -27.70802    2.00000
  158    -27.70784    2.00000
  159    -27.70763    2.00000
  160    -27.70730    2.00000
  161    -27.70721    2.00000
  162    -27.70684    2.00000
  163    -27.70618    2.00000
  164    -27.70553    2.00000
  165    -27.70552    2.00000
  166    -27.70466    2.00000
  167    -27.70436    2.00000
  168    -27.70428    2.00000
  169    -27.70402    2.00000
  170    -27.70376    2.00000
  171    -27.70347    2.00000
  172    -27.70340    2.00000
  173    -27.70220    2.00000
  174    -27.70207    2.00000
  175    -27.70198    2.00000
  176    -27.70173    2.00000
  177    -27.70127    2.00000
  178    -27.70117    2.00000
  179    -27.70063    2.00000
  180    -27.69979    2.00000
  181    -27.69927    2.00000
  182    -27.69909    2.00000
  183    -27.69848    2.00000
  184    -27.69811    2.00000
  185    -27.69764    2.00000
  186    -27.69750    2.00000
  187    -27.69675    2.00000
  188    -27.69655    2.00000
  189    -27.69648    2.00000
  190    -27.69611    2.00000
  191    -27.69599    2.00000
  192    -27.69558    2.00000
  193    -27.69542    2.00000
  194    -27.69524    2.00000
  195    -27.69497    2.00000
  196    -27.69483    2.00000
  197    -27.69477    2.00000
  198    -27.69353    2.00000
  199    -27.69314    2.00000
  200    -27.69312    2.00000
  201    -27.69287    2.00000
  202    -27.69274    2.00000
  203    -27.69260    2.00000
  204    -27.69137    2.00000
  205    -27.69130    2.00000
  206    -27.69065    2.00000
  207    -27.69057    2.00000
  208    -27.68968    2.00000
  209    -27.68928    2.00000
  210    -27.68862    2.00000
  211    -27.68839    2.00000
  212    -27.68810    2.00000
  213    -27.68677    2.00000
  214    -27.68520    2.00000
  215    -27.68496    2.00000
  216    -27.68337    2.00000
  217    -27.68201    2.00000
  218    -27.67870    2.00000
  219     -5.89324    2.00000
  220     -5.41093    2.00000
  221     -5.40039    2.00000
  222     -5.33571    2.00000
  223     -4.93228    2.00000
  224     -4.92663    2.00000
  225     -4.87250    2.00000
  226     -4.85369    2.00000
  227     -4.47405    1.99997
  228     -4.46073    1.99997
  229     -4.45231    1.99997
  230     -4.45118    1.99996
  231     -4.43616    1.99996
  232     -4.38664    1.99995
  233     -4.38253    1.99994
  234     -4.01570    1.99936
  235     -3.98646    1.99922
  236     -3.98089    1.99919
  237     -3.94090    1.99895
  238     -3.91605    1.99876
  239     -3.91285    1.99873
  240     -3.90713    1.99868
  241     -3.90241    1.99864
  242     -3.54426    1.98528
  243     -3.48349    1.97801
  244     -3.44936    1.97247
  245     -3.44743    1.97212
  246     -3.28558    1.92014
  247     -3.07704    1.71374
  248     -3.06773    1.69819
  249     -3.06642    1.69594
  250     -3.06559    1.69451
  251     -3.05391    1.67381
  252     -3.02534    1.61842
  253     -3.00966    1.58511
  254     -3.00353    1.57149
  255     -2.83957    1.10284
  256     -2.73982    0.77466
  257     -2.57854    0.35487
  258     -2.55600    0.31312
  259     -2.52825    0.26730
  260     -2.52742    0.26603
  261     -2.52574    0.26345
  262     -2.52185    0.25758
  263     -2.41452    0.13481
  264     -2.32021    0.07422
  265     -2.19941    0.03387
  266     -2.14307    0.02339
  267     -2.14141    0.02313
  268     -1.96283    0.00709
  269     -1.92249    0.00542
  270     -1.89679    0.00457
  271     -1.87253    0.00389
  272     -1.83979    0.00313
  273     -1.75989    0.00184
  274     -1.73530    0.00156
  275     -1.71846    0.00139
  276     -1.71502    0.00136
  277     -1.71132    0.00133
  278     -1.70902    0.00131
  279     -1.70600    0.00128
  280     -1.70437    0.00127
  281     -1.70167    0.00125
  282     -1.67472    0.00104
  283     -1.62949    0.00077
  284     -1.62907    0.00077
  285     -1.44281    0.00022
  286     -1.41043    0.00018
  287     -1.39955    0.00017
  288     -1.34571    0.00012
  289     -1.32915    0.00010
  290     -1.27998    0.00008
  291     -1.10388    0.00002
  292     -1.04175    0.00002
  293     -1.04109    0.00002
  294     -1.03132    0.00001
  295     -1.02001    0.00001
  296     -1.00369    0.00001
  297     -1.00327    0.00001
  298     -0.88371    0.00001
  299     -0.84633    0.00000
  300     -0.83959    0.00000
  301     -0.81634    0.00000
  302     -0.79108    0.00000
  303     -0.76207    0.00000
  304     -0.76081    0.00000
  305     -0.59679    0.00000
  306     -0.58943    0.00000
  307     -0.54490    0.00000
  308     -0.52446    0.00000
  309     -0.51696    0.00000
  310     -0.50361    0.00000

Fermi level: -2.80861

Gap: 0.100 eV
Transition (v -> c):
  (s=0, k=0, n=255, [0.00, 0.00, 0.00]) -> (s=0, k=0, n=256, [0.00, 0.00, 0.00])
No difference between direct/indirect transitions

Forces in eV/Ang:
  0 Na   -0.00052    0.00153   -0.00593
  1 Na    0.00043   -0.00230   -0.00685
  2 Na    0.00377   -0.00364   -0.01011
  3 Na    0.00451    0.00093   -0.00169
  4 Na    0.01417    0.00535    0.00495
  5 Na   -0.01113   -0.01023    0.00982
  6 Na    0.04792   -0.03486   -0.01230
  7 Na   -0.04868    0.03757   -0.01020
  8 Na   -0.00299   -0.00707   -0.00092
  9 Na    0.00813   -0.00637    0.00537
 10 Na    0.00223    0.01870   -0.02610
 11 Na    0.00449   -0.00149    0.01329
 12 Na   -0.00756   -0.00948    0.00756
 13 Na    0.00681   -0.00510    0.01369
 14 Na   -0.00689   -0.01886    0.02194
 15 Na    0.00724    0.00024   -0.00189
 16 Na   -0.00731    0.00575    0.00470
 17 Na    0.00286    0.00846   -0.00069
 18 Na    0.00145   -0.01452   -0.01387
 19 Na    0.00471   -0.00016    0.00233
 20 Na   -0.00780    0.00457    0.01410
 21 Na    0.00716    0.01337    0.01268
 22 Na   -0.00613   -0.00196   -0.00317
 23 Na    0.00613    0.01739    0.02152
 24 Na   -0.00119   -0.00006   -0.00555
 25 Na    0.00130    0.00188   -0.00554
 26 Na   -0.00170   -0.00073    0.00539
 27 Na    0.00203   -0.00047    0.00468
 28 Na   -0.01476   -0.00066    0.01087
 29 Na    0.00179   -0.00025    0.00105
 30 Na   -0.00348   -0.00051   -0.00266
 31 Na   -0.00261    0.00145    0.00696
 32 Na    0.00331    0.00023   -0.00574
 33 Na    0.00700    0.00325   -0.01528
 34 Na    0.00104    0.00213    0.00634
 35 Na   -0.00214    0.00008    0.00801
 36 Na    0.00703   -0.00004    0.00889
 37 Na   -0.00001    0.00060   -0.00149
 38 Na   -0.00647   -0.00297    0.00020
 39 Na   -0.00830   -0.00172    0.00093
 40 Na    0.00872   -0.00011   -0.00311
 41 Na    0.00388   -0.00512   -0.00981
 42 Na    0.00260   -0.00145    0.00806
 43 Na   -0.00077    0.00042    0.00570
 44 Na    0.00781    0.00043    0.00911
 45 Na    0.00150   -0.00038   -0.00120
 46 Na   -0.00740    0.00324   -0.00018
 47 Na    0.00834   -0.00217   -0.00673
 48 Na   -0.00040   -0.00242   -0.00471
 49 Na    0.00038   -0.00070   -0.00619
 50 Na   -0.00499   -0.00184   -0.00060
 51 Na   -0.00364    0.00245   -0.00975
 52 Na   -0.00145    0.00063    0.00062
 53 Na    0.01183    0.00124    0.00906
 54 Na    0.00446    0.00124    0.00856
 55 Na    0.00289    0.00042   -0.00266
 56 Na   -0.00393    0.00650   -0.00967
 57 Na   -0.00949   -0.00074   -0.00239
 58 Na   -0.00499    0.00223    0.00286
 59 Na   -0.00120    0.01139   -0.01003
 60 Na   -0.00155   -0.00021   -0.00134
 61 Na   -0.00693   -0.00068    0.00806
 62 Na   -0.00666    0.00064   -0.00578
 63 Na    0.00693   -0.00344    0.00016
 64 Na   -0.00704   -0.00409   -0.01618
 65 Na   -0.00314    0.00137   -0.00566
 66 Na   -0.00519    0.00042    0.01257
 67 Na   -0.00227   -0.01454   -0.02323
 68 Na   -0.00018   -0.00030   -0.00152
 69 Na   -0.00604    0.00003    0.00815
 70 Na    0.00848    0.00161    0.00071
 71 Na    0.00586    0.00345    0.00044
 72 Na    0.00098   -0.00031   -0.00650

Timing:                                       incl.     excl.
--------------------------------------------------------------------
Basic WFS set positions:                      0.299     0.026   0.0% |
 Redistribute:                                0.273     0.273   0.0% |
Basis functions set positions:               13.736    13.736   0.1% |
Forces:                                     955.737     9.200   0.1% |
 LCAO forces:                               946.537     0.851   0.0% |
  Atomic Hamiltonian force:                   5.902     5.902   0.0% |
  Initial:                                    0.328     0.001   0.0% |
   Get density matrix:                        0.326     0.326   0.0% |
  Paw correction:                             7.088     7.088   0.0% |
  Potential:                                907.417   907.417   5.6% |-|
  TCI derivative:                            24.948    24.948   0.2% |
  Wait for sum:                               0.002     0.002   0.0% |
LCAO WFS Initialize:                        238.999     0.663   0.0% |
 Density initialized from wave functions:   209.682    21.473   0.1% |
  Calculate density matrix:                   3.054     3.054   0.0% |
  Construct density:                        185.152   185.152   1.1% |
  Symmetrize density:                         0.003     0.003   0.0% |
 Hamiltonian:                                28.655     0.005   0.0% |
  Atomic:                                     7.559     0.044   0.0% |
   XC Correction:                             7.515     7.515   0.0% |
  Calculate atomic Hamiltonians:              0.667     0.667   0.0% |
  Communicate:                                0.000     0.000   0.0% |
  Hartree integrate/restrict:                 0.951     0.951   0.0% |
  Initialize Hamiltonian:                     0.000     0.000   0.0% |
  Poisson:                                   10.159     5.460   0.0% |
   Communicate from 1D:                       0.609     0.609   0.0% |
   Communicate from 2D:                       0.360     0.360   0.0% |
   Communicate to 1D:                         0.286     0.286   0.0% |
   Communicate to 2D:                         1.116     1.116   0.0% |
   FFT 1D:                                    0.934     0.934   0.0% |
   FFT 2D:                                    1.396     1.396   0.0% |
  XC 3D grid:                                 6.947     6.947   0.0% |
  vbar:                                       2.367     2.367   0.0% |
P tci:                                       13.369    13.369   0.1% |
Redistribute:                                 0.006     0.006   0.0% |
SCF-cycle:                                 1731.931     0.163   0.0% |
 Density:                                   678.793     0.002   0.0% |
  Atomic density matrices:                    0.220     0.220   0.0% |
  Mix:                                       20.494    20.494   0.1% |
  Multipole moments:                          0.063     0.063   0.0% |
  Normalize:                                  0.015     0.015   0.0% |
  Pseudo density:                           657.999     0.350   0.0% |
   Calculate density matrix:                  0.658     0.658   0.0% |
   Construct density:                       656.986   656.986   4.1% |-|
   Symmetrize density:                        0.006     0.006   0.0% |
 Hamiltonian:                                85.861     0.007   0.0% |
  Atomic:                                    25.292     0.115   0.0% |
   XC Correction:                            25.177    25.177   0.2% |
  Calculate atomic Hamiltonians:              1.827     1.827   0.0% |
  Communicate:                                0.000     0.000   0.0% |
  Hartree integrate/restrict:                 0.740     0.740   0.0% |
  Poisson:                                   22.539     2.537   0.0% |
   Communicate from 1D:                       1.753     1.753   0.0% |
   Communicate from 2D:                       1.443     1.443   0.0% |
   Communicate to 1D:                         1.064     1.064   0.0% |
   Communicate to 2D:                         4.783     4.783   0.0% |
   FFT 1D:                                    3.407     3.407   0.0% |
   FFT 2D:                                    7.554     7.554   0.0% |
  XC 3D grid:                                32.235    32.235   0.2% |
  vbar:                                       3.221     3.221   0.0% |
 LCAO eigensolver:                          967.115     0.472   0.0% |
  Calculate projections:                      0.481     0.481   0.0% |
  DenseAtomicCorrection:                      6.615     6.615   0.0% |
  Distribute overlap matrix:                  0.008     0.008   0.0% |
  Orbital Layouts:                           15.115    15.115   0.1% |
  Potential matrix:                         944.423   944.423   5.8% |-|
ST tci:                                      10.574    10.574   0.1% |
Set symmetry:                                 0.001     0.001   0.0% |
TCI: Evaluate splines:                        0.069     0.069   0.0% |
mktci:                                        1.923     1.923   0.0% |
Other:                                    13203.030 13203.030  81.7% |--------------------------------|
--------------------------------------------------------------------
Total:                                              16169.674 100.0%

Memory usage: 3.67 GiB
Date: Wed Nov 26 15:55:26 2025
