
  ___ ___ ___ _ _ _  
 |   |   |_  | | | | 
 | | | | | . | | | | 
 |__ |  _|___|_____|  25.7.0
 |___|_|             

User:   tew@Mathuss-MacBook-Air-357.local
Date:   Wed Nov 26 11:25:56 2025
Arch:   arm64
Pid:    88448
CWD:    /Users/tew/Documents/Project/GitHub/chem-com
Python: 3.13.5
gpaw:   /Users/tew/Documents/Project/GitHub/chem-com/.venv/lib/python3.13/site-packages/gpaw
_gpaw:  /Users/tew/Documents/Project/GitHub/chem-com/.venv/lib/python3.13/site-packages/
        _gpaw.cpython-313-darwin.so
ase:    /Users/tew/Documents/Project/GitHub/chem-com/.venv/lib/python3.13/site-packages/ase (version 3.26.0)
numpy:  /Users/tew/Documents/Project/GitHub/chem-com/.venv/lib/python3.13/site-packages/numpy (version 2.3.5)
scipy:  /Users/tew/Documents/Project/GitHub/chem-com/.venv/lib/python3.13/site-packages/scipy (version 1.16.3)
libxc:  2.x.y
units:  Angstrom and eV
cores: 1
OpenMP: False
OMP_NUM_THREADS: 1

Input parameters:
  basis: dzp
  convergence: {density: 0.0001,
                eigenstates: 5e-06}
  kpts: [1 1 1]
  mode: {interpolation: 3,
         name: lcao}
  occupations: {fixmagmom: False,
                name: fermi-dirac,
                width: 0.15}
  xc: PBE

System changes: positions, numbers, cell, pbc, initial_charges, initial_magmoms 

Initialize ...

species:
  Na:
    name: Sodium
    id: d7ecbc49209718622bcbe287195dca2a
    Z: 11.0
    valence: 7
    core: 4
    charge: 0.0
    file: /Users/tew/Documents/Project/GitHub/chem-com/.venv/lib/python3.13/site-packages/gpaw_data/setups/Na.PBE.gz
    compensation charges: {type: gauss,
                           rc: 0.37,
                           lmax: 2}
    cutoffs: {filter: 2.17,
              core: 2.59}
    projectors:
      #              energy  rcut
      - 3s(1.00)    -2.744   1.201
      - 2p(6.00)   -28.672   1.217
      - 3p(0.00)    -0.743   1.217
      -  s          24.468   1.201
      -  d           0.000   1.238
  
    # LCAO basis set for Na:
    #   Name: dzp
    #   File: /Users/tew/Documents/Project/GitHub/chem-com/.venv/lib/python3.13/site-packages/gpaw_data/setups/Na.dzp.basis.gz
    #   Number of radial functions: 7
    #   Number of spherical harmonics: 17
    #     l=0, rc=11.4062 Bohr: 3s-sz confined orbital
    #     l=1, rc=3.6719 Bohr: 2p-sz confined orbital
    #     l=1, rc=15.9375 Bohr: 3p-sz confined orbital
    #     l=0, rc=6.9531 Bohr: 3s-dz split-valence wave
    #     l=1, rc=2.4219 Bohr: 2p-dz split-valence wave
    #     l=1, rc=10.0469 Bohr: 3p-dz split-valence wave
    #     l=1, rc=11.4062 Bohr: p-type Gaussian polarization
    #   Number of RI-basis functions 0

Reference energy: -322558.566329  # eV

Spin-paired calculation

Convergence criteria:
 Maximum [total energy] change in last 3 cyles: 0.0005 eV / valence electron
 Maximum integral of absolute [dens]ity change: 0.0001 electrons / valence electron
 Maximum integral of absolute [eigenst]ate change: 5e-06 eV^2 / valence electron
 Maximum number of scf [iter]ations: 333
 (Square brackets indicate name in SCF output, whereas a 'c' in
 the SCF output indicates the quantity has converged.)

Symmetries present (total): 1

  ( 1  0  0)
  ( 0  1  0)
  ( 0  0  1)

1 k-point (Gamma)
1 k-point in the irreducible part of the Brillouin zone
       k-points in crystal coordinates                weights
   0:     0.00000000    0.00000000    0.00000000          1/1

Wave functions: LCAO
  Diagonalizer: Serial LAPACK
  Atomic Correction: dense with blas
  Data-type: float
 

Occupation numbers: Fermi-Dirac:
  width: 0.1500  # eV
 

Eigensolver
   LCAO using direct dense diagonalizer 

Densities:
  Coarse grid: 88*64*144 grid
  Fine grid: 176*128*288 grid
  Total Charge: 0.000000 

Density mixing:
  Method: separate
  Backend: pulay
  Linear mixing parameter: 0.05
  old densities: 5
  Damping of long wavelength oscillations: 50 

Hamiltonian:
  XC and Coulomb potentials evaluated on a 176*128*288 grid
  Using the PBE Exchange-Correlation functional
  Interpolation: tri-quintic (5. degree polynomial)
  Poisson solver: FastPoissonSolver using
    Stencil: 6*3+1=19 point O(h^6) finite-difference Laplacian
    FFT axes: [np.int64(0), np.int64(1)]
    FST axes: [np.int64(2)]
 

XC parameters: PBE with 2 nearest neighbor stencil

Memory estimate:
  Process memory now: 3762.67 MiB
  Calculator: 1616.02 MiB
    Density: 540.29 MiB
      Arrays: 160.27 MiB
      Localized functions: 318.57 MiB
      Mixer: 61.45 MiB
    Hamiltonian: 128.23 MiB
      Arrays: 104.80 MiB
      XC: 0.00 MiB
      Poisson: 0.00 MiB
      vbar: 23.43 MiB
    Wavefunctions: 947.50 MiB
      C [qnM]: 2.94 MiB
      S, T [2 x qmm]: 23.50 MiB
      P [aqMi]: 1.12 MiB
      BasisFunctions: 919.93 MiB
      Eigensolver: 0.00 MiB

Total number of cores used: 1

Number of atoms: 73
Number of atomic orbitals: 1241
Number of bands in calculation: 311
Number of valence electrons: 511
Bands to converge: occupied

... initialized

Initializing position-dependent things.

Density initialized from atomic densities
         .-------------------------------------------.  
        /|                                           |  
       / |                                           |  
      /  |                                           |  
     /   |                                           |  
    /    |                                           |  
   /     |                                           |  
  /      |                                           |  
 *       |                                           |  
 |       |                                           |  
 |       |                                           |  
 |       |                                           |  
 |       |                                           |  
 |       |                                           |  
 |      Na            Na             Na              |  
 |       |    Na            Na             Na        |  
 | Na    |          Na            Na             Na  Na 
 |       |                    Na            Na       |  
 |       | Na  Na         Na            Na           |  
 |       |       Na  Na         Na  Na            Na |  
 |Na    Na  Na         Na  Na         Na  Na         |  
 |      Na        Na  Na         Na  Na              |  
 |       |                                      Na   |  
 |       |Na  Na        Na  Na         Na  Na        |  
 |   Na  |      Na  Na        Na  Na                 |  
 |       | Na  Na         Na  Na        Na  Na       |  
 |    Na |           Na             Na               |  
 |Na     |       Na             Na                   |  
 |      Na  Na         Na  Na         Na  Na         |  
 |  Na   |        Na             Na                  |  
 |       |Na            Na             Na            |  
 |       |                                           |  
 Na      |      Na            Na                     |  
 |       |                                           |  
 |       |                                           |  
 |       |                                           |  
 |       .-------------------------------------------.  
 |      /                                           /   
 |     /                                           /    
 |    /                                           /     
 |   /                                           /      
 |  /                                           /       
 | /                                           /        
 |/                                           /         
 *-------------------------------------------*          

Atomic positions and initial magnetic moments

Positions:
   0 Na     0.000000    0.000000   10.000000    ( 0.0000,  0.0000,  0.0000)
   1 Na     2.991062    2.115000   10.000000    ( 0.0000,  0.0000,  0.0000)
   2 Na     2.991062    0.000000   12.991062    ( 0.0000,  0.0000,  0.0000)
   3 Na     5.982123    2.115000   12.991062    ( 0.0000,  0.0000,  0.0000)
   4 Na    -0.003424   -0.101216   15.833448    ( 0.0000,  0.0000,  0.0000)
   5 Na     3.005275    2.136553   15.919479    ( 0.0000,  0.0000,  0.0000)
   6 Na     2.953059    0.037168   18.935379    ( 0.0000,  0.0000,  0.0000)
   7 Na     0.008437    2.105576   18.505138    ( 0.0000,  0.0000,  0.0000)
   8 Na     0.000000    4.230000   10.000000    ( 0.0000,  0.0000,  0.0000)
   9 Na     2.991062    6.345000   10.000000    ( 0.0000,  0.0000,  0.0000)
  10 Na     2.991062    4.230000   12.991062    ( 0.0000,  0.0000,  0.0000)
  11 Na     5.982123    6.345000   12.991062    ( 0.0000,  0.0000,  0.0000)
  12 Na    -0.001065    4.330938   15.840059    ( 0.0000,  0.0000,  0.0000)
  13 Na     2.997084    6.340742   15.973483    ( 0.0000,  0.0000,  0.0000)
  14 Na     2.952642    4.186831   19.041194    ( 0.0000,  0.0000,  0.0000)
  15 Na    -0.000085    6.307073   19.019842    ( 0.0000,  0.0000,  0.0000)
  16 Na     0.000000    8.460000   10.000000    ( 0.0000,  0.0000,  0.0000)
  17 Na     2.991062   10.575000   10.000000    ( 0.0000,  0.0000,  0.0000)
  18 Na     2.991062    8.460000   12.991062    ( 0.0000,  0.0000,  0.0000)
  19 Na     5.982123   10.575000   12.991062    ( 0.0000,  0.0000,  0.0000)
  20 Na    -0.001065    8.459228   15.975918    ( 0.0000,  0.0000,  0.0000)
  21 Na     2.996668   10.557830   15.944175    ( 0.0000,  0.0000,  0.0000)
  22 Na     2.990813    8.466817   18.991420    ( 0.0000,  0.0000,  0.0000)
  23 Na     0.008437   10.621096   19.031658    ( 0.0000,  0.0000,  0.0000)
  24 Na     5.982123    0.000000   10.000000    ( 0.0000,  0.0000,  0.0000)
  25 Na     8.973185    2.115000   10.000000    ( 0.0000,  0.0000,  0.0000)
  26 Na     8.973185    0.000000   12.991062    ( 0.0000,  0.0000,  0.0000)
  27 Na    11.964247    2.115000   12.991062    ( 0.0000,  0.0000,  0.0000)
  28 Na     5.984909    0.000908   15.967079    ( 0.0000,  0.0000,  0.0000)
  29 Na     8.973131    2.113052   15.972477    ( 0.0000,  0.0000,  0.0000)
  30 Na     8.973208    0.000589   18.977257    ( 0.0000,  0.0000,  0.0000)
  31 Na     5.973796    2.105958   18.989727    ( 0.0000,  0.0000,  0.0000)
  32 Na     5.982123    4.230000   10.000000    ( 0.0000,  0.0000,  0.0000)
  33 Na     8.973185    6.345000   10.000000    ( 0.0000,  0.0000,  0.0000)
  34 Na     8.973185    4.230000   12.991062    ( 0.0000,  0.0000,  0.0000)
  35 Na    11.964247    6.345000   12.991062    ( 0.0000,  0.0000,  0.0000)
  36 Na     5.982958    4.229699   15.973788    ( 0.0000,  0.0000,  0.0000)
  37 Na     8.973095    6.346489   15.963766    ( 0.0000,  0.0000,  0.0000)
  38 Na     8.972915    4.229807   18.978362    ( 0.0000,  0.0000,  0.0000)
  39 Na     5.979556    6.342268   18.977766    ( 0.0000,  0.0000,  0.0000)
  40 Na     5.982123    8.460000   10.000000    ( 0.0000,  0.0000,  0.0000)
  41 Na     8.973185   10.575000   10.000000    ( 0.0000,  0.0000,  0.0000)
  42 Na     8.973185    8.460000   12.991062    ( 0.0000,  0.0000,  0.0000)
  43 Na    11.964247   10.575000   12.991062    ( 0.0000,  0.0000,  0.0000)
  44 Na     5.982663    8.459391   15.966808    ( 0.0000,  0.0000,  0.0000)
  45 Na     8.973131   10.575472   15.966178    ( 0.0000,  0.0000,  0.0000)
  46 Na     8.972915    8.459595   18.977607    ( 0.0000,  0.0000,  0.0000)
  47 Na     5.972229   10.586806   18.989256    ( 0.0000,  0.0000,  0.0000)
  48 Na    11.964247    0.000000   10.000000    ( 0.0000,  0.0000,  0.0000)
  49 Na    14.955308    2.115000   10.000000    ( 0.0000,  0.0000,  0.0000)
  50 Na    14.955308    0.000000   12.991062    ( 0.0000,  0.0000,  0.0000)
  51 Na    17.946370    2.115000   12.991062    ( 0.0000,  0.0000,  0.0000)
  52 Na    11.964830    0.000908   15.972376    ( 0.0000,  0.0000,  0.0000)
  53 Na    14.941168    2.113347   15.949675    ( 0.0000,  0.0000,  0.0000)
  54 Na    14.993257    0.037168   19.032131    ( 0.0000,  0.0000,  0.0000)
  55 Na    11.964233    2.113801   18.977976    ( 0.0000,  0.0000,  0.0000)
  56 Na    11.964247    4.230000   10.000000    ( 0.0000,  0.0000,  0.0000)
  57 Na    14.955308    6.345000   10.000000    ( 0.0000,  0.0000,  0.0000)
  58 Na    14.955308    4.230000   12.991062    ( 0.0000,  0.0000,  0.0000)
  59 Na    17.946370    6.345000   12.991062    ( 0.0000,  0.0000,  0.0000)
  60 Na    11.964470    4.230964   15.972314    ( 0.0000,  0.0000,  0.0000)
  61 Na    14.949383    6.340742   15.971487    ( 0.0000,  0.0000,  0.0000)
  62 Na    14.994057    4.194191   19.032062    ( 0.0000,  0.0000,  0.0000)
  63 Na    11.966918    6.342268   18.976681    ( 0.0000,  0.0000,  0.0000)
  64 Na    11.964247    8.460000   10.000000    ( 0.0000,  0.0000,  0.0000)
  65 Na    14.955308   10.575000   10.000000    ( 0.0000,  0.0000,  0.0000)
  66 Na    14.955308    8.460000   12.991062    ( 0.0000,  0.0000,  0.0000)
  67 Na    17.946370   10.575000   12.991062    ( 0.0000,  0.0000,  0.0000)
  68 Na    11.964764    8.458126   15.965334    ( 0.0000,  0.0000,  0.0000)
  69 Na    14.949774   10.581035   15.974370    ( 0.0000,  0.0000,  0.0000)
  70 Na    14.955886    8.459457   18.982288    ( 0.0000,  0.0000,  0.0000)
  71 Na    11.965800   10.578963   18.977505    ( 0.0000,  0.0000,  0.0000)
  72 Na     0.498733    1.761871   21.572954    ( 0.0000,  0.0000,  0.0000)

Unit cell:
           periodic     x           y           z      points  spacing
  1. axis:    yes   17.946370    0.000000    0.000000    88     0.2039
  2. axis:    yes    0.000000   12.690000    0.000000    64     0.1983
  3. axis:    no     0.000000    0.000000   28.973185   144     0.2012

  Lengths:  17.946370  12.690000  28.973185
  Angles:   90.000000  90.000000  90.000000

Effective grid spacing dv^(1/3) = 0.2011

     iter     time        total  log10-change:
                         energy   eigst   dens
iter:   1 12:29:19   -89.347934        c
iter:   2 12:30:11   -88.514571        c -1.60
iter:   3 12:31:00   -87.961140        c -1.70
iter:   4 12:31:51   -87.863482        c -1.87
iter:   5 12:32:43   -87.848090c       c -2.05
iter:   6 12:33:30   -87.873151c       c -2.24
iter:   7 12:34:18   -87.794880c       c -2.25
iter:   8 12:35:08   -87.786369c       c -2.71
iter:   9 12:35:58   -87.777518c       c -2.87
iter:  10 12:36:52   -87.776346c       c -3.16
iter:  11 12:37:43   -87.775458c       c -3.23
iter:  12 12:38:33   -87.774687c       c -3.42
iter:  13 12:39:24   -87.774722c       c -3.58
iter:  14 12:40:17   -87.775207c       c -3.72
iter:  15 12:41:07   -87.775306c       c -3.94
iter:  16 12:41:52   -87.775274c       c -4.05c

Converged after 16 iterations.

Dipole moment: (-29.066087, -13.608949, 0.305169) |e|*Ang

Energy contributions relative to reference atoms: (reference = -322558.566329)

Kinetic:       +144.208016
Potential:     -131.292398
External:        +0.000000
XC:             -99.617687
Entropy (-ST):   -2.609145
Local:           +0.231368
SIC:             +0.000000
--------------------------
Free energy:    -89.079846
Extrapolated:   -87.775274

 Band  Eigenvalues  Occupancy
    0    -28.53371    2.00000
    1    -28.51103    2.00000
    2    -28.50848    2.00000
    3    -27.95064    2.00000
    4    -27.94073    2.00000
    5    -27.93710    2.00000
    6    -27.93506    2.00000
    7    -27.93477    2.00000
    8    -27.93246    2.00000
    9    -27.92950    2.00000
   10    -27.92760    2.00000
   11    -27.92572    2.00000
   12    -27.92525    2.00000
   13    -27.92501    2.00000
   14    -27.92440    2.00000
   15    -27.92237    2.00000
   16    -27.92158    2.00000
   17    -27.92067    2.00000
   18    -27.92047    2.00000
   19    -27.92015    2.00000
   20    -27.91977    2.00000
   21    -27.91944    2.00000
   22    -27.91898    2.00000
   23    -27.91844    2.00000
   24    -27.91806    2.00000
   25    -27.91721    2.00000
   26    -27.91691    2.00000
   27    -27.91661    2.00000
   28    -27.91574    2.00000
   29    -27.91573    2.00000
   30    -27.91556    2.00000
   31    -27.91539    2.00000
   32    -27.91444    2.00000
   33    -27.91404    2.00000
   34    -27.91402    2.00000
   35    -27.91376    2.00000
   36    -27.91290    2.00000
   37    -27.91256    2.00000
   38    -27.91237    2.00000
   39    -27.91206    2.00000
   40    -27.91196    2.00000
   41    -27.91173    2.00000
   42    -27.91157    2.00000
   43    -27.91088    2.00000
   44    -27.91073    2.00000
   45    -27.91068    2.00000
   46    -27.91059    2.00000
   47    -27.91014    2.00000
   48    -27.91004    2.00000
   49    -27.90971    2.00000
   50    -27.90910    2.00000
   51    -27.90908    2.00000
   52    -27.90822    2.00000
   53    -27.90770    2.00000
   54    -27.90761    2.00000
   55    -27.90748    2.00000
   56    -27.90687    2.00000
   57    -27.90679    2.00000
   58    -27.90574    2.00000
   59    -27.90455    2.00000
   60    -27.90434    2.00000
   61    -27.90410    2.00000
   62    -27.90342    2.00000
   63    -27.90318    2.00000
   64    -27.90297    2.00000
   65    -27.90237    2.00000
   66    -27.90136    2.00000
   67    -27.90133    2.00000
   68    -27.90088    2.00000
   69    -27.89992    2.00000
   70    -27.89951    2.00000
   71    -27.89950    2.00000
   72    -27.89895    2.00000
   73    -27.89856    2.00000
   74    -27.89727    2.00000
   75    -27.89678    2.00000
   76    -27.89598    2.00000
   77    -27.89573    2.00000
   78    -27.89492    2.00000
   79    -27.89326    2.00000
   80    -27.89314    2.00000
   81    -27.89311    2.00000
   82    -27.89237    2.00000
   83    -27.89204    2.00000
   84    -27.89182    2.00000
   85    -27.89151    2.00000
   86    -27.89100    2.00000
   87    -27.89086    2.00000
   88    -27.89070    2.00000
   89    -27.88969    2.00000
   90    -27.88930    2.00000
   91    -27.88894    2.00000
   92    -27.88884    2.00000
   93    -27.88812    2.00000
   94    -27.88776    2.00000
   95    -27.88700    2.00000
   96    -27.88327    2.00000
   97    -27.88266    2.00000
   98    -27.88230    2.00000
   99    -27.87804    2.00000
  100    -27.87758    2.00000
  101    -27.87280    2.00000
  102    -27.87029    2.00000
  103    -27.86720    2.00000
  104    -27.86454    2.00000
  105    -27.84327    2.00000
  106    -27.83389    2.00000
  107    -27.82834    2.00000
  108    -27.73841    2.00000
  109    -27.73730    2.00000
  110    -27.73615    2.00000
  111    -27.73544    2.00000
  112    -27.73414    2.00000
  113    -27.73370    2.00000
  114    -27.73187    2.00000
  115    -27.73017    2.00000
  116    -27.72779    2.00000
  117    -27.72710    2.00000
  118    -27.72542    2.00000
  119    -27.72448    2.00000
  120    -27.72399    2.00000
  121    -27.72364    2.00000
  122    -27.72352    2.00000
  123    -27.72305    2.00000
  124    -27.72295    2.00000
  125    -27.72223    2.00000
  126    -27.72206    2.00000
  127    -27.72155    2.00000
  128    -27.72122    2.00000
  129    -27.72100    2.00000
  130    -27.72032    2.00000
  131    -27.71980    2.00000
  132    -27.71909    2.00000
  133    -27.71848    2.00000
  134    -27.71787    2.00000
  135    -27.71742    2.00000
  136    -27.71703    2.00000
  137    -27.71647    2.00000
  138    -27.71635    2.00000
  139    -27.71593    2.00000
  140    -27.71577    2.00000
  141    -27.71549    2.00000
  142    -27.71532    2.00000
  143    -27.71463    2.00000
  144    -27.71420    2.00000
  145    -27.71397    2.00000
  146    -27.71350    2.00000
  147    -27.71328    2.00000
  148    -27.71294    2.00000
  149    -27.71274    2.00000
  150    -27.71230    2.00000
  151    -27.71169    2.00000
  152    -27.71161    2.00000
  153    -27.71139    2.00000
  154    -27.71116    2.00000
  155    -27.71112    2.00000
  156    -27.71046    2.00000
  157    -27.71010    2.00000
  158    -27.70969    2.00000
  159    -27.70935    2.00000
  160    -27.70913    2.00000
  161    -27.70899    2.00000
  162    -27.70834    2.00000
  163    -27.70829    2.00000
  164    -27.70796    2.00000
  165    -27.70763    2.00000
  166    -27.70753    2.00000
  167    -27.70635    2.00000
  168    -27.70612    2.00000
  169    -27.70583    2.00000
  170    -27.70559    2.00000
  171    -27.70517    2.00000
  172    -27.70449    2.00000
  173    -27.70407    2.00000
  174    -27.70341    2.00000
  175    -27.70313    2.00000
  176    -27.70301    2.00000
  177    -27.70250    2.00000
  178    -27.70191    2.00000
  179    -27.70159    2.00000
  180    -27.70098    2.00000
  181    -27.70063    2.00000
  182    -27.70035    2.00000
  183    -27.69971    2.00000
  184    -27.69938    2.00000
  185    -27.69865    2.00000
  186    -27.69862    2.00000
  187    -27.69849    2.00000
  188    -27.69812    2.00000
  189    -27.69752    2.00000
  190    -27.69740    2.00000
  191    -27.69712    2.00000
  192    -27.69685    2.00000
  193    -27.69658    2.00000
  194    -27.69634    2.00000
  195    -27.69589    2.00000
  196    -27.69556    2.00000
  197    -27.69552    2.00000
  198    -27.69438    2.00000
  199    -27.69415    2.00000
  200    -27.69400    2.00000
  201    -27.69392    2.00000
  202    -27.69375    2.00000
  203    -27.69350    2.00000
  204    -27.69308    2.00000
  205    -27.69199    2.00000
  206    -27.69121    2.00000
  207    -27.69114    2.00000
  208    -27.69077    2.00000
  209    -27.69065    2.00000
  210    -27.68891    2.00000
  211    -27.68858    2.00000
  212    -27.68826    2.00000
  213    -27.68813    2.00000
  214    -27.68786    2.00000
  215    -27.68573    2.00000
  216    -27.68485    2.00000
  217    -27.68429    2.00000
  218    -27.68139    2.00000
  219     -5.89561    2.00000
  220     -5.41487    2.00000
  221     -5.40108    2.00000
  222     -5.33763    2.00000
  223     -4.93417    2.00000
  224     -4.92973    2.00000
  225     -4.87462    2.00000
  226     -4.85502    2.00000
  227     -4.47400    1.99997
  228     -4.46595    1.99997
  229     -4.45476    1.99997
  230     -4.45102    1.99996
  231     -4.43738    1.99996
  232     -4.38942    1.99995
  233     -4.38466    1.99994
  234     -4.01167    1.99933
  235     -3.98838    1.99922
  236     -3.98548    1.99921
  237     -3.94273    1.99894
  238     -3.91869    1.99876
  239     -3.91611    1.99874
  240     -3.91098    1.99869
  241     -3.90241    1.99862
  242     -3.54120    1.98474
  243     -3.48701    1.97818
  244     -3.45250    1.97261
  245     -3.44910    1.97199
  246     -3.28773    1.92003
  247     -3.07570    1.70766
  248     -3.07042    1.69876
  249     -3.06897    1.69628
  250     -3.06755    1.69382
  251     -3.05657    1.67436
  252     -3.02928    1.62167
  253     -3.01410    1.58965
  254     -3.00464    1.56870
  255     -2.84157    1.10167
  256     -2.74291    0.77698
  257     -2.57697    0.34731
  258     -2.56116    0.31809
  259     -2.53050    0.26714
  260     -2.53011    0.26655
  261     -2.52869    0.26436
  262     -2.52441    0.25789
  263     -2.41681    0.13476
  264     -2.32408    0.07495
  265     -2.20124    0.03375
  266     -2.14692    0.02362
  267     -2.14244    0.02293
  268     -1.96223    0.00695
  269     -1.92650    0.00548
  270     -1.90066    0.00462
  271     -1.87815    0.00398
  272     -1.84063    0.00310
  273     -1.76175    0.00183
  274     -1.73598    0.00154
  275     -1.72989    0.00148
  276     -1.71683    0.00136
  277     -1.71465    0.00134
  278     -1.71019    0.00130
  279     -1.70929    0.00129
  280     -1.70344    0.00124
  281     -1.70289    0.00124
  282     -1.67825    0.00105
  283     -1.63316    0.00078
  284     -1.62944    0.00076
  285     -1.44433    0.00022
  286     -1.42165    0.00019
  287     -1.39362    0.00016
  288     -1.34892    0.00012
  289     -1.33581    0.00011
  290     -1.27933    0.00007
  291     -1.10729    0.00002
  292     -1.04456    0.00002
  293     -1.04284    0.00002
  294     -1.02802    0.00001
  295     -1.01747    0.00001
  296     -1.00982    0.00001
  297     -1.00417    0.00001
  298     -0.88556    0.00001
  299     -0.85012    0.00000
  300     -0.83180    0.00000
  301     -0.81914    0.00000
  302     -0.80781    0.00000
  303     -0.76390    0.00000
  304     -0.76003    0.00000
  305     -0.59672    0.00000
  306     -0.59340    0.00000
  307     -0.56885    0.00000
  308     -0.52324    0.00000
  309     -0.52193    0.00000
  310     -0.50831    0.00000

Fermi level: -2.81096

Gap: 0.099 eV
Transition (v -> c):
  (s=0, k=0, n=255, [0.00, 0.00, 0.00]) -> (s=0, k=0, n=256, [0.00, 0.00, 0.00])
No difference between direct/indirect transitions

Forces in eV/Ang:
  0 Na   -0.00047    0.00377   -0.00290
  1 Na   -0.00022   -0.00109   -0.00672
  2 Na    0.00584   -0.00463   -0.00761
  3 Na    0.00105   -0.00025    0.00408
  4 Na    0.00559    0.00852    0.00161
  5 Na   -0.01751   -0.00403    0.00586
  6 Na   -0.00179    0.00809    0.04756
  7 Na   -0.04331    0.03373   -0.11856
  8 Na   -0.00074   -0.00584   -0.00170
  9 Na    0.00851   -0.00664    0.00272
 10 Na    0.00547    0.01026   -0.01199
 11 Na    0.00359   -0.00095    0.01259
 12 Na   -0.00224   -0.01319    0.00505
 13 Na    0.01164   -0.00376    0.01223
 14 Na   -0.01023   -0.01797    0.02423
 15 Na    0.00560   -0.01101    0.00591
 16 Na   -0.00320    0.00221    0.00791
 17 Na    0.00539    0.00765    0.00077
 18 Na    0.00237   -0.00542    0.00729
 19 Na    0.00350    0.00086    0.00863
 20 Na   -0.00320    0.00224    0.01317
 21 Na    0.01114    0.00865    0.01498
 22 Na   -0.00913   -0.00371   -0.00059
 23 Na    0.00009    0.02111    0.01799
 24 Na    0.00030   -0.00161   -0.00495
 25 Na    0.00043    0.00065   -0.00454
 26 Na   -0.00055   -0.00140    0.00630
 27 Na    0.00187   -0.00129    0.00704
 28 Na   -0.00512   -0.00013    0.00465
 29 Na    0.00126    0.00007   -0.00150
 30 Na   -0.00147   -0.00105   -0.00109
 31 Na   -0.00144    0.00218   -0.00161
 32 Na    0.00261    0.00291   -0.00626
 33 Na    0.00255    0.00593   -0.01634
 34 Na   -0.00006    0.00312    0.00634
 35 Na   -0.00292   -0.00008    0.01092
 36 Na    0.00418    0.00051    0.00239
 37 Na   -0.00017    0.00025   -0.00358
 38 Na   -0.00280   -0.00035    0.00010
 39 Na   -0.00869   -0.00517   -0.00057
 40 Na    0.01019   -0.00131   -0.00737
 41 Na    0.00222   -0.00654   -0.01441
 42 Na    0.00071   -0.00157    0.00872
 43 Na   -0.00196    0.00121    0.00974
 44 Na    0.00394   -0.00058   -0.00006
 45 Na    0.00067   -0.00044   -0.00296
 46 Na   -0.00316    0.00104   -0.00051
 47 Na   -0.00077    0.00314   -0.00586
 48 Na   -0.00095   -0.00325   -0.00538
 49 Na    0.00068   -0.00102   -0.00656
 50 Na   -0.00689   -0.00426   -0.00366
 51 Na   -0.00123   -0.00004   -0.00805
 52 Na   -0.00233    0.00003   -0.00114
 53 Na    0.01820    0.00127    0.00614
 54 Na    0.01335    0.01148    0.02216
 55 Na    0.00472   -0.00036   -0.00268
 56 Na   -0.00321    0.00490   -0.00692
 57 Na   -0.00860   -0.00374    0.00039
 58 Na   -0.00637    0.00453   -0.00280
 59 Na   -0.00025    0.02397   -0.03148
 60 Na   -0.00295    0.00023   -0.00203
 61 Na   -0.01128   -0.00135    0.01218
 62 Na    0.00661   -0.01290    0.01347
 63 Na    0.00989   -0.00536   -0.00036
 64 Na   -0.00993   -0.00167   -0.01273
 65 Na   -0.00543    0.00466   -0.00209
 66 Na   -0.00376   -0.00021    0.01576
 67 Na   -0.00086   -0.02384   -0.03623
 68 Na   -0.00020   -0.00025   -0.00346
 69 Na   -0.01032    0.00078    0.01175
 70 Na    0.00952    0.00059    0.00201
 71 Na    0.00938    0.00603   -0.00023
 72 Na    0.02409   -0.02864    0.02100

System changes: positions 

Initializing position-dependent things.

Density initialized from wave functions
         .-------------------------------------------.  
        /|                                           |  
       / |                                           |  
      /  |                                           |  
     /   |                                           |  
    /    |                                           |  
   /     |                                           |  
  /      |                                           |  
 *       |                                           |  
 |       |                                           |  
 |       |                                           |  
 |       |                                           |  
 |       |                                           |  
 |       |                                           |  
 |      Na            Na             Na              |  
 |       |    Na            Na             Na        |  
 | Na    |          Na            Na             Na  Na 
 |       |                    Na            Na       |  
 |       | Na  Na         Na            Na           |  
 |       |       Na  Na         Na  Na            Na |  
 |Na    Na  Na         Na  Na         Na  Na         |  
 |      Na        Na  Na         Na  Na              |  
 |       |                                      Na   |  
 |       |Na  Na        Na  Na         Na  Na        |  
 |   Na  |      Na  Na        Na  Na                 |  
 |       | Na  Na         Na  Na        Na  Na       |  
 |    Na |           Na             Na               |  
 |Na     |       Na             Na                   |  
 |      Na  Na         Na  Na         Na  Na         |  
 |  Na   |        Na             Na                  |  
 |       |Na            Na             Na            |  
 |       |                                           |  
 Na      |      Na            Na                     |  
 |       |                                           |  
 |       |                                           |  
 |       |                                           |  
 |       .-------------------------------------------.  
 |      /                                           /   
 |     /                                           /    
 |    /                                           /     
 |   /                                           /      
 |  /                                           /       
 | /                                           /        
 |/                                           /         
 *-------------------------------------------*          

Atomic positions and initial magnetic moments

Positions:
   0 Na     0.000000    0.000000   10.000000    ( 0.0000,  0.0000,  0.0000)
   1 Na     2.991062    2.115000   10.000000    ( 0.0000,  0.0000,  0.0000)
   2 Na     2.991062    0.000000   12.991062    ( 0.0000,  0.0000,  0.0000)
   3 Na     5.982123    2.115000   12.991062    ( 0.0000,  0.0000,  0.0000)
   4 Na    -0.003368   -0.101133   15.833462    ( 0.0000,  0.0000,  0.0000)
   5 Na     3.005100    2.136510   15.919541    ( 0.0000,  0.0000,  0.0000)
   6 Na     2.953040    0.037250   18.935866    ( 0.0000,  0.0000,  0.0000)
   7 Na     0.008003    2.105914   18.503941    ( 0.0000,  0.0000,  0.0000)
   8 Na     0.000000    4.230000   10.000000    ( 0.0000,  0.0000,  0.0000)
   9 Na     2.991062    6.345000   10.000000    ( 0.0000,  0.0000,  0.0000)
  10 Na     2.991062    4.230000   12.991062    ( 0.0000,  0.0000,  0.0000)
  11 Na     5.982123    6.345000   12.991062    ( 0.0000,  0.0000,  0.0000)
  12 Na    -0.001088    4.330808   15.840106    ( 0.0000,  0.0000,  0.0000)
  13 Na     2.997201    6.340705   15.973605    ( 0.0000,  0.0000,  0.0000)
  14 Na     2.952539    4.186651   19.041436    ( 0.0000,  0.0000,  0.0000)
  15 Na    -0.000029    6.306962   19.019902    ( 0.0000,  0.0000,  0.0000)
  16 Na     0.000000    8.460000   10.000000    ( 0.0000,  0.0000,  0.0000)
  17 Na     2.991062   10.575000   10.000000    ( 0.0000,  0.0000,  0.0000)
  18 Na     2.991062    8.460000   12.991062    ( 0.0000,  0.0000,  0.0000)
  19 Na     5.982123   10.575000   12.991062    ( 0.0000,  0.0000,  0.0000)
  20 Na    -0.001097    8.459250   15.976050    ( 0.0000,  0.0000,  0.0000)
  21 Na     2.996780   10.557919   15.944328    ( 0.0000,  0.0000,  0.0000)
  22 Na     2.990722    8.466779   18.991413    ( 0.0000,  0.0000,  0.0000)
  23 Na     0.008437   10.621307   19.031838    ( 0.0000,  0.0000,  0.0000)
  24 Na     5.982123    0.000000   10.000000    ( 0.0000,  0.0000,  0.0000)
  25 Na     8.973185    2.115000   10.000000    ( 0.0000,  0.0000,  0.0000)
  26 Na     8.973185    0.000000   12.991062    ( 0.0000,  0.0000,  0.0000)
  27 Na    11.964247    2.115000   12.991062    ( 0.0000,  0.0000,  0.0000)
  28 Na     5.984858    0.000907   15.967126    ( 0.0000,  0.0000,  0.0000)
  29 Na     8.973144    2.113053   15.972462    ( 0.0000,  0.0000,  0.0000)
  30 Na     8.973193    0.000578   18.977246    ( 0.0000,  0.0000,  0.0000)
  31 Na     5.973782    2.105981   18.989710    ( 0.0000,  0.0000,  0.0000)
  32 Na     5.982123    4.230000   10.000000    ( 0.0000,  0.0000,  0.0000)
  33 Na     8.973185    6.345000   10.000000    ( 0.0000,  0.0000,  0.0000)
  34 Na     8.973185    4.230000   12.991062    ( 0.0000,  0.0000,  0.0000)
  35 Na    11.964247    6.345000   12.991062    ( 0.0000,  0.0000,  0.0000)
  36 Na     5.982999    4.229704   15.973812    ( 0.0000,  0.0000,  0.0000)
  37 Na     8.973093    6.346492   15.963730    ( 0.0000,  0.0000,  0.0000)
  38 Na     8.972887    4.229803   18.978363    ( 0.0000,  0.0000,  0.0000)
  39 Na     5.979469    6.342216   18.977760    ( 0.0000,  0.0000,  0.0000)
  40 Na     5.982123    8.460000   10.000000    ( 0.0000,  0.0000,  0.0000)
  41 Na     8.973185   10.575000   10.000000    ( 0.0000,  0.0000,  0.0000)
  42 Na     8.973185    8.460000   12.991062    ( 0.0000,  0.0000,  0.0000)
  43 Na    11.964247   10.575000   12.991062    ( 0.0000,  0.0000,  0.0000)
  44 Na     5.982702    8.459385   15.966808    ( 0.0000,  0.0000,  0.0000)
  45 Na     8.973138   10.575468   15.966148    ( 0.0000,  0.0000,  0.0000)
  46 Na     8.972884    8.459605   18.977601    ( 0.0000,  0.0000,  0.0000)
  47 Na     5.972222   10.586836   18.989196    ( 0.0000,  0.0000,  0.0000)
  48 Na    11.964247    0.000000   10.000000    ( 0.0000,  0.0000,  0.0000)
  49 Na    14.955308    2.115000   10.000000    ( 0.0000,  0.0000,  0.0000)
  50 Na    14.955308    0.000000   12.991062    ( 0.0000,  0.0000,  0.0000)
  51 Na    17.946370    2.115000   12.991062    ( 0.0000,  0.0000,  0.0000)
  52 Na    11.964807    0.000908   15.972364    ( 0.0000,  0.0000,  0.0000)
  53 Na    14.941349    2.113360   15.949736    ( 0.0000,  0.0000,  0.0000)
  54 Na    14.993392    0.037284   19.032353    ( 0.0000,  0.0000,  0.0000)
  55 Na    11.964280    2.113798   18.977950    ( 0.0000,  0.0000,  0.0000)
  56 Na    11.964247    4.230000   10.000000    ( 0.0000,  0.0000,  0.0000)
  57 Na    14.955308    6.345000   10.000000    ( 0.0000,  0.0000,  0.0000)
  58 Na    14.955308    4.230000   12.991062    ( 0.0000,  0.0000,  0.0000)
  59 Na    17.946370    6.345000   12.991062    ( 0.0000,  0.0000,  0.0000)
  60 Na    11.964440    4.230966   15.972294    ( 0.0000,  0.0000,  0.0000)
  61 Na    14.949270    6.340729   15.971609    ( 0.0000,  0.0000,  0.0000)
  62 Na    14.994124    4.194061   19.032198    ( 0.0000,  0.0000,  0.0000)
  63 Na    11.967017    6.342214   18.976678    ( 0.0000,  0.0000,  0.0000)
  64 Na    11.964247    8.460000   10.000000    ( 0.0000,  0.0000,  0.0000)
  65 Na    14.955308   10.575000   10.000000    ( 0.0000,  0.0000,  0.0000)
  66 Na    14.955308    8.460000   12.991062    ( 0.0000,  0.0000,  0.0000)
  67 Na    17.946370   10.575000   12.991062    ( 0.0000,  0.0000,  0.0000)
  68 Na    11.964762    8.458123   15.965300    ( 0.0000,  0.0000,  0.0000)
  69 Na    14.949671   10.581043   15.974488    ( 0.0000,  0.0000,  0.0000)
  70 Na    14.955981    8.459463   18.982309    ( 0.0000,  0.0000,  0.0000)
  71 Na    11.965894   10.579023   18.977503    ( 0.0000,  0.0000,  0.0000)
  72 Na     0.498921    1.761623   21.573164    ( 0.0000,  0.0000,  0.0000)

Unit cell:
           periodic     x           y           z      points  spacing
  1. axis:    yes   17.946370    0.000000    0.000000    88     0.2039
  2. axis:    yes    0.000000   12.690000    0.000000    64     0.1983
  3. axis:    no     0.000000    0.000000   28.973185   144     0.2012

  Lengths:  17.946370  12.690000  28.973185
  Angles:   90.000000  90.000000  90.000000

Effective grid spacing dv^(1/3) = 0.2011

     iter     time        total  log10-change:
                         energy   eigst   dens
iter:   1 13:04:44   -87.776454        c
iter:   2 13:05:26   -87.775936        c -3.57
iter:   3 13:06:19   -87.775867c       c -4.11c

Converged after 3 iterations.

Dipole moment: (-29.052324, -13.617009, 0.306638) |e|*Ang

Energy contributions relative to reference atoms: (reference = -322558.566329)

Kinetic:       +143.359032
Potential:     -130.544705
External:        +0.000000
XC:             -99.523585
Entropy (-ST):   -2.608509
Local:           +0.237647
SIC:             +0.000000
--------------------------
Free energy:    -89.080121
Extrapolated:   -87.775867

 Band  Eigenvalues  Occupancy
    0    -28.53043    2.00000
    1    -28.50771    2.00000
    2    -28.50515    2.00000
    3    -27.94907    2.00000
    4    -27.93916    2.00000
    5    -27.93790    2.00000
    6    -27.93543    2.00000
    7    -27.93347    2.00000
    8    -27.93218    2.00000
    9    -27.92836    2.00000
   10    -27.92802    2.00000
   11    -27.92605    2.00000
   12    -27.92499    2.00000
   13    -27.92467    2.00000
   14    -27.92407    2.00000
   15    -27.92134    2.00000
   16    -27.92079    2.00000
   17    -27.92071    2.00000
   18    -27.91960    2.00000
   19    -27.91945    2.00000
   20    -27.91903    2.00000
   21    -27.91883    2.00000
   22    -27.91831    2.00000
   23    -27.91781    2.00000
   24    -27.91768    2.00000
   25    -27.91704    2.00000
   26    -27.91579    2.00000
   27    -27.91550    2.00000
   28    -27.91513    2.00000
   29    -27.91510    2.00000
   30    -27.91485    2.00000
   31    -27.91441    2.00000
   32    -27.91402    2.00000
   33    -27.91382    2.00000
   34    -27.91380    2.00000
   35    -27.91322    2.00000
   36    -27.91261    2.00000
   37    -27.91203    2.00000
   38    -27.91168    2.00000
   39    -27.91164    2.00000
   40    -27.91147    2.00000
   41    -27.91112    2.00000
   42    -27.91093    2.00000
   43    -27.91083    2.00000
   44    -27.91022    2.00000
   45    -27.91002    2.00000
   46    -27.90998    2.00000
   47    -27.90967    2.00000
   48    -27.90959    2.00000
   49    -27.90913    2.00000
   50    -27.90875    2.00000
   51    -27.90859    2.00000
   52    -27.90786    2.00000
   53    -27.90762    2.00000
   54    -27.90722    2.00000
   55    -27.90718    2.00000
   56    -27.90626    2.00000
   57    -27.90624    2.00000
   58    -27.90588    2.00000
   59    -27.90415    2.00000
   60    -27.90356    2.00000
   61    -27.90343    2.00000
   62    -27.90314    2.00000
   63    -27.90250    2.00000
   64    -27.90206    2.00000
   65    -27.90182    2.00000
   66    -27.90094    2.00000
   67    -27.90059    2.00000
   68    -27.90030    2.00000
   69    -27.89946    2.00000
   70    -27.89912    2.00000
   71    -27.89896    2.00000
   72    -27.89866    2.00000
   73    -27.89783    2.00000
   74    -27.89614    2.00000
   75    -27.89599    2.00000
   76    -27.89562    2.00000
   77    -27.89502    2.00000
   78    -27.89469    2.00000
   79    -27.89429    2.00000
   80    -27.89296    2.00000
   81    -27.89222    2.00000
   82    -27.89210    2.00000
   83    -27.89198    2.00000
   84    -27.89133    2.00000
   85    -27.89132    2.00000
   86    -27.89066    2.00000
   87    -27.89056    2.00000
   88    -27.89052    2.00000
   89    -27.88962    2.00000
   90    -27.88950    2.00000
   91    -27.88851    2.00000
   92    -27.88788    2.00000
   93    -27.88786    2.00000
   94    -27.88698    2.00000
   95    -27.88672    2.00000
   96    -27.88435    2.00000
   97    -27.88277    2.00000
   98    -27.88261    2.00000
   99    -27.87879    2.00000
  100    -27.87814    2.00000
  101    -27.87291    2.00000
  102    -27.87043    2.00000
  103    -27.86746    2.00000
  104    -27.86482    2.00000
  105    -27.84467    2.00000
  106    -27.83528    2.00000
  107    -27.82966    2.00000
  108    -27.73981    2.00000
  109    -27.73857    2.00000
  110    -27.73743    2.00000
  111    -27.73663    2.00000
  112    -27.73386    2.00000
  113    -27.73343    2.00000
  114    -27.73238    2.00000
  115    -27.73106    2.00000
  116    -27.72865    2.00000
  117    -27.72777    2.00000
  118    -27.72527    2.00000
  119    -27.72428    2.00000
  120    -27.72391    2.00000
  121    -27.72353    2.00000
  122    -27.72346    2.00000
  123    -27.72314    2.00000
  124    -27.72297    2.00000
  125    -27.72236    2.00000
  126    -27.72198    2.00000
  127    -27.72189    2.00000
  128    -27.72128    2.00000
  129    -27.72091    2.00000
  130    -27.72059    2.00000
  131    -27.71975    2.00000
  132    -27.71920    2.00000
  133    -27.71863    2.00000
  134    -27.71837    2.00000
  135    -27.71791    2.00000
  136    -27.71746    2.00000
  137    -27.71718    2.00000
  138    -27.71687    2.00000
  139    -27.71634    2.00000
  140    -27.71607    2.00000
  141    -27.71602    2.00000
  142    -27.71563    2.00000
  143    -27.71499    2.00000
  144    -27.71476    2.00000
  145    -27.71443    2.00000
  146    -27.71385    2.00000
  147    -27.71370    2.00000
  148    -27.71355    2.00000
  149    -27.71323    2.00000
  150    -27.71240    2.00000
  151    -27.71216    2.00000
  152    -27.71176    2.00000
  153    -27.71157    2.00000
  154    -27.71155    2.00000
  155    -27.71114    2.00000
  156    -27.71065    2.00000
  157    -27.71007    2.00000
  158    -27.70984    2.00000
  159    -27.70971    2.00000
  160    -27.70938    2.00000
  161    -27.70905    2.00000
  162    -27.70897    2.00000
  163    -27.70833    2.00000
  164    -27.70826    2.00000
  165    -27.70812    2.00000
  166    -27.70795    2.00000
  167    -27.70668    2.00000
  168    -27.70658    2.00000
  169    -27.70639    2.00000
  170    -27.70592    2.00000
  171    -27.70571    2.00000
  172    -27.70507    2.00000
  173    -27.70450    2.00000
  174    -27.70408    2.00000
  175    -27.70377    2.00000
  176    -27.70372    2.00000
  177    -27.70316    2.00000
  178    -27.70224    2.00000
  179    -27.70207    2.00000
  180    -27.70136    2.00000
  181    -27.70100    2.00000
  182    -27.70099    2.00000
  183    -27.70021    2.00000
  184    -27.70004    2.00000
  185    -27.69946    2.00000
  186    -27.69921    2.00000
  187    -27.69909    2.00000
  188    -27.69843    2.00000
  189    -27.69838    2.00000
  190    -27.69822    2.00000
  191    -27.69795    2.00000
  192    -27.69758    2.00000
  193    -27.69734    2.00000
  194    -27.69694    2.00000
  195    -27.69660    2.00000
  196    -27.69632    2.00000
  197    -27.69599    2.00000
  198    -27.69552    2.00000
  199    -27.69535    2.00000
  200    -27.69490    2.00000
  201    -27.69480    2.00000
  202    -27.69452    2.00000
  203    -27.69439    2.00000
  204    -27.69367    2.00000
  205    -27.69307    2.00000
  206    -27.69248    2.00000
  207    -27.69208    2.00000
  208    -27.69184    2.00000
  209    -27.69171    2.00000
  210    -27.69006    2.00000
  211    -27.68989    2.00000
  212    -27.68930    2.00000
  213    -27.68906    2.00000
  214    -27.68882    2.00000
  215    -27.68719    2.00000
  216    -27.68652    2.00000
  217    -27.68593    2.00000
  218    -27.68315    2.00000
  219     -5.89504    2.00000
  220     -5.41436    2.00000
  221     -5.40048    2.00000
  222     -5.33672    2.00000
  223     -4.93361    2.00000
  224     -4.92915    2.00000
  225     -4.87368    2.00000
  226     -4.85416    2.00000
  227     -4.47346    1.99997
  228     -4.46536    1.99997
  229     -4.45416    1.99997
  230     -4.45043    1.99996
  231     -4.43655    1.99996
  232     -4.38862    1.99995
  233     -4.38382    1.99994
  234     -4.01097    1.99933
  235     -3.98780    1.99922
  236     -3.98486    1.99921
  237     -3.94225    1.99894
  238     -3.91785    1.99876
  239     -3.91523    1.99874
  240     -3.91009    1.99869
  241     -3.90156    1.99862
  242     -3.54033    1.98472
  243     -3.48648    1.97819
  244     -3.45163    1.97257
  245     -3.44829    1.97196
  246     -3.28713    1.92005
  247     -3.07513    1.70776
  248     -3.06980    1.69877
  249     -3.06840    1.69638
  250     -3.06697    1.69391
  251     -3.05599    1.67446
  252     -3.02875    1.62187
  253     -3.01358    1.58989
  254     -3.00420    1.56913
  255     -2.84099    1.10185
  256     -2.74236    0.77724
  257     -2.57616    0.34697
  258     -2.56046    0.31798
  259     -2.52967    0.26684
  260     -2.52928    0.26623
  261     -2.52789    0.26410
  262     -2.52357    0.25757
  263     -2.41614    0.13473
  264     -2.32348    0.07497
  265     -2.20063    0.03376
  266     -2.14637    0.02363
  267     -2.14188    0.02294
  268     -1.96164    0.00696
  269     -1.92594    0.00549
  270     -1.90002    0.00462
  271     -1.87761    0.00398
  272     -1.84011    0.00310
  273     -1.76109    0.00183
  274     -1.73525    0.00154
  275     -1.72931    0.00148
  276     -1.71625    0.00136
  277     -1.71414    0.00134
  278     -1.70968    0.00130
  279     -1.70882    0.00129
  280     -1.70285    0.00124
  281     -1.70221    0.00124
  282     -1.67778    0.00105
  283     -1.63227    0.00078
  284     -1.62863    0.00076
  285     -1.44336    0.00022
  286     -1.42077    0.00019
  287     -1.39296    0.00016
  288     -1.34837    0.00012
  289     -1.33522    0.00011
  290     -1.27881    0.00007
  291     -1.10653    0.00002
  292     -1.04400    0.00002
  293     -1.04228    0.00002
  294     -1.02711    0.00001
  295     -1.01666    0.00001
  296     -1.00902    0.00001
  297     -1.00340    0.00001
  298     -0.88489    0.00001
  299     -0.84955    0.00000
  300     -0.83108    0.00000
  301     -0.81865    0.00000
  302     -0.80711    0.00000
  303     -0.76344    0.00000
  304     -0.75949    0.00000
  305     -0.59613    0.00000
  306     -0.59282    0.00000
  307     -0.56805    0.00000
  308     -0.52239    0.00000
  309     -0.52120    0.00000
  310     -0.50773    0.00000

Fermi level: -2.81033

Gap: 0.099 eV
Transition (v -> c):
  (s=0, k=0, n=255, [0.00, 0.00, 0.00]) -> (s=0, k=0, n=256, [0.00, 0.00, 0.00])
No difference between direct/indirect transitions

Forces in eV/Ang:
  0 Na   -0.00041    0.00302   -0.00298
  1 Na   -0.00038   -0.00093   -0.00677
  2 Na    0.00511   -0.00450   -0.00851
  3 Na    0.00042   -0.00022    0.00231
  4 Na    0.00499    0.00624   -0.00025
  5 Na   -0.01535   -0.00357    0.00484
  6 Na   -0.00279    0.00887    0.04952
  7 Na   -0.04230    0.03303   -0.11167
  8 Na   -0.00065   -0.00497   -0.00182
  9 Na    0.00803   -0.00620    0.00240
 10 Na    0.00469    0.00994   -0.01304
 11 Na    0.00372   -0.00113    0.01041
 12 Na   -0.00270   -0.01041    0.00371
 13 Na    0.01203   -0.00252    0.01435
 14 Na   -0.01076   -0.01833    0.02535
 15 Na    0.00561   -0.01010    0.00513
 16 Na   -0.00309    0.00210    0.00738
 17 Na    0.00494    0.00705    0.00052
 18 Na    0.00177   -0.00523    0.00525
 19 Na    0.00344    0.00100    0.00661
 20 Na   -0.00324    0.00174    0.01559
 21 Na    0.01196    0.00700    0.01617
 22 Na   -0.00852   -0.00409   -0.00260
 23 Na    0.00024    0.02065    0.01841
 24 Na    0.00034   -0.00165   -0.00473
 25 Na    0.00059    0.00054   -0.00411
 26 Na   -0.00057   -0.00183    0.00320
 27 Na    0.00232   -0.00123    0.00452
 28 Na   -0.00468   -0.00061    0.00731
 29 Na    0.00082    0.00016    0.00300
 30 Na   -0.00135   -0.00119   -0.00253
 31 Na    0.00033    0.00223   -0.00259
 32 Na    0.00246    0.00299   -0.00599
 33 Na    0.00246    0.00566   -0.01533
 34 Na   -0.00004    0.00365    0.00344
 35 Na   -0.00321   -0.00003    0.00865
 36 Na    0.00440    0.00098    0.00528
 37 Na   -0.00034    0.00048    0.00010
 38 Na   -0.00271   -0.00025   -0.00134
 39 Na   -0.00773   -0.00444   -0.00259
 40 Na    0.00934   -0.00135   -0.00709
 41 Na    0.00220   -0.00615   -0.01352
 42 Na    0.00091   -0.00165    0.00640
 43 Na   -0.00210    0.00109    0.00746
 44 Na    0.00359   -0.00057    0.00412
 45 Na    0.00039   -0.00077    0.00096
 46 Na   -0.00337    0.00109   -0.00194
 47 Na    0.00052    0.00234   -0.00771
 48 Na   -0.00119   -0.00306   -0.00495
 49 Na    0.00080   -0.00093   -0.00651
 50 Na   -0.00611   -0.00410   -0.00472
 51 Na   -0.00110   -0.00000   -0.00868
 52 Na   -0.00188   -0.00030    0.00249
 53 Na    0.01608    0.00158    0.00629
 54 Na    0.01306    0.01169    0.02262
 55 Na    0.00341   -0.00031   -0.00417
 56 Na   -0.00329    0.00468   -0.00641
 57 Na   -0.00787   -0.00338    0.00028
 58 Na   -0.00559    0.00426   -0.00398
 59 Na   -0.00005    0.02317   -0.03301
 60 Na   -0.00246    0.00060    0.00164
 61 Na   -0.01150   -0.00066    0.01497
 62 Na    0.00595   -0.01266    0.01326
 63 Na    0.00955   -0.00505   -0.00219
 64 Na   -0.00936   -0.00164   -0.01204
 65 Na   -0.00480    0.00420   -0.00217
 66 Na   -0.00340   -0.00008    0.01359
 67 Na   -0.00065   -0.02309   -0.03755
 68 Na    0.00014   -0.00029    0.00041
 69 Na   -0.01094   -0.00023    0.01377
 70 Na    0.00861    0.00022   -0.00025
 71 Na    0.00873    0.00566   -0.00195
 72 Na    0.02414   -0.02856    0.01529

System changes: positions 

Initializing position-dependent things.

Density initialized from wave functions
         .-------------------------------------------.  
        /|                                           |  
       / |                                           |  
      /  |                                           |  
     /   |                                           |  
    /    |                                           |  
   /     |                                           |  
  /      |                                           |  
 *       |                                           |  
 |       |                                           |  
 |       |                                           |  
 |       |                                           |  
 |       |                                           |  
 |       |                                           |  
 |      Na            Na             Na              |  
 |       |    Na            Na             Na        |  
 | NaNa  |          Na            Na                 Na 
 |       |                    Na            Na       |  
 |       | Na  Na         Na            Na           |  
 |       |       Na  Na         Na  Na            Na |  
 |Na    Na  Na         Na  Na         Na  Na         |  
 |      Na        Na  Na         Na  Na              |  
 |       |                                      Na   |  
 |       |Na  Na        Na  Na         Na  Na        |  
 |   Na  |      Na  Na        Na  Na                 |  
 |       | Na  Na         Na  Na        Na  Na       |  
 |    Na |           Na             Na               |  
 |Na     |       Na             Na                   |  
 |      Na  Na         Na  Na         Na  Na         |  
 |  Na   |        Na             Na                  |  
 |       |Na            Na             Na            |  
 |       |                                           |  
 Na      |      Na            Na                     |  
 |       |                                           |  
 |       |                                           |  
 |       |                                           |  
 |       .-------------------------------------------.  
 |      /                                           /   
 |     /                                           /    
 |    /                                           /     
 |   /                                           /      
 |  /                                           /       
 | /                                           /        
 |/                                           /         
 *-------------------------------------------*          

Atomic positions and initial magnetic moments

Positions:
   0 Na     0.000000    0.000000   10.000000    ( 0.0000,  0.0000,  0.0000)
   1 Na     2.991062    2.115000   10.000000    ( 0.0000,  0.0000,  0.0000)
   2 Na     2.991062    0.000000   12.991062    ( 0.0000,  0.0000,  0.0000)
   3 Na     5.982123    2.115000   12.991062    ( 0.0000,  0.0000,  0.0000)
   4 Na    -0.003262   -0.100992   15.833469    ( 0.0000,  0.0000,  0.0000)
   5 Na     3.004774    2.136429   15.919653    ( 0.0000,  0.0000,  0.0000)
   6 Na     2.952992    0.037422   18.936865    ( 0.0000,  0.0000,  0.0000)
   7 Na     0.007145    2.106584   18.501617    ( 0.0000,  0.0000,  0.0000)
   8 Na     0.000000    4.230000   10.000000    ( 0.0000,  0.0000,  0.0000)
   9 Na     2.991062    6.345000   10.000000    ( 0.0000,  0.0000,  0.0000)
  10 Na     2.991062    4.230000   12.991062    ( 0.0000,  0.0000,  0.0000)
  11 Na     5.982123    6.345000   12.991062    ( 0.0000,  0.0000,  0.0000)
  12 Na    -0.001137    4.330580   15.840186    ( 0.0000,  0.0000,  0.0000)
  13 Na     2.997438    6.340643   15.973874    ( 0.0000,  0.0000,  0.0000)
  14 Na     2.952326    4.186287   19.041934    ( 0.0000,  0.0000,  0.0000)
  15 Na     0.000083    6.306750   19.020014    ( 0.0000,  0.0000,  0.0000)
  16 Na     0.000000    8.460000   10.000000    ( 0.0000,  0.0000,  0.0000)
  17 Na     2.991062   10.575000   10.000000    ( 0.0000,  0.0000,  0.0000)
  18 Na     2.991062    8.460000   12.991062    ( 0.0000,  0.0000,  0.0000)
  19 Na     5.982123   10.575000   12.991062    ( 0.0000,  0.0000,  0.0000)
  20 Na    -0.001161    8.459289   15.976340    ( 0.0000,  0.0000,  0.0000)
  21 Na     2.997012   10.558079   15.944648    ( 0.0000,  0.0000,  0.0000)
  22 Na     2.990546    8.466699   18.991377    ( 0.0000,  0.0000,  0.0000)
  23 Na     0.008438   10.621725   19.032202    ( 0.0000,  0.0000,  0.0000)
  24 Na     5.982123    0.000000   10.000000    ( 0.0000,  0.0000,  0.0000)
  25 Na     8.973185    2.115000   10.000000    ( 0.0000,  0.0000,  0.0000)
  26 Na     8.973185    0.000000   12.991062    ( 0.0000,  0.0000,  0.0000)
  27 Na    11.964247    2.115000   12.991062    ( 0.0000,  0.0000,  0.0000)
  28 Na     5.984759    0.000899   15.967250    ( 0.0000,  0.0000,  0.0000)
  29 Na     8.973164    2.113055   15.972481    ( 0.0000,  0.0000,  0.0000)
  30 Na     8.973165    0.000555   18.977208    ( 0.0000,  0.0000,  0.0000)
  31 Na     5.973775    2.106027   18.989664    ( 0.0000,  0.0000,  0.0000)
  32 Na     5.982123    4.230000   10.000000    ( 0.0000,  0.0000,  0.0000)
  33 Na     8.973185    6.345000   10.000000    ( 0.0000,  0.0000,  0.0000)
  34 Na     8.973185    4.230000   12.991062    ( 0.0000,  0.0000,  0.0000)
  35 Na    11.964247    6.345000   12.991062    ( 0.0000,  0.0000,  0.0000)
  36 Na     5.983085    4.229719   15.973892    ( 0.0000,  0.0000,  0.0000)
  37 Na     8.973088    6.346499   15.963699    ( 0.0000,  0.0000,  0.0000)
  38 Na     8.972832    4.229798   18.978349    ( 0.0000,  0.0000,  0.0000)
  39 Na     5.979305    6.342120   18.977726    ( 0.0000,  0.0000,  0.0000)
  40 Na     5.982123    8.460000   10.000000    ( 0.0000,  0.0000,  0.0000)
  41 Na     8.973185   10.575000   10.000000    ( 0.0000,  0.0000,  0.0000)
  42 Na     8.973185    8.460000   12.991062    ( 0.0000,  0.0000,  0.0000)
  43 Na    11.964247   10.575000   12.991062    ( 0.0000,  0.0000,  0.0000)
  44 Na     5.982777    8.459373   15.966852    ( 0.0000,  0.0000,  0.0000)
  45 Na     8.973148   10.575455   15.966132    ( 0.0000,  0.0000,  0.0000)
  46 Na     8.972818    8.459626   18.977575    ( 0.0000,  0.0000,  0.0000)
  47 Na     5.972223   10.586889   18.989056    ( 0.0000,  0.0000,  0.0000)
  48 Na    11.964247    0.000000   10.000000    ( 0.0000,  0.0000,  0.0000)
  49 Na    14.955308    2.115000   10.000000    ( 0.0000,  0.0000,  0.0000)
  50 Na    14.955308    0.000000   12.991062    ( 0.0000,  0.0000,  0.0000)
  51 Na    17.946370    2.115000   12.991062    ( 0.0000,  0.0000,  0.0000)
  52 Na    11.964765    0.000905   15.972381    ( 0.0000,  0.0000,  0.0000)
  53 Na    14.941690    2.113389   15.949859    ( 0.0000,  0.0000,  0.0000)
  54 Na    14.993658    0.037518   19.032805    ( 0.0000,  0.0000,  0.0000)
  55 Na    11.964360    2.113791   18.977880    ( 0.0000,  0.0000,  0.0000)
  56 Na    11.964247    4.230000   10.000000    ( 0.0000,  0.0000,  0.0000)
  57 Na    14.955308    6.345000   10.000000    ( 0.0000,  0.0000,  0.0000)
  58 Na    14.955308    4.230000   12.991062    ( 0.0000,  0.0000,  0.0000)
  59 Na    17.946370    6.345000   12.991062    ( 0.0000,  0.0000,  0.0000)
  60 Na    11.964386    4.230975   15.972294    ( 0.0000,  0.0000,  0.0000)
  61 Na    14.949042    6.340709   15.971884    ( 0.0000,  0.0000,  0.0000)
  62 Na    14.994251    4.193804   19.032468    ( 0.0000,  0.0000,  0.0000)
  63 Na    11.967212    6.342110   18.976650    ( 0.0000,  0.0000,  0.0000)
  64 Na    11.964247    8.460000   10.000000    ( 0.0000,  0.0000,  0.0000)
  65 Na    14.955308   10.575000   10.000000    ( 0.0000,  0.0000,  0.0000)
  66 Na    14.955308    8.460000   12.991062    ( 0.0000,  0.0000,  0.0000)
  67 Na    17.946370   10.575000   12.991062    ( 0.0000,  0.0000,  0.0000)
  68 Na    11.964762    8.458118   15.965273    ( 0.0000,  0.0000,  0.0000)
  69 Na    14.949457   10.581048   15.974745    ( 0.0000,  0.0000,  0.0000)
  70 Na    14.956162    8.459470   18.982324    ( 0.0000,  0.0000,  0.0000)
  71 Na    11.966075   10.579140   18.977479    ( 0.0000,  0.0000,  0.0000)
  72 Na     0.499286    1.761133   21.573521    ( 0.0000,  0.0000,  0.0000)

Unit cell:
           periodic     x           y           z      points  spacing
  1. axis:    yes   17.946370    0.000000    0.000000    88     0.2039
  2. axis:    yes    0.000000   12.690000    0.000000    64     0.1983
  3. axis:    no     0.000000    0.000000   28.973185   144     0.2012

  Lengths:  17.946370  12.690000  28.973185
  Angles:   90.000000  90.000000  90.000000

Effective grid spacing dv^(1/3) = 0.2011

     iter     time        total  log10-change:
                         energy   eigst   dens
iter:   1 13:34:19   -87.775330        c
iter:   2 13:35:26   -87.775629        c -3.78
iter:   3 13:36:27   -87.776028c       c -4.01c

Converged after 3 iterations.

Dipole moment: (-29.026627, -13.627345, 0.307121) |e|*Ang

Energy contributions relative to reference atoms: (reference = -322558.566329)

Kinetic:       +143.655786
Potential:     -130.808475
External:        +0.000000
XC:             -99.556519
Entropy (-ST):   -2.609236
Local:           +0.237798
SIC:             +0.000000
--------------------------
Free energy:    -89.080646
Extrapolated:   -87.776028

 Band  Eigenvalues  Occupancy
    0    -28.53452    2.00000
    1    -28.51194    2.00000
    2    -28.50937    2.00000
    3    -27.95095    2.00000
    4    -27.94098    2.00000
    5    -27.93763    2.00000
    6    -27.93529    2.00000
    7    -27.93523    2.00000
    8    -27.93273    2.00000
    9    -27.92969    2.00000
   10    -27.92800    2.00000
   11    -27.92597    2.00000
   12    -27.92556    2.00000
   13    -27.92520    2.00000
   14    -27.92474    2.00000
   15    -27.92256    2.00000
   16    -27.92164    2.00000
   17    -27.92094    2.00000
   18    -27.92062    2.00000
   19    -27.92061    2.00000
   20    -27.91999    2.00000
   21    -27.91977    2.00000
   22    -27.91930    2.00000
   23    -27.91857    2.00000
   24    -27.91853    2.00000
   25    -27.91761    2.00000
   26    -27.91722    2.00000
   27    -27.91674    2.00000
   28    -27.91598    2.00000
   29    -27.91586    2.00000
   30    -27.91576    2.00000
   31    -27.91573    2.00000
   32    -27.91471    2.00000
   33    -27.91415    2.00000
   34    -27.91413    2.00000
   35    -27.91406    2.00000
   36    -27.91301    2.00000
   37    -27.91274    2.00000
   38    -27.91249    2.00000
   39    -27.91219    2.00000
   40    -27.91218    2.00000
   41    -27.91200    2.00000
   42    -27.91169    2.00000
   43    -27.91099    2.00000
   44    -27.91095    2.00000
   45    -27.91078    2.00000
   46    -27.91076    2.00000
   47    -27.91021    2.00000
   48    -27.91013    2.00000
   49    -27.90982    2.00000
   50    -27.90933    2.00000
   51    -27.90918    2.00000
   52    -27.90841    2.00000
   53    -27.90777    2.00000
   54    -27.90768    2.00000
   55    -27.90766    2.00000
   56    -27.90702    2.00000
   57    -27.90687    2.00000
   58    -27.90601    2.00000
   59    -27.90487    2.00000
   60    -27.90464    2.00000
   61    -27.90416    2.00000
   62    -27.90339    2.00000
   63    -27.90338    2.00000
   64    -27.90305    2.00000
   65    -27.90249    2.00000
   66    -27.90152    2.00000
   67    -27.90146    2.00000
   68    -27.90111    2.00000
   69    -27.89999    2.00000
   70    -27.89969    2.00000
   71    -27.89959    2.00000
   72    -27.89903    2.00000
   73    -27.89881    2.00000
   74    -27.89760    2.00000
   75    -27.89697    2.00000
   76    -27.89607    2.00000
   77    -27.89602    2.00000
   78    -27.89498    2.00000
   79    -27.89360    2.00000
   80    -27.89338    2.00000
   81    -27.89320    2.00000
   82    -27.89243    2.00000
   83    -27.89202    2.00000
   84    -27.89201    2.00000
   85    -27.89158    2.00000
   86    -27.89131    2.00000
   87    -27.89090    2.00000
   88    -27.89078    2.00000
   89    -27.88974    2.00000
   90    -27.88940    2.00000
   91    -27.88903    2.00000
   92    -27.88891    2.00000
   93    -27.88817    2.00000
   94    -27.88784    2.00000
   95    -27.88697    2.00000
   96    -27.88370    2.00000
   97    -27.88266    2.00000
   98    -27.88236    2.00000
   99    -27.87802    2.00000
  100    -27.87802    2.00000
  101    -27.87286    2.00000
  102    -27.87033    2.00000
  103    -27.86724    2.00000
  104    -27.86457    2.00000
  105    -27.84371    2.00000
  106    -27.83436    2.00000
  107    -27.82876    2.00000
  108    -27.73913    2.00000
  109    -27.73801    2.00000
  110    -27.73674    2.00000
  111    -27.73601    2.00000
  112    -27.73484    2.00000
  113    -27.73437    2.00000
  114    -27.73165    2.00000
  115    -27.73083    2.00000
  116    -27.72836    2.00000
  117    -27.72771    2.00000
  118    -27.72612    2.00000
  119    -27.72496    2.00000
  120    -27.72453    2.00000
  121    -27.72412    2.00000
  122    -27.72394    2.00000
  123    -27.72351    2.00000
  124    -27.72344    2.00000
  125    -27.72272    2.00000
  126    -27.72253    2.00000
  127    -27.72208    2.00000
  128    -27.72171    2.00000
  129    -27.72148    2.00000
  130    -27.72087    2.00000
  131    -27.72032    2.00000
  132    -27.71946    2.00000
  133    -27.71905    2.00000
  134    -27.71818    2.00000
  135    -27.71792    2.00000
  136    -27.71746    2.00000
  137    -27.71679    2.00000
  138    -27.71669    2.00000
  139    -27.71646    2.00000
  140    -27.71615    2.00000
  141    -27.71591    2.00000
  142    -27.71555    2.00000
  143    -27.71499    2.00000
  144    -27.71452    2.00000
  145    -27.71418    2.00000
  146    -27.71387    2.00000
  147    -27.71332    2.00000
  148    -27.71316    2.00000
  149    -27.71285    2.00000
  150    -27.71271    2.00000
  151    -27.71223    2.00000
  152    -27.71198    2.00000
  153    -27.71171    2.00000
  154    -27.71163    2.00000
  155    -27.71156    2.00000
  156    -27.71091    2.00000
  157    -27.71057    2.00000
  158    -27.71022    2.00000
  159    -27.70971    2.00000
  160    -27.70954    2.00000
  161    -27.70940    2.00000
  162    -27.70882    2.00000
  163    -27.70873    2.00000
  164    -27.70838    2.00000
  165    -27.70802    2.00000
  166    -27.70789    2.00000
  167    -27.70675    2.00000
  168    -27.70646    2.00000
  169    -27.70617    2.00000
  170    -27.70600    2.00000
  171    -27.70551    2.00000
  172    -27.70489    2.00000
  173    -27.70443    2.00000
  174    -27.70379    2.00000
  175    -27.70345    2.00000
  176    -27.70330    2.00000
  177    -27.70277    2.00000
  178    -27.70231    2.00000
  179    -27.70193    2.00000
  180    -27.70144    2.00000
  181    -27.70109    2.00000
  182    -27.70070    2.00000
  183    -27.70016    2.00000
  184    -27.69977    2.00000
  185    -27.69913    2.00000
  186    -27.69899    2.00000
  187    -27.69892    2.00000
  188    -27.69843    2.00000
  189    -27.69780    2.00000
  190    -27.69766    2.00000
  191    -27.69736    2.00000
  192    -27.69712    2.00000
  193    -27.69699    2.00000
  194    -27.69664    2.00000
  195    -27.69613    2.00000
  196    -27.69580    2.00000
  197    -27.69560    2.00000
  198    -27.69461    2.00000
  199    -27.69420    2.00000
  200    -27.69416    2.00000
  201    -27.69401    2.00000
  202    -27.69389    2.00000
  203    -27.69357    2.00000
  204    -27.69314    2.00000
  205    -27.69210    2.00000
  206    -27.69135    2.00000
  207    -27.69113    2.00000
  208    -27.69066    2.00000
  209    -27.69063    2.00000
  210    -27.68883    2.00000
  211    -27.68848    2.00000
  212    -27.68813    2.00000
  213    -27.68801    2.00000
  214    -27.68769    2.00000
  215    -27.68563    2.00000
  216    -27.68473    2.00000
  217    -27.68418    2.00000
  218    -27.68126    2.00000
  219     -5.89541    2.00000
  220     -5.41468    2.00000
  221     -5.40084    2.00000
  222     -5.33745    2.00000
  223     -4.93401    2.00000
  224     -4.92951    2.00000
  225     -4.87439    2.00000
  226     -4.85482    2.00000
  227     -4.47373    1.99997
  228     -4.46573    1.99997
  229     -4.45454    1.99997
  230     -4.45078    1.99996
  231     -4.43719    1.99996
  232     -4.38925    1.99995
  233     -4.38448    1.99994
  234     -4.01130    1.99933
  235     -3.98819    1.99922
  236     -3.98525    1.99921
  237     -3.94254    1.99894
  238     -3.91851    1.99876
  239     -3.91595    1.99874
  240     -3.91080    1.99869
  241     -3.90220    1.99862
  242     -3.54091    1.98473
  243     -3.48681    1.97818
  244     -3.45232    1.97261
  245     -3.44892    1.97199
  246     -3.28759    1.92006
  247     -3.07550    1.70765
  248     -3.07018    1.69869
  249     -3.06878    1.69628
  250     -3.06733    1.69379
  251     -3.05632    1.67426
  252     -3.02906    1.62163
  253     -3.01388    1.58961
  254     -3.00447    1.56877
  255     -2.84138    1.10170
  256     -2.74273    0.77703
  257     -2.57674    0.34725
  258     -2.56092    0.31802
  259     -2.53029    0.26713
  260     -2.52993    0.26656
  261     -2.52853    0.26442
  262     -2.52425    0.25794
  263     -2.41670    0.13483
  264     -2.32395    0.07498
  265     -2.20106    0.03376
  266     -2.14672    0.02362
  267     -2.14225    0.02293
  268     -1.96195    0.00695
  269     -1.92627    0.00548
  270     -1.90047    0.00462
  271     -1.87803    0.00398
  272     -1.84047    0.00310
  273     -1.76159    0.00183
  274     -1.73573    0.00154
  275     -1.72970    0.00148
  276     -1.71662    0.00136
  277     -1.71446    0.00134
  278     -1.70997    0.00130
  279     -1.70907    0.00129
  280     -1.70333    0.00124
  281     -1.70270    0.00124
  282     -1.67814    0.00105
  283     -1.63299    0.00078
  284     -1.62928    0.00076
  285     -1.44407    0.00022
  286     -1.42140    0.00019
  287     -1.39353    0.00016
  288     -1.34872    0.00012
  289     -1.33566    0.00011
  290     -1.27935    0.00007
  291     -1.10698    0.00002
  292     -1.04436    0.00002
  293     -1.04263    0.00002
  294     -1.02779    0.00001
  295     -1.01727    0.00001
  296     -1.00967    0.00001
  297     -1.00393    0.00001
  298     -0.88536    0.00001
  299     -0.84999    0.00000
  300     -0.83168    0.00000
  301     -0.81903    0.00000
  302     -0.80765    0.00000
  303     -0.76381    0.00000
  304     -0.75983    0.00000
  305     -0.59652    0.00000
  306     -0.59321    0.00000
  307     -0.56861    0.00000
  308     -0.52307    0.00000
  309     -0.52177    0.00000
  310     -0.50815    0.00000

Fermi level: -2.81076

Gap: 0.099 eV
Transition (v -> c):
  (s=0, k=0, n=255, [0.00, 0.00, 0.00]) -> (s=0, k=0, n=256, [0.00, 0.00, 0.00])
No difference between direct/indirect transitions

Forces in eV/Ang:
  0 Na   -0.00052    0.00383   -0.00390
  1 Na   -0.00014   -0.00110   -0.00763
  2 Na    0.00582   -0.00465   -0.00746
  3 Na    0.00141   -0.00023    0.00340
  4 Na    0.00545    0.00763    0.00091
  5 Na   -0.01689   -0.00402    0.00586
  6 Na   -0.00237    0.00885    0.04786
  7 Na   -0.04177    0.03248   -0.11348
  8 Na   -0.00080   -0.00589   -0.00261
  9 Na    0.00870   -0.00662    0.00231
 10 Na    0.00552    0.01025   -0.01206
 11 Na    0.00397   -0.00078    0.01149
 12 Na   -0.00220   -0.01206    0.00410
 13 Na    0.01145   -0.00420    0.01282
 14 Na   -0.01035   -0.01840    0.02474
 15 Na    0.00551   -0.01078    0.00648
 16 Na   -0.00329    0.00221    0.00743
 17 Na    0.00556    0.00765    0.00027
 18 Na    0.00276   -0.00538    0.00617
 19 Na    0.00386    0.00066    0.00764
 20 Na   -0.00307    0.00237    0.01414
 21 Na    0.01106    0.00895    0.01532
 22 Na   -0.00916   -0.00359    0.00026
 23 Na    0.00019    0.02094    0.01861
 24 Na    0.00030   -0.00161   -0.00528
 25 Na    0.00044    0.00065   -0.00469
 26 Na   -0.00041   -0.00148    0.00530
 27 Na    0.00141   -0.00128    0.00608
 28 Na   -0.00526    0.00011    0.00521
 29 Na    0.00108    0.00008   -0.00092
 30 Na   -0.00150   -0.00095   -0.00032
 31 Na   -0.00129    0.00214   -0.00107
 32 Na    0.00262    0.00294   -0.00654
 33 Na    0.00254    0.00599   -0.01632
 34 Na    0.00005    0.00324    0.00538
 35 Na   -0.00325    0.00008    0.00985
 36 Na    0.00395    0.00019    0.00297
 37 Na   -0.00011    0.00017   -0.00337
 38 Na   -0.00280   -0.00042    0.00089
 39 Na   -0.00873   -0.00536    0.00022
 40 Na    0.01017   -0.00133   -0.00739
 41 Na    0.00221   -0.00659   -0.01441
 42 Na    0.00078   -0.00160    0.00776
 43 Na   -0.00230    0.00102    0.00877
 44 Na    0.00401   -0.00049    0.00043
 45 Na    0.00067   -0.00037   -0.00265
 46 Na   -0.00308    0.00103    0.00047
 47 Na   -0.00088    0.00329   -0.00511
 48 Na   -0.00094   -0.00324   -0.00560
 49 Na    0.00062   -0.00102   -0.00734
 50 Na   -0.00700   -0.00435   -0.00388
 51 Na   -0.00115   -0.00008   -0.00719
 52 Na   -0.00203    0.00014   -0.00049
 53 Na    0.01760    0.00118    0.00631
 54 Na    0.01321    0.01169    0.02264
 55 Na    0.00471   -0.00040   -0.00212
 56 Na   -0.00319    0.00493   -0.00712
 57 Na   -0.00875   -0.00370    0.00005
 58 Na   -0.00652    0.00464   -0.00323
 59 Na   -0.00029    0.02379   -0.03225
 60 Na   -0.00276    0.00005   -0.00139
 61 Na   -0.01109   -0.00181    0.01278
 62 Na    0.00631   -0.01287    0.01395
 63 Na    0.00993   -0.00548    0.00050
 64 Na   -0.00984   -0.00170   -0.01274
 65 Na   -0.00556    0.00462   -0.00251
 66 Na   -0.00422   -0.00020    0.01455
 67 Na   -0.00088   -0.02365   -0.03664
 68 Na   -0.00042   -0.00017   -0.00311
 69 Na   -0.01017    0.00126    0.01222
 70 Na    0.00953    0.00063    0.00288
 71 Na    0.00947    0.00617    0.00057
 72 Na    0.02365   -0.02843    0.01494

System changes: positions 

Initializing position-dependent things.

Density initialized from wave functions
         .-------------------------------------------.  
        /|                                           |  
       / |                                           |  
      /  |                                           |  
     /   |                                           |  
    /    |                                           |  
   /     |                                           |  
  /      |                                           |  
 *       |                                           |  
 |       |                                           |  
 |       |                                           |  
 |       |                                           |  
 |       |                                           |  
 |       |                                           |  
 |      Na            Na             Na              |  
 |       |    Na            Na             Na        |  
 | NaNa  |          Na            Na                 Na 
 |       |                    Na            Na       |  
 |       | Na  Na         Na            Na           |  
 |       |       Na  Na         Na  Na            Na |  
 |Na    Na  Na         Na  Na         Na  Na         |  
 |      Na        Na  Na         Na  Na              |  
 |       |                                      Na   |  
 |       |Na  Na        Na  Na         Na  Na        |  
 |   Na  |      Na  Na        Na  Na                 |  
 |       | Na  Na         Na  Na        Na  Na       |  
 |    Na |           Na             Na               |  
 |Na     |       Na             Na                   |  
 |      Na  Na         Na  Na         Na  Na         |  
 |  Na   |        Na             Na                  |  
 |       |Na            Na             Na            |  
 |       |                                           |  
 Na      |      Na            Na                     |  
 |       |                                           |  
 |       |                                           |  
 |       |                                           |  
 |       .-------------------------------------------.  
 |      /                                           /   
 |     /                                           /    
 |    /                                           /     
 |   /                                           /      
 |  /                                           /       
 | /                                           /        
 |/                                           /         
 *-------------------------------------------*          

Atomic positions and initial magnetic moments

Positions:
   0 Na     0.000000    0.000000   10.000000    ( 0.0000,  0.0000,  0.0000)
   1 Na     2.991062    2.115000   10.000000    ( 0.0000,  0.0000,  0.0000)
   2 Na     2.991062    0.000000   12.991062    ( 0.0000,  0.0000,  0.0000)
   3 Na     5.982123    2.115000   12.991062    ( 0.0000,  0.0000,  0.0000)
   4 Na    -0.003100   -0.100777   15.833482    ( 0.0000,  0.0000,  0.0000)
   5 Na     3.004278    2.136304   15.919828    ( 0.0000,  0.0000,  0.0000)
   6 Na     2.952918    0.037685   18.938358    ( 0.0000,  0.0000,  0.0000)
   7 Na     0.005869    2.107578   18.498143    ( 0.0000,  0.0000,  0.0000)
   8 Na     0.000000    4.230000   10.000000    ( 0.0000,  0.0000,  0.0000)
   9 Na     2.991062    6.345000   10.000000    ( 0.0000,  0.0000,  0.0000)
  10 Na     2.991062    4.230000   12.991062    ( 0.0000,  0.0000,  0.0000)
  11 Na     5.982123    6.345000   12.991062    ( 0.0000,  0.0000,  0.0000)
  12 Na    -0.001208    4.330232   15.840304    ( 0.0000,  0.0000,  0.0000)
  13 Na     2.997790    6.340537   15.974269    ( 0.0000,  0.0000,  0.0000)
  14 Na     2.952009    4.185739   19.042680    ( 0.0000,  0.0000,  0.0000)
  15 Na     0.000250    6.306428   19.020193    ( 0.0000,  0.0000,  0.0000)
  16 Na     0.000000    8.460000   10.000000    ( 0.0000,  0.0000,  0.0000)
  17 Na     2.991062   10.575000   10.000000    ( 0.0000,  0.0000,  0.0000)
  18 Na     2.991062    8.460000   12.991062    ( 0.0000,  0.0000,  0.0000)
  19 Na     5.982123   10.575000   12.991062    ( 0.0000,  0.0000,  0.0000)
  20 Na    -0.001256    8.459353   15.976772    ( 0.0000,  0.0000,  0.0000)
  21 Na     2.997355   10.558335   15.945125    ( 0.0000,  0.0000,  0.0000)
  22 Na     2.990277    8.466582   18.991346    ( 0.0000,  0.0000,  0.0000)
  23 Na     0.008441   10.622352   19.032753    ( 0.0000,  0.0000,  0.0000)
  24 Na     5.982123    0.000000   10.000000    ( 0.0000,  0.0000,  0.0000)
  25 Na     8.973185    2.115000   10.000000    ( 0.0000,  0.0000,  0.0000)
  26 Na     8.973185    0.000000   12.991062    ( 0.0000,  0.0000,  0.0000)
  27 Na    11.964247    2.115000   12.991062    ( 0.0000,  0.0000,  0.0000)
  28 Na     5.984607    0.000893   15.967425    ( 0.0000,  0.0000,  0.0000)
  29 Na     8.973195    2.113058   15.972488    ( 0.0000,  0.0000,  0.0000)
  30 Na     8.973121    0.000524   18.977170    ( 0.0000,  0.0000,  0.0000)
  31 Na     5.973754    2.106095   18.989608    ( 0.0000,  0.0000,  0.0000)
  32 Na     5.982123    4.230000   10.000000    ( 0.0000,  0.0000,  0.0000)
  33 Na     8.973185    6.345000   10.000000    ( 0.0000,  0.0000,  0.0000)
  34 Na     8.973185    4.230000   12.991062    ( 0.0000,  0.0000,  0.0000)
  35 Na    11.964247    6.345000   12.991062    ( 0.0000,  0.0000,  0.0000)
  36 Na     5.983210    4.229736   15.973999    ( 0.0000,  0.0000,  0.0000)
  37 Na     8.973082    6.346508   15.963630    ( 0.0000,  0.0000,  0.0000)
  38 Na     8.972749    4.229788   18.978348    ( 0.0000,  0.0000,  0.0000)
  39 Na     5.979053    6.341969   18.977698    ( 0.0000,  0.0000,  0.0000)
  40 Na     5.982123    8.460000   10.000000    ( 0.0000,  0.0000,  0.0000)
  41 Na     8.973185   10.575000   10.000000    ( 0.0000,  0.0000,  0.0000)
  42 Na     8.973185    8.460000   12.991062    ( 0.0000,  0.0000,  0.0000)
  43 Na    11.964247   10.575000   12.991062    ( 0.0000,  0.0000,  0.0000)
  44 Na     5.982892    8.459357   15.966897    ( 0.0000,  0.0000,  0.0000)
  45 Na     8.973166   10.575439   15.966085    ( 0.0000,  0.0000,  0.0000)
  46 Na     8.972722    8.459658   18.977558    ( 0.0000,  0.0000,  0.0000)
  47 Na     5.972214   10.586974   18.988866    ( 0.0000,  0.0000,  0.0000)
  48 Na    11.964247    0.000000   10.000000    ( 0.0000,  0.0000,  0.0000)
  49 Na    14.955308    2.115000   10.000000    ( 0.0000,  0.0000,  0.0000)
  50 Na    14.955308    0.000000   12.991062    ( 0.0000,  0.0000,  0.0000)
  51 Na    17.946370    2.115000   12.991062    ( 0.0000,  0.0000,  0.0000)
  52 Na    11.964703    0.000904   15.972391    ( 0.0000,  0.0000,  0.0000)
  53 Na    14.942207    2.113429   15.950045    ( 0.0000,  0.0000,  0.0000)
  54 Na    14.994057    0.037870   19.033485    ( 0.0000,  0.0000,  0.0000)
  55 Na    11.964489    2.113780   18.977791    ( 0.0000,  0.0000,  0.0000)
  56 Na    11.964247    4.230000   10.000000    ( 0.0000,  0.0000,  0.0000)
  57 Na    14.955308    6.345000   10.000000    ( 0.0000,  0.0000,  0.0000)
  58 Na    14.955308    4.230000   12.991062    ( 0.0000,  0.0000,  0.0000)
  59 Na    17.946370    6.345000   12.991062    ( 0.0000,  0.0000,  0.0000)
  60 Na    11.964305    4.230983   15.972278    ( 0.0000,  0.0000,  0.0000)
  61 Na    14.948702    6.340670   15.972285    ( 0.0000,  0.0000,  0.0000)
  62 Na    14.994442    4.193417   19.032881    ( 0.0000,  0.0000,  0.0000)
  63 Na    11.967506    6.341950   18.976632    ( 0.0000,  0.0000,  0.0000)
  64 Na    11.964247    8.460000   10.000000    ( 0.0000,  0.0000,  0.0000)
  65 Na    14.955308   10.575000   10.000000    ( 0.0000,  0.0000,  0.0000)
  66 Na    14.955308    8.460000   12.991062    ( 0.0000,  0.0000,  0.0000)
  67 Na    17.946370   10.575000   12.991062    ( 0.0000,  0.0000,  0.0000)
  68 Na    11.964757    8.458111   15.965212    ( 0.0000,  0.0000,  0.0000)
  69 Na    14.949142   10.581067   15.975124    ( 0.0000,  0.0000,  0.0000)
  70 Na    14.956439    8.459485   18.982373    ( 0.0000,  0.0000,  0.0000)
  71 Na    11.966351   10.579320   18.977465    ( 0.0000,  0.0000,  0.0000)
  72 Na     0.499821    1.760405   21.574022    ( 0.0000,  0.0000,  0.0000)

Unit cell:
           periodic     x           y           z      points  spacing
  1. axis:    yes   17.946370    0.000000    0.000000    88     0.2039
  2. axis:    yes    0.000000   12.690000    0.000000    64     0.1983
  3. axis:    no     0.000000    0.000000   28.973185   144     0.2012

  Lengths:  17.946370  12.690000  28.973185
  Angles:   90.000000  90.000000  90.000000

Effective grid spacing dv^(1/3) = 0.2011

     iter     time        total  log10-change:
                         energy   eigst   dens
iter:   1 14:00:20   -87.777959        c
[...]
  60 Na    11.963909    4.231009   15.972256    ( 0.0000,  0.0000,  0.0000)
  61 Na    14.947030    6.340461   15.974340    ( 0.0000,  0.0000,  0.0000)
  62 Na    14.995374    4.191508   19.034945    ( 0.0000,  0.0000,  0.0000)
  63 Na    11.968976    6.341162   18.976474    ( 0.0000,  0.0000,  0.0000)
  64 Na    11.964247    8.460000   10.000000    ( 0.0000,  0.0000,  0.0000)
  65 Na    14.955308   10.575000   10.000000    ( 0.0000,  0.0000,  0.0000)
  66 Na    14.955308    8.460000   12.991062    ( 0.0000,  0.0000,  0.0000)
  67 Na    17.946370   10.575000   12.991062    ( 0.0000,  0.0000,  0.0000)
  68 Na    11.964728    8.458078   15.964990    ( 0.0000,  0.0000,  0.0000)
  69 Na    14.947581   10.581167   15.977060    ( 0.0000,  0.0000,  0.0000)
  70 Na    14.957836    8.459554   18.982581    ( 0.0000,  0.0000,  0.0000)
  71 Na    11.967734   10.580209   18.977334    ( 0.0000,  0.0000,  0.0000)
  72 Na     0.502160    1.756972   21.575791    ( 0.0000,  0.0000,  0.0000)

Unit cell:
           periodic     x           y           z      points  spacing
  1. axis:    yes   17.946370    0.000000    0.000000    88     0.2039
  2. axis:    yes    0.000000   12.690000    0.000000    64     0.1983
  3. axis:    no     0.000000    0.000000   28.973185   144     0.2012

  Lengths:  17.946370  12.690000  28.973185
  Angles:   90.000000  90.000000  90.000000

Effective grid spacing dv^(1/3) = 0.2011

     iter     time        total  log10-change:
                         energy   eigst   dens
iter:   1 15:24:27   -87.779702        c
iter:   2 15:25:19   -87.779804        c -3.75
iter:   3 15:26:09   -87.779845c       c -4.03c

Converged after 3 iterations.

Dipole moment: (-28.787372, -13.728961, 0.305157) |e|*Ang

Energy contributions relative to reference atoms: (reference = -322558.566329)

Kinetic:       +143.510903
Potential:     -130.690722
External:        +0.000000
XC:             -99.533285
Entropy (-ST):   -2.609797
Local:           +0.238158
SIC:             +0.000000
--------------------------
Free energy:    -89.084743
Extrapolated:   -87.779845

 Band  Eigenvalues  Occupancy
    0    -28.53278    2.00000
    1    -28.51161    2.00000
    2    -28.50900    2.00000
    3    -27.94947    2.00000
    4    -27.93953    2.00000
    5    -27.93832    2.00000
    6    -27.93569    2.00000
    7    -27.93385    2.00000
    8    -27.93235    2.00000
    9    -27.92862    2.00000
   10    -27.92834    2.00000
   11    -27.92555    2.00000
   12    -27.92532    2.00000
   13    -27.92464    2.00000
   14    -27.92437    2.00000
   15    -27.92135    2.00000
   16    -27.92075    2.00000
   17    -27.92066    2.00000
   18    -27.91998    2.00000
   19    -27.91975    2.00000
   20    -27.91966    2.00000
   21    -27.91936    2.00000
   22    -27.91859    2.00000
   23    -27.91829    2.00000
   24    -27.91792    2.00000
   25    -27.91723    2.00000
   26    -27.91618    2.00000
   27    -27.91615    2.00000
   28    -27.91558    2.00000
   29    -27.91526    2.00000
   30    -27.91509    2.00000
   31    -27.91503    2.00000
   32    -27.91446    2.00000
   33    -27.91423    2.00000
   34    -27.91383    2.00000
   35    -27.91367    2.00000
   36    -27.91282    2.00000
   37    -27.91247    2.00000
   38    -27.91240    2.00000
   39    -27.91220    2.00000
   40    -27.91166    2.00000
   41    -27.91152    2.00000
   42    -27.91124    2.00000
   43    -27.91115    2.00000
   44    -27.91109    2.00000
   45    -27.91093    2.00000
   46    -27.91034    2.00000
   47    -27.91003    2.00000
   48    -27.90988    2.00000
   49    -27.90968    2.00000
   50    -27.90915    2.00000
   51    -27.90865    2.00000
   52    -27.90829    2.00000
   53    -27.90780    2.00000
   54    -27.90760    2.00000
   55    -27.90714    2.00000
   56    -27.90665    2.00000
   57    -27.90610    2.00000
   58    -27.90557    2.00000
   59    -27.90437    2.00000
   60    -27.90410    2.00000
   61    -27.90378    2.00000
   62    -27.90323    2.00000
   63    -27.90236    2.00000
   64    -27.90226    2.00000
   65    -27.90226    2.00000
   66    -27.90148    2.00000
   67    -27.90061    2.00000
   68    -27.90041    2.00000
   69    -27.90008    2.00000
   70    -27.89986    2.00000
   71    -27.89903    2.00000
   72    -27.89879    2.00000
   73    -27.89767    2.00000
   74    -27.89662    2.00000
   75    -27.89628    2.00000
   76    -27.89615    2.00000
   77    -27.89544    2.00000
   78    -27.89524    2.00000
   79    -27.89387    2.00000
   80    -27.89374    2.00000
   81    -27.89249    2.00000
   82    -27.89207    2.00000
   83    -27.89203    2.00000
   84    -27.89131    2.00000
   85    -27.89121    2.00000
   86    -27.89104    2.00000
   87    -27.89083    2.00000
   88    -27.89052    2.00000
   89    -27.89017    2.00000
   90    -27.88986    2.00000
   91    -27.88964    2.00000
   92    -27.88898    2.00000
   93    -27.88776    2.00000
   94    -27.88665    2.00000
   95    -27.88617    2.00000
   96    -27.88386    2.00000
   97    -27.88232    2.00000
   98    -27.88216    2.00000
   99    -27.87831    2.00000
  100    -27.87755    2.00000
  101    -27.87297    2.00000
  102    -27.87028    2.00000
  103    -27.86703    2.00000
  104    -27.86443    2.00000
  105    -27.84440    2.00000
  106    -27.83520    2.00000
  107    -27.82936    2.00000
  108    -27.73944    2.00000
  109    -27.73843    2.00000
  110    -27.73727    2.00000
  111    -27.73697    2.00000
  112    -27.73579    2.00000
  113    -27.73521    2.00000
  114    -27.73147    2.00000
  115    -27.73078    2.00000
  116    -27.72881    2.00000
  117    -27.72808    2.00000
  118    -27.72704    2.00000
  119    -27.72544    2.00000
  120    -27.72509    2.00000
  121    -27.72467    2.00000
  122    -27.72430    2.00000
  123    -27.72371    2.00000
  124    -27.72346    2.00000
  125    -27.72300    2.00000
  126    -27.72278    2.00000
  127    -27.72237    2.00000
  128    -27.72206    2.00000
  129    -27.72171    2.00000
  130    -27.72114    2.00000
  131    -27.72079    2.00000
  132    -27.71965    2.00000
  133    -27.71949    2.00000
  134    -27.71847    2.00000
  135    -27.71815    2.00000
  136    -27.71809    2.00000
  137    -27.71697    2.00000
  138    -27.71695    2.00000
  139    -27.71669    2.00000
  140    -27.71610    2.00000
  141    -27.71569    2.00000
  142    -27.71548    2.00000
  143    -27.71520    2.00000
  144    -27.71439    2.00000
  145    -27.71393    2.00000
  146    -27.71365    2.00000
  147    -27.71358    2.00000
  148    -27.71317    2.00000
  149    -27.71291    2.00000
  150    -27.71259    2.00000
  151    -27.71207    2.00000
  152    -27.71200    2.00000
  153    -27.71174    2.00000
  154    -27.71159    2.00000
  155    -27.71111    2.00000
  156    -27.71092    2.00000
  157    -27.71064    2.00000
  158    -27.71031    2.00000
  159    -27.70975    2.00000
  160    -27.70945    2.00000
  161    -27.70940    2.00000
  162    -27.70907    2.00000
  163    -27.70862    2.00000
  164    -27.70843    2.00000
  165    -27.70789    2.00000
  166    -27.70769    2.00000
  167    -27.70680    2.00000
  168    -27.70651    2.00000
  169    -27.70605    2.00000
  170    -27.70591    2.00000
  171    -27.70521    2.00000
  172    -27.70466    2.00000
  173    -27.70408    2.00000
  174    -27.70352    2.00000
  175    -27.70311    2.00000
  176    -27.70301    2.00000
  177    -27.70239    2.00000
  178    -27.70216    2.00000
  179    -27.70166    2.00000
  180    -27.70142    2.00000
  181    -27.70109    2.00000
  182    -27.70037    2.00000
  183    -27.70003    2.00000
  184    -27.69984    2.00000
  185    -27.69896    2.00000
  186    -27.69890    2.00000
  187    -27.69874    2.00000
  188    -27.69842    2.00000
  189    -27.69732    2.00000
  190    -27.69703    2.00000
  191    -27.69679    2.00000
  192    -27.69673    2.00000
  193    -27.69659    2.00000
  194    -27.69627    2.00000
  195    -27.69622    2.00000
  196    -27.69567    2.00000
  197    -27.69522    2.00000
  198    -27.69434    2.00000
  199    -27.69372    2.00000
  200    -27.69358    2.00000
  201    -27.69339    2.00000
  202    -27.69333    2.00000
  203    -27.69265    2.00000
  204    -27.69253    2.00000
  205    -27.69140    2.00000
  206    -27.69111    2.00000
  207    -27.69048    2.00000
  208    -27.69041    2.00000
  209    -27.68880    2.00000
  210    -27.68834    2.00000
  211    -27.68818    2.00000
  212    -27.68741    2.00000
  213    -27.68574    2.00000
  214    -27.68567    2.00000
  215    -27.68518    2.00000
  216    -27.68387    2.00000
  217    -27.68360    2.00000
  218    -27.68067    2.00000
  219     -5.89501    2.00000
  220     -5.41454    2.00000
  221     -5.40021    2.00000
  222     -5.33720    2.00000
  223     -4.93385    2.00000
  224     -4.92901    2.00000
  225     -4.87392    2.00000
  226     -4.85455    2.00000
  227     -4.47324    1.99997
  228     -4.46529    1.99997
  229     -4.45402    1.99997
  230     -4.45015    1.99996
  231     -4.43675    1.99996
  232     -4.38903    1.99995
  233     -4.38424    1.99994
  234     -4.01035    1.99933
  235     -3.98789    1.99922
  236     -3.98472    1.99920
  237     -3.94218    1.99894
  238     -3.91823    1.99876
  239     -3.91578    1.99874
  240     -3.91059    1.99870
  241     -3.90183    1.99862
  242     -3.53990    1.98466
  243     -3.48644    1.97817
  244     -3.45218    1.97264
  245     -3.44872    1.97201
  246     -3.28774    1.92030
  247     -3.07508    1.70747
  248     -3.06960    1.69823
  249     -3.06842    1.69620
  250     -3.06684    1.69347
  251     -3.05570    1.67370
  252     -3.02863    1.62137
  253     -3.01338    1.58920
  254     -3.00420    1.56886
  255     -2.84141    1.10283
  256     -2.74277    0.77813
  257     -2.57603    0.34649
  258     -2.56038    0.31761
  259     -2.52991    0.26701
  260     -2.52959    0.26652
  261     -2.52837    0.26465
  262     -2.52409    0.25816
  263     -2.41688    0.13524
  264     -2.32399    0.07515
  265     -2.20107    0.03383
  266     -2.14628    0.02360
  267     -2.14186    0.02292
  268     -1.96153    0.00694
  269     -1.92574    0.00547
  270     -1.90032    0.00462
  271     -1.87827    0.00399
  272     -1.84046    0.00310
  273     -1.76167    0.00184
  274     -1.73485    0.00154
  275     -1.72927    0.00148
  276     -1.71619    0.00136
  277     -1.71414    0.00134
  278     -1.70946    0.00130
  279     -1.70855    0.00129
  280     -1.70334    0.00125
  281     -1.70218    0.00124
  282     -1.67830    0.00105
  283     -1.63269    0.00078
  284     -1.62914    0.00076
  285     -1.44379    0.00022
  286     -1.42093    0.00019
  287     -1.39378    0.00016
  288     -1.34831    0.00012
  289     -1.33621    0.00011
  290     -1.27980    0.00007
  291     -1.10753    0.00002
  292     -1.04397    0.00002
  293     -1.04210    0.00002
  294     -1.02748    0.00001
  295     -1.01710    0.00001
  296     -1.00974    0.00001
  297     -1.00356    0.00001
  298     -0.88487    0.00001
  299     -0.84987    0.00000
  300     -0.83167    0.00000
  301     -0.81902    0.00000
  302     -0.80747    0.00000
  303     -0.76399    0.00000
  304     -0.75970    0.00000
  305     -0.59608    0.00000
  306     -0.59281    0.00000
  307     -0.56816    0.00000
  308     -0.52293    0.00000
  309     -0.52160    0.00000
  310     -0.50837    0.00000

Fermi level: -2.81045

Gap: 0.099 eV
Transition (v -> c):
  (s=0, k=0, n=255, [0.00, 0.00, 0.00]) -> (s=0, k=0, n=256, [0.00, 0.00, 0.00])
No difference between direct/indirect transitions

Forces in eV/Ang:
  0 Na   -0.00038    0.00319   -0.00413
  1 Na   -0.00073   -0.00093   -0.00757
  2 Na    0.00588   -0.00493   -0.00692
  3 Na    0.00118   -0.00017    0.00404
  4 Na    0.00525    0.00347   -0.00241
  5 Na   -0.01447   -0.00412    0.00577
  6 Na   -0.00322    0.01060    0.04462
  7 Na   -0.03402    0.02684   -0.08500
  8 Na   -0.00074   -0.00506   -0.00290
  9 Na    0.00860   -0.00585    0.00252
 10 Na    0.00569    0.01035   -0.01156
 11 Na    0.00479   -0.00004    0.01075
 12 Na   -0.00150   -0.00596   -0.00175
 13 Na    0.01041   -0.00529    0.01261
 14 Na   -0.00954   -0.01848    0.02337
 15 Na    0.00476   -0.01008    0.00595
 16 Na   -0.00329    0.00201    0.00689
 17 Na    0.00542    0.00670    0.00042
 18 Na    0.00381   -0.00511    0.00601
 19 Na    0.00441   -0.00018    0.00730
 20 Na   -0.00236    0.00270    0.01451
 21 Na    0.01019    0.00928    0.01511
 22 Na   -0.00839   -0.00285    0.00120
 23 Na    0.00043    0.01950    0.01734
 24 Na   -0.00041   -0.00264   -0.00420
 25 Na    0.00037    0.00087   -0.00308
 26 Na   -0.00046   -0.00264    0.00494
 27 Na    0.00135   -0.00112    0.00607
 28 Na   -0.00491    0.00092    0.00447
 29 Na    0.00052    0.00006   -0.00051
 30 Na   -0.00111   -0.00075    0.00085
 31 Na   -0.00044    0.00210   -0.00040
 32 Na    0.00194    0.00420   -0.00536
 33 Na    0.00242    0.00703   -0.01374
 34 Na    0.00004    0.00466    0.00489
 35 Na   -0.00412    0.00106    0.00884
 36 Na    0.00333   -0.00056    0.00249
 37 Na    0.00001    0.00039   -0.00358
 38 Na   -0.00227   -0.00019    0.00192
 39 Na   -0.00823   -0.00528    0.00097
 40 Na    0.00960   -0.00156   -0.00554
 41 Na    0.00205   -0.00785   -0.01196
 42 Na    0.00091   -0.00186    0.00674
 43 Na   -0.00300   -0.00015    0.00813
 44 Na    0.00439   -0.00050   -0.00005
 45 Na    0.00052   -0.00057   -0.00292
 46 Na   -0.00225    0.00066    0.00139
 47 Na   -0.00113    0.00290   -0.00404
 48 Na   -0.00042   -0.00418   -0.00427
 49 Na    0.00131   -0.00076   -0.00720
 50 Na   -0.00698   -0.00476   -0.00342
 51 Na   -0.00088   -0.00015   -0.00619
 52 Na   -0.00151    0.00046   -0.00052
 53 Na    0.01441    0.00060    0.00517
 54 Na    0.01121    0.01129    0.02194
 55 Na    0.00382   -0.00039   -0.00123
 56 Na   -0.00262    0.00617   -0.00568
 57 Na   -0.00848   -0.00290    0.00045
 58 Na   -0.00667    0.00512   -0.00315
 59 Na   -0.00025    0.02344   -0.03283
 60 Na   -0.00253   -0.00028   -0.00132
 61 Na   -0.01021   -0.00277    0.01241
 62 Na    0.00391   -0.01106    0.01391
 63 Na    0.00892   -0.00500    0.00133
 64 Na   -0.00933   -0.00200   -0.01056
 65 Na   -0.00522    0.00355   -0.00215
 66 Na   -0.00540   -0.00020    0.01390
 67 Na   -0.00078   -0.02333   -0.03703
 68 Na   -0.00138   -0.00010   -0.00306
 69 Na   -0.00927    0.00238    0.01202
 70 Na    0.00886    0.00071    0.00395
 71 Na    0.00886    0.00569    0.00140
 72 Na    0.02097   -0.02715   -0.00318

Timing:                                       incl.     excl.
--------------------------------------------------------------------
Basic WFS set positions:                      0.354     0.044   0.0% |
 Redistribute:                                0.309     0.309   0.0% |
Basis functions set positions:               12.120    12.120   0.1% |
Forces:                                     930.397     9.840   0.1% |
 LCAO forces:                               920.558     1.095   0.0% |
  Atomic Hamiltonian force:                   5.726     5.726   0.0% |
  Initial:                                    0.197     0.000   0.0% |
   Get density matrix:                        0.197     0.197   0.0% |
  Paw correction:                             7.168     7.168   0.0% |
  Potential:                                881.895   881.895   5.5% |-|
  TCI derivative:                            24.474    24.474   0.2% |
  Wait for sum:                               0.001     0.001   0.0% |
LCAO WFS Initialize:                        218.104     1.149   0.0% |
 Density initialized from wave functions:   186.407    21.648   0.1% |
  Calculate density matrix:                   2.269     2.269   0.0% |
  Construct density:                        162.487   162.487   1.0% |
  Symmetrize density:                         0.003     0.003   0.0% |
 Hamiltonian:                                30.548     0.013   0.0% |
  Atomic:                                     6.765     0.050   0.0% |
   XC Correction:                             6.715     6.715   0.0% |
  Calculate atomic Hamiltonians:              0.843     0.843   0.0% |
  Communicate:                                0.000     0.000   0.0% |
  Hartree integrate/restrict:                 0.657     0.657   0.0% |
  Initialize Hamiltonian:                     0.000     0.000   0.0% |
  Poisson:                                   11.708     6.709   0.0% |
   Communicate from 1D:                       0.608     0.608   0.0% |
   Communicate from 2D:                       0.375     0.375   0.0% |
   Communicate to 1D:                         0.300     0.300   0.0% |
   Communicate to 2D:                         1.354     1.354   0.0% |
   FFT 1D:                                    0.949     0.949   0.0% |
   FFT 2D:                                    1.413     1.413   0.0% |
  XC 3D grid:                                 7.511     7.511   0.0% |
  vbar:                                       3.051     3.051   0.0% |
P tci:                                       13.933    13.933   0.1% |
Redistribute:                                 0.004     0.004   0.0% |
SCF-cycle:                                 1616.059     0.159   0.0% |
 Density:                                   635.667     0.001   0.0% |
  Atomic density matrices:                    0.214     0.214   0.0% |
  Mix:                                        8.481     8.481   0.1% |
  Multipole moments:                          0.052     0.052   0.0% |
  Normalize:                                  0.014     0.014   0.0% |
  Pseudo density:                           626.904     0.211   0.0% |
   Calculate density matrix:                  0.364     0.364   0.0% |
   Construct density:                       626.326   626.326   3.9% |-|
   Symmetrize density:                        0.004     0.004   0.0% |
 Hamiltonian:                                70.002     0.005   0.0% |
  Atomic:                                    24.430     0.109   0.0% |
   XC Correction:                            24.321    24.321   0.2% |
  Calculate atomic Hamiltonians:              1.488     1.488   0.0% |
  Communicate:                                0.001     0.001   0.0% |
  Hartree integrate/restrict:                 0.633     0.633   0.0% |
  Poisson:                                   17.140     1.319   0.0% |
   Communicate from 1D:                       2.031     2.031   0.0% |
   Communicate from 2D:                       1.342     1.342   0.0% |
   Communicate to 1D:                         1.004     1.004   0.0% |
   Communicate to 2D:                         2.993     2.993   0.0% |
   FFT 1D:                                    3.084     3.084   0.0% |
   FFT 2D:                                    5.367     5.367   0.0% |
  XC 3D grid:                                24.913    24.913   0.2% |
  vbar:                                       1.393     1.393   0.0% |
 LCAO eigensolver:                          910.231     0.253   0.0% |
  Calculate projections:                      0.453     0.453   0.0% |
  DenseAtomicCorrection:                      6.444     6.444   0.0% |
  Distribute overlap matrix:                  0.005     0.005   0.0% |
  Orbital Layouts:                           13.020    13.020   0.1% |
  Potential matrix:                         890.057   890.057   5.5% |-|
ST tci:                                      10.250    10.250   0.1% |
Set symmetry:                                 0.001     0.001   0.0% |
TCI: Evaluate splines:                        0.053     0.053   0.0% |
mktci:                                        2.195     2.195   0.0% |
Other:                                    13366.203 13366.203  82.7% |--------------------------------|
--------------------------------------------------------------------
Total:                                              16169.673 100.0%

Memory usage: 3.67 GiB
Date: Wed Nov 26 15:55:26 2025
