
  ___ ___ ___ _ _ _  
 |   |   |_  | | | | 
 | | | | | . | | | | 
 |__ |  _|___|_____|  25.7.0
 |___|_|             

User:   tew@Mathuss-MacBook-Air-357.local
Date:   Wed Nov 26 11:25:56 2025
Arch:   arm64
Pid:    88448
CWD:    /Users/tew/Documents/Project/GitHub/chem-com
Python: 3.13.5
gpaw:   /Users/tew/Documents/Project/GitHub/chem-com/.venv/lib/python3.13/site-packages/gpaw
_gpaw:  /Users/tew/Documents/Project/GitHub/chem-com/.venv/lib/python3.13/site-packages/
        _gpaw.cpython-313-darwin.so
ase:    /Users/tew/Documents/Project/GitHub/chem-com/.venv/lib/python3.13/site-packages/ase (version 3.26.0)
numpy:  /Users/tew/Documents/Project/GitHub/chem-com/.venv/lib/python3.13/site-packages/numpy (version 2.3.5)
scipy:  /Users/tew/Documents/Project/GitHub/chem-com/.venv/lib/python3.13/site-packages/scipy (version 1.16.3)
libxc:  2.x.y
units:  Angstrom and eV
cores: 1
OpenMP: False
OMP_NUM_THREADS: 1

Input parameters:
  basis: dzp
  convergence: {density: 0.0001,
                eigenstates: 5e-06}
  kpts: [1 1 1]
  mode: {interpolation: 3,
         name: lcao}
  occupations: {fixmagmom: False,
                name: fermi-dirac,
                width: 0.15}
  xc: PBE

System changes: positions, numbers, cell, pbc, initial_charges, initial_magmoms 

Initialize ...

species:
  Na:
    name: Sodium
    id: d7ecbc49209718622bcbe287195dca2a
    Z: 11.0
    valence: 7
    core: 4
    charge: 0.0
    file: /Users/tew/Documents/Project/GitHub/chem-com/.venv/lib/python3.13/site-packages/gpaw_data/setups/Na.PBE.gz
    compensation charges: {type: gauss,
                           rc: 0.37,
                           lmax: 2}
    cutoffs: {filter: 2.17,
              core: 2.59}
    projectors:
      #              energy  rcut
      - 3s(1.00)    -2.744   1.201
      - 2p(6.00)   -28.672   1.217
      - 3p(0.00)    -0.743   1.217
      -  s          24.468   1.201
      -  d           0.000   1.238
  
    # LCAO basis set for Na:
    #   Name: dzp
    #   File: /Users/tew/Documents/Project/GitHub/chem-com/.venv/lib/python3.13/site-packages/gpaw_data/setups/Na.dzp.basis.gz
    #   Number of radial functions: 7
    #   Number of spherical harmonics: 17
    #     l=0, rc=11.4062 Bohr: 3s-sz confined orbital
    #     l=1, rc=3.6719 Bohr: 2p-sz confined orbital
    #     l=1, rc=15.9375 Bohr: 3p-sz confined orbital
    #     l=0, rc=6.9531 Bohr: 3s-dz split-valence wave
    #     l=1, rc=2.4219 Bohr: 2p-dz split-valence wave
    #     l=1, rc=10.0469 Bohr: 3p-dz split-valence wave
    #     l=1, rc=11.4062 Bohr: p-type Gaussian polarization
    #   Number of RI-basis functions 0

Reference energy: -322558.566329  # eV

Spin-paired calculation

Convergence criteria:
 Maximum [total energy] change in last 3 cyles: 0.0005 eV / valence electron
 Maximum integral of absolute [dens]ity change: 0.0001 electrons / valence electron
 Maximum integral of absolute [eigenst]ate change: 5e-06 eV^2 / valence electron
 Maximum number of scf [iter]ations: 333
 (Square brackets indicate name in SCF output, whereas a 'c' in
 the SCF output indicates the quantity has converged.)

Symmetries present (total): 2

  ( 1  0  0)  ( 1  0  0)
  ( 0  1  0)  ( 0 -1  0)
  ( 0  0  1)  ( 0  0  1)

1 k-point (Gamma)
1 k-point in the irreducible part of the Brillouin zone
       k-points in crystal coordinates                weights
   0:     0.00000000    0.00000000    0.00000000          1/1

Wave functions: LCAO
  Diagonalizer: Serial LAPACK
  Atomic Correction: dense with blas
  Data-type: float
 

Occupation numbers: Fermi-Dirac:
  width: 0.1500  # eV
 

Eigensolver
   LCAO using direct dense diagonalizer 

Densities:
  Coarse grid: 88*64*144 grid
  Fine grid: 176*128*288 grid
  Total Charge: 0.000000 

Density mixing:
  Method: separate
  Backend: pulay
  Linear mixing parameter: 0.05
  old densities: 5
  Damping of long wavelength oscillations: 50 

Hamiltonian:
  XC and Coulomb potentials evaluated on a 176*128*288 grid
  Using the PBE Exchange-Correlation functional
  Interpolation: tri-quintic (5. degree polynomial)
  Poisson solver: FastPoissonSolver using
    Stencil: 6*3+1=19 point O(h^6) finite-difference Laplacian
    FFT axes: [np.int64(0), np.int64(1)]
    FST axes: [np.int64(2)]
 

XC parameters: PBE with 2 nearest neighbor stencil

Memory estimate:
  Process memory now: 3762.67 MiB
  Calculator: 1616.02 MiB
    Density: 540.29 MiB
      Arrays: 160.27 MiB
      Localized functions: 318.57 MiB
      Mixer: 61.45 MiB
    Hamiltonian: 128.23 MiB
      Arrays: 104.80 MiB
      XC: 0.00 MiB
      Poisson: 0.00 MiB
      vbar: 23.43 MiB
    Wavefunctions: 947.50 MiB
      C [qnM]: 2.94 MiB
      S, T [2 x qmm]: 23.50 MiB
      P [aqMi]: 1.12 MiB
      BasisFunctions: 919.93 MiB
      Eigensolver: 0.00 MiB

Total number of cores used: 1

Number of atoms: 73
Number of atomic orbitals: 1241
Number of bands in calculation: 311
Number of valence electrons: 511
Bands to converge: occupied

... initialized

Initializing position-dependent things.

Density initialized from atomic densities
         .-------------------------------------------.  
        /|                                           |  
       / |                                           |  
      /  |                                           |  
     /   |                                           |  
    /    |                                           |  
   /     |                                           |  
  /      |                                           |  
 *       |                                           |  
 |       |                                           |  
 |       |                                           |  
 |       |                                           |  
 |       |                                           |  
 |       |                                           |  
 |      Na            Na             Na              |  
 |       |    Na            Na             Na        |  
 |       |          Na            Na             Na  |  
 |      Na                    Na            Na       |  
 |       | Na  Na         Na            Na           |  
 |Na     |       Na  Na         Na  Na            Na |  
 |       |  Na         Na  Na         Na  Na         |  
 |      Na        Na  Na         Na  Na         Na   |  
 |       |                                           |  
 |       |Na  Na        Na  Na         Na  Na        |  
 |   Na  |      Na  Na        Na  Na         Na      |  
 |       | Na  Na         Na  Na        Na  Na       |  
 |    Na |           Na             Na               |  
 |Na     |       Na             Na                   |  
 |      Na  Na         Na  Na         Na  Na         |  
 |  Na   |        Na             Na                  |  
 |       |Na            Na             Na            |  
 |       |                                           |  
 Na      |      Na            Na                     |  
 |       |                                           |  
 |       |                                           |  
 |       |                                           |  
 |       .-------------------------------------------.  
 |      /                                           /   
 |     /                                           /    
 |    /                                           /     
 |   /                                           /      
 |  /                                           /       
 | /                                           /        
 |/                                           /         
 *-------------------------------------------*          

Atomic positions and initial magnetic moments

Positions:
   0 Na     0.000000    0.000000   10.000000    ( 0.0000,  0.0000,  0.0000)
   1 Na     2.991062    2.115000   10.000000    ( 0.0000,  0.0000,  0.0000)
   2 Na     2.991062    0.000000   12.991062    ( 0.0000,  0.0000,  0.0000)
   3 Na     5.982123    2.115000   12.991062    ( 0.0000,  0.0000,  0.0000)
   4 Na    -0.020544   -0.000000   15.938770    ( 0.0000,  0.0000,  0.0000)
   5 Na     2.991292    2.251248   15.791840    ( 0.0000,  0.0000,  0.0000)
   6 Na     2.991790    0.000000   18.397141    ( 0.0000,  0.0000,  0.0000)
   7 Na     0.050621    2.066248   19.049321    ( 0.0000,  0.0000,  0.0000)
   8 Na     0.000000    4.230000   10.000000    ( 0.0000,  0.0000,  0.0000)
   9 Na     2.991062    6.345000   10.000000    ( 0.0000,  0.0000,  0.0000)
  10 Na     2.991062    4.230000   12.991062    ( 0.0000,  0.0000,  0.0000)
  11 Na     5.982123    6.345000   12.991062    ( 0.0000,  0.0000,  0.0000)
  12 Na    -0.006391    4.226118   15.972122    ( 0.0000,  0.0000,  0.0000)
  13 Na     2.991631    6.345000   15.974565    ( 0.0000,  0.0000,  0.0000)
  14 Na     2.991263    4.183695   19.032530    ( 0.0000,  0.0000,  0.0000)
  15 Na    -0.000511    6.345000   18.983081    ( 0.0000,  0.0000,  0.0000)
  16 Na     0.000000    8.460000   10.000000    ( 0.0000,  0.0000,  0.0000)
  17 Na     2.991062   10.575000   10.000000    ( 0.0000,  0.0000,  0.0000)
  18 Na     2.991062    8.460000   12.991062    ( 0.0000,  0.0000,  0.0000)
  19 Na     5.982123   10.575000   12.991062    ( 0.0000,  0.0000,  0.0000)
  20 Na    -0.006391    8.463882   15.972122    ( 0.0000,  0.0000,  0.0000)
  21 Na     2.991292   10.438752   15.791840    ( 0.0000,  0.0000,  0.0000)
  22 Na     2.991263    8.506305   19.032530    ( 0.0000,  0.0000,  0.0000)
  23 Na     0.050621   10.623752   19.049321    ( 0.0000,  0.0000,  0.0000)
  24 Na     5.982123    0.000000   10.000000    ( 0.0000,  0.0000,  0.0000)
  25 Na     8.973185    2.115000   10.000000    ( 0.0000,  0.0000,  0.0000)
  26 Na     8.973185    0.000000   12.991062    ( 0.0000,  0.0000,  0.0000)
  27 Na    11.964247    2.115000   12.991062    ( 0.0000,  0.0000,  0.0000)
  28 Na     6.001867   -0.000000   15.939106    ( 0.0000,  0.0000,  0.0000)
  29 Na     8.972862    2.111820   15.972152    ( 0.0000,  0.0000,  0.0000)
  30 Na     8.973321   -0.000000   18.977235    ( 0.0000,  0.0000,  0.0000)
  31 Na     5.932223    2.066000   19.049369    ( 0.0000,  0.0000,  0.0000)
  32 Na     5.982123    4.230000   10.000000    ( 0.0000,  0.0000,  0.0000)
  33 Na     8.973185    6.345000   10.000000    ( 0.0000,  0.0000,  0.0000)
  34 Na     8.973185    4.230000   12.991062    ( 0.0000,  0.0000,  0.0000)
  35 Na    11.964247    6.345000   12.991062    ( 0.0000,  0.0000,  0.0000)
  36 Na     5.988369    4.226056   15.972872    ( 0.0000,  0.0000,  0.0000)
  37 Na     8.972643    6.345000   15.962230    ( 0.0000,  0.0000,  0.0000)
  38 Na     8.971566    4.227719   18.977938    ( 0.0000,  0.0000,  0.0000)
  39 Na     5.981683    6.345000   18.983548    ( 0.0000,  0.0000,  0.0000)
  40 Na     5.982123    8.460000   10.000000    ( 0.0000,  0.0000,  0.0000)
  41 Na     8.973185   10.575000   10.000000    ( 0.0000,  0.0000,  0.0000)
  42 Na     8.973185    8.460000   12.991062    ( 0.0000,  0.0000,  0.0000)
  43 Na    11.964247   10.575000   12.991062    ( 0.0000,  0.0000,  0.0000)
  44 Na     5.988369    8.463944   15.972872    ( 0.0000,  0.0000,  0.0000)
  45 Na     8.972862   10.578180   15.972152    ( 0.0000,  0.0000,  0.0000)
  46 Na     8.971566    8.462281   18.977938    ( 0.0000,  0.0000,  0.0000)
  47 Na     5.932223   10.624000   19.049369    ( 0.0000,  0.0000,  0.0000)
  48 Na    11.964247    0.000000   10.000000    ( 0.0000,  0.0000,  0.0000)
  49 Na    14.955308    2.115000   10.000000    ( 0.0000,  0.0000,  0.0000)
  50 Na    14.955308    0.000000   12.991062    ( 0.0000,  0.0000,  0.0000)
  51 Na    17.946370    2.115000   12.991062    ( 0.0000,  0.0000,  0.0000)
  52 Na    11.964717   -0.000000   15.970886    ( 0.0000,  0.0000,  0.0000)
  53 Na    14.955513    2.112014   15.973011    ( 0.0000,  0.0000,  0.0000)
  54 Na    14.954257    0.000000   18.977651    ( 0.0000,  0.0000,  0.0000)
  55 Na    11.964098    2.113057   18.978863    ( 0.0000,  0.0000,  0.0000)
  56 Na    11.964247    4.230000   10.000000    ( 0.0000,  0.0000,  0.0000)
  57 Na    14.955308    6.345000   10.000000    ( 0.0000,  0.0000,  0.0000)
  58 Na    14.955308    4.230000   12.991062    ( 0.0000,  0.0000,  0.0000)
  59 Na    17.946370    6.345000   12.991062    ( 0.0000,  0.0000,  0.0000)
  60 Na    11.964344    4.233646   15.964027    ( 0.0000,  0.0000,  0.0000)
  61 Na    14.955322    6.345000   15.962586    ( 0.0000,  0.0000,  0.0000)
  62 Na    14.957082    4.227858   18.977742    ( 0.0000,  0.0000,  0.0000)
  63 Na    11.965310    6.345000   18.977039    ( 0.0000,  0.0000,  0.0000)
  64 Na    11.964247    8.460000   10.000000    ( 0.0000,  0.0000,  0.0000)
  65 Na    14.955308   10.575000   10.000000    ( 0.0000,  0.0000,  0.0000)
  66 Na    14.955308    8.460000   12.991062    ( 0.0000,  0.0000,  0.0000)
  67 Na    17.946370   10.575000   12.991062    ( 0.0000,  0.0000,  0.0000)
  68 Na    11.964344    8.456354   15.964027    ( 0.0000,  0.0000,  0.0000)
  69 Na    14.955513   10.577986   15.973011    ( 0.0000,  0.0000,  0.0000)
  70 Na    14.957082    8.462142   18.977742    ( 0.0000,  0.0000,  0.0000)
  71 Na    11.964098   10.576943   18.978863    ( 0.0000,  0.0000,  0.0000)
  72 Na     2.992397   -0.000000   21.584007    ( 0.0000,  0.0000,  0.0000)

Unit cell:
           periodic     x           y           z      points  spacing
  1. axis:    yes   17.946370    0.000000    0.000000    88     0.2039
  2. axis:    yes    0.000000   12.690000    0.000000    64     0.1983
  3. axis:    no     0.000000    0.000000   28.973185   144     0.2012

  Lengths:  17.946370  12.690000  28.973185
  Angles:   90.000000  90.000000  90.000000

Effective grid spacing dv^(1/3) = 0.2011

     iter     time        total  log10-change:
                         energy   eigst   dens
iter:   1 15:29:06   -89.359224        c
iter:   2 15:29:50   -88.520376        c -1.60
iter:   3 15:30:36   -87.966214        c -1.70
iter:   4 15:31:26   -87.862444        c -1.87
iter:   5 15:32:16   -87.852640c       c -2.04
iter:   6 15:33:09   -87.879470c       c -2.25
iter:   7 15:34:05   -87.800181c       c -2.25
iter:   8 15:35:11   -87.791594c       c -2.71
iter:   9 15:36:04   -87.782308c       c -2.87
iter:  10 15:36:53   -87.781095c       c -3.16
iter:  11 15:37:38   -87.780187c       c -3.23
iter:  12 15:38:22   -87.779561c       c -3.42
iter:  13 15:39:20   -87.779677c       c -3.57
iter:  14 15:40:10   -87.780151c       c -3.72
iter:  15 15:41:03   -87.780255c       c -3.92
iter:  16 15:41:56   -87.780240c       c -4.03c

Converged after 16 iterations.

Dipole moment: (-23.322830, -14.464689, 0.303912) |e|*Ang

Energy contributions relative to reference atoms: (reference = -322558.566329)

Kinetic:       +143.818470
Potential:     -131.000258
External:        +0.000000
XC:             -99.525536
Entropy (-ST):   -2.607152
Local:           +0.230659
SIC:             +0.000000
--------------------------
Free energy:    -89.083816
Extrapolated:   -87.780240

 Band  Eigenvalues  Occupancy
    0    -28.53928    2.00000
    1    -28.51884    2.00000
    2    -28.51753    2.00000
    3    -27.95191    2.00000
    4    -27.94181    2.00000
    5    -27.93612    2.00000
    6    -27.93086    2.00000
    7    -27.93059    2.00000
    8    -27.93029    2.00000
    9    -27.92890    2.00000
   10    -27.92765    2.00000
   11    -27.92738    2.00000
   12    -27.92428    2.00000
   13    -27.92423    2.00000
   14    -27.92421    2.00000
   15    -27.92411    2.00000
   16    -27.92395    2.00000
   17    -27.92057    2.00000
   18    -27.91928    2.00000
   19    -27.91924    2.00000
   20    -27.91921    2.00000
   21    -27.91905    2.00000
   22    -27.91876    2.00000
   23    -27.91824    2.00000
   24    -27.91814    2.00000
   25    -27.91798    2.00000
   26    -27.91764    2.00000
   27    -27.91682    2.00000
   28    -27.91593    2.00000
   29    -27.91577    2.00000
   30    -27.91554    2.00000
   31    -27.91517    2.00000
   32    -27.91508    2.00000
   33    -27.91365    2.00000
   34    -27.91319    2.00000
   35    -27.91274    2.00000
   36    -27.91273    2.00000
   37    -27.91230    2.00000
   38    -27.91217    2.00000
   39    -27.91192    2.00000
   40    -27.91169    2.00000
   41    -27.91165    2.00000
   42    -27.91059    2.00000
   43    -27.91045    2.00000
   44    -27.91017    2.00000
   45    -27.91009    2.00000
   46    -27.91005    2.00000
   47    -27.90963    2.00000
   48    -27.90882    2.00000
   49    -27.90881    2.00000
   50    -27.90879    2.00000
   51    -27.90856    2.00000
   52    -27.90842    2.00000
   53    -27.90822    2.00000
   54    -27.90800    2.00000
   55    -27.90672    2.00000
   56    -27.90586    2.00000
   57    -27.90550    2.00000
   58    -27.90347    2.00000
   59    -27.90304    2.00000
   60    -27.90254    2.00000
   61    -27.90254    2.00000
   62    -27.90198    2.00000
   63    -27.90187    2.00000
   64    -27.90181    2.00000
   65    -27.90131    2.00000
   66    -27.90088    2.00000
   67    -27.90082    2.00000
   68    -27.90059    2.00000
   69    -27.90037    2.00000
   70    -27.90022    2.00000
   71    -27.89858    2.00000
   72    -27.89827    2.00000
   73    -27.89797    2.00000
   74    -27.89782    2.00000
   75    -27.89767    2.00000
   76    -27.89743    2.00000
   77    -27.89678    2.00000
   78    -27.89541    2.00000
   79    -27.89500    2.00000
   80    -27.89484    2.00000
   81    -27.89370    2.00000
   82    -27.89344    2.00000
   83    -27.89295    2.00000
   84    -27.89188    2.00000
   85    -27.89139    2.00000
   86    -27.89134    2.00000
   87    -27.89128    2.00000
   88    -27.88913    2.00000
   89    -27.88907    2.00000
   90    -27.88767    2.00000
   91    -27.88759    2.00000
   92    -27.88711    2.00000
   93    -27.88704    2.00000
   94    -27.88701    2.00000
   95    -27.88657    2.00000
   96    -27.88642    2.00000
   97    -27.88633    2.00000
   98    -27.88507    2.00000
   99    -27.88498    2.00000
  100    -27.88456    2.00000
  101    -27.88431    2.00000
  102    -27.88299    2.00000
  103    -27.88167    2.00000
  104    -27.86980    2.00000
  105    -27.86952    2.00000
  106    -27.86782    2.00000
  107    -27.86676    2.00000
  108    -27.73993    2.00000
  109    -27.73879    2.00000
  110    -27.73863    2.00000
  111    -27.73854    2.00000
  112    -27.73437    2.00000
  113    -27.73405    2.00000
  114    -27.73202    2.00000
  115    -27.73141    2.00000
  116    -27.73013    2.00000
  117    -27.72898    2.00000
  118    -27.72513    2.00000
  119    -27.72510    2.00000
  120    -27.72501    2.00000
  121    -27.72483    2.00000
  122    -27.72475    2.00000
  123    -27.72468    2.00000
  124    -27.72415    2.00000
  125    -27.72378    2.00000
  126    -27.72349    2.00000
  127    -27.72305    2.00000
  128    -27.72293    2.00000
  129    -27.72201    2.00000
  130    -27.72157    2.00000
  131    -27.72110    2.00000
  132    -27.72095    2.00000
  133    -27.71974    2.00000
  134    -27.71889    2.00000
  135    -27.71868    2.00000
  136    -27.71765    2.00000
  137    -27.71723    2.00000
  138    -27.71714    2.00000
  139    -27.71693    2.00000
  140    -27.71603    2.00000
  141    -27.71603    2.00000
  142    -27.71601    2.00000
  143    -27.71517    2.00000
  144    -27.71502    2.00000
  145    -27.71350    2.00000
  146    -27.71330    2.00000
  147    -27.71330    2.00000
  148    -27.71295    2.00000
  149    -27.71277    2.00000
  150    -27.71271    2.00000
  151    -27.71237    2.00000
  152    -27.71229    2.00000
  153    -27.71219    2.00000
  154    -27.71217    2.00000
  155    -27.71157    2.00000
  156    -27.71126    2.00000
  157    -27.71120    2.00000
  158    -27.71083    2.00000
  159    -27.71065    2.00000
  160    -27.71060    2.00000
  161    -27.70981    2.00000
  162    -27.70935    2.00000
  163    -27.70927    2.00000
  164    -27.70764    2.00000
  165    -27.70746    2.00000
  166    -27.70745    2.00000
  167    -27.70702    2.00000
  168    -27.70658    2.00000
  169    -27.70622    2.00000
  170    -27.70600    2.00000
  171    -27.70531    2.00000
  172    -27.70420    2.00000
  173    -27.70318    2.00000
  174    -27.70307    2.00000
  175    -27.70284    2.00000
  176    -27.70266    2.00000
  177    -27.70241    2.00000
  178    -27.70195    2.00000
  179    -27.70114    2.00000
  180    -27.70091    2.00000
  181    -27.70034    2.00000
  182    -27.69968    2.00000
  183    -27.69906    2.00000
  184    -27.69854    2.00000
  185    -27.69850    2.00000
  186    -27.69834    2.00000
  187    -27.69832    2.00000
  188    -27.69747    2.00000
  189    -27.69702    2.00000
  190    -27.69694    2.00000
  191    -27.69687    2.00000
  192    -27.69655    2.00000
  193    -27.69654    2.00000
  194    -27.69619    2.00000
  195    -27.69538    2.00000
  196    -27.69530    2.00000
  197    -27.69508    2.00000
  198    -27.69508    2.00000
  199    -27.69438    2.00000
  200    -27.69421    2.00000
  201    -27.69415    2.00000
  202    -27.69394    2.00000
  203    -27.69394    2.00000
  204    -27.69353    2.00000
  205    -27.69280    2.00000
  206    -27.69251    2.00000
  207    -27.69218    2.00000
  208    -27.69198    2.00000
  209    -27.69156    2.00000
  210    -27.69061    2.00000
  211    -27.68946    2.00000
  212    -27.68785    2.00000
  213    -27.68756    2.00000
  214    -27.68737    2.00000
  215    -27.68698    2.00000
  216    -27.68650    2.00000
  217    -27.68641    2.00000
  218    -27.68494    2.00000
  219     -5.89607    2.00000
  220     -5.41695    2.00000
  221     -5.39973    2.00000
  222     -5.33580    2.00000
  223     -4.93357    2.00000
  224     -4.93101    2.00000
  225     -4.87343    2.00000
  226     -4.85302    2.00000
  227     -4.47208    1.99997
  228     -4.47021    1.99997
  229     -4.45476    1.99997
  230     -4.44867    1.99996
  231     -4.43841    1.99996
  232     -4.38932    1.99995
  233     -4.38222    1.99994
  234     -4.00722    1.99931
  235     -3.98979    1.99923
  236     -3.98764    1.99921
  237     -3.94333    1.99894
  238     -3.91759    1.99875
  239     -3.91581    1.99873
  240     -3.91123    1.99869
  241     -3.89862    1.99858
  242     -3.53821    1.98440
  243     -3.48945    1.97847
  244     -3.45210    1.97246
  245     -3.44731    1.97158
  246     -3.28849    1.92020
  247     -3.07380    1.70376
  248     -3.07225    1.70115
  249     -3.06873    1.69515
  250     -3.06849    1.69473
  251     -3.05769    1.67564
  252     -3.03167    1.62568
  253     -3.01559    1.59196
  254     -3.00442    1.56726
  255     -2.84214    1.10216
  256     -2.74433    0.78016
  257     -2.57552    0.34375
  258     -2.56358    0.32167
  259     -2.53071    0.26683
  260     -2.52860    0.26359
  261     -2.52685    0.26093
  262     -2.52288    0.25497
  263     -2.41795    0.13536
  264     -2.32672    0.07603
  265     -2.20229    0.03389
  266     -2.14820    0.02375
  267     -2.14229    0.02285
  268     -1.96134    0.00689
  269     -1.92765    0.00551
  270     -1.90344    0.00469
  271     -1.88166    0.00406
  272     -1.84027    0.00308
  273     -1.76311    0.00184
  274     -1.73562    0.00153
  275     -1.73209    0.00150
  276     -1.71886    0.00137
  277     -1.71584    0.00135
  278     -1.71105    0.00130
  279     -1.70942    0.00129
  280     -1.70360    0.00124
  281     -1.70128    0.00122
  282     -1.68051    0.00106
  283     -1.63208    0.00077
  284     -1.62749    0.00075
  285     -1.44536    0.00022
  286     -1.42322    0.00019
  287     -1.39211    0.00016
  288     -1.35039    0.00012
  289     -1.34090    0.00011
  290     -1.28220    0.00007
  291     -1.11116    0.00002
  292     -1.04484    0.00002
  293     -1.04417    0.00002
  294     -1.02562    0.00001
  295     -1.01633    0.00001
  296     -1.00867    0.00001
  297     -1.00325    0.00001
  298     -0.88786    0.00001
  299     -0.85117    0.00000
  300     -0.82557    0.00000
  301     -0.81947    0.00000
  302     -0.81861    0.00000
  303     -0.76553    0.00000
  304     -0.75857    0.00000
  305     -0.59534    0.00000
  306     -0.59415    0.00000
  307     -0.57697    0.00000
  308     -0.52267    0.00000
  309     -0.51972    0.00000
  310     -0.51084    0.00000

Fermi level: -2.81138

Gap: 0.098 eV
Transition (v -> c):
  (s=0, k=0, n=255, [0.00, 0.00, 0.00]) -> (s=0, k=0, n=256, [0.00, 0.00, 0.00])
No difference between direct/indirect transitions
Timing:                              incl.     excl.
-----------------------------------------------------------
Basic WFS set positions:             0.002     0.002   0.0% |
Basis functions set positions:       1.295     1.295   0.0% |
LCAO WFS Initialize:                 3.316     0.849   0.0% |
 Hamiltonian:                        2.466     0.001   0.0% |
  Atomic:                            0.863     0.003   0.0% |
   XC Correction:                    0.860     0.860   0.0% |
  Calculate atomic Hamiltonians:     0.044     0.044   0.0% |
  Communicate:                       0.000     0.000   0.0% |
  Hartree integrate/restrict:        0.022     0.022   0.0% |
  Initialize Hamiltonian:            0.000     0.000   0.0% |
  Poisson:                           0.634     0.028   0.0% |
   Communicate from 1D:              0.047     0.047   0.0% |
   Communicate from 2D:              0.051     0.051   0.0% |
   Communicate to 1D:                0.034     0.034   0.0% |
   Communicate to 2D:                0.165     0.165   0.0% |
   FFT 1D:                           0.113     0.113   0.0% |
   FFT 2D:                           0.196     0.196   0.0% |
  XC 3D grid:                        0.851     0.851   0.0% |
  vbar:                              0.050     0.050   0.0% |
P tci:                               1.208     1.208   0.0% |
SCF-cycle:                         796.004     0.076   0.0% |
 Density:                          338.527     0.001   0.0% |
  Atomic density matrices:           0.198     0.198   0.0% |
  Mix:                              11.611    11.611   0.1% |
  Multipole moments:                 0.039     0.039   0.0% |
  Normalize:                         0.008     0.008   0.0% |
  Pseudo density:                  326.670     0.150   0.0% |
   Calculate density matrix:         0.215     0.215   0.0% |
   Construct density:              326.094   326.094   2.0% ||
   Symmetrize density:               0.212     0.212   0.0% |
 Hamiltonian:                       46.137     0.008   0.0% |
  Atomic:                           13.244     0.068   0.0% |
   XC Correction:                   13.176    13.176   0.1% |
  Calculate atomic Hamiltonians:     1.484     1.484   0.0% |
  Communicate:                       0.001     0.001   0.0% |
  Hartree integrate/restrict:        0.366     0.366   0.0% |
  Poisson:                          10.820     1.159   0.0% |
   Communicate from 1D:              0.770     0.770   0.0% |
   Communicate from 2D:              0.704     0.704   0.0% |
   Communicate to 1D:                0.536     0.536   0.0% |
   Communicate to 2D:                2.344     2.344   0.0% |
   FFT 1D:                           1.641     1.641   0.0% |
   FFT 2D:                           3.667     3.667   0.0% |
  XC 3D grid:                       18.628    18.628   0.1% |
  vbar:                              1.586     1.586   0.0% |
 LCAO eigensolver:                 411.264     0.284   0.0% |
  Calculate projections:             0.227     0.227   0.0% |
  DenseAtomicCorrection:             3.130     3.130   0.0% |
  Distribute overlap matrix:         0.002     0.002   0.0% |
  Orbital Layouts:                   5.737     5.737   0.0% |
  Potential matrix:                401.885   401.885   2.5% ||
ST tci:                              1.379     1.379   0.0% |
Set symmetry:                        0.001     0.001   0.0% |
TCI: Evaluate splines:               0.056     0.056   0.0% |
mktci:                               0.066     0.066   0.0% |
Other:                           15366.681 15366.681  95.0% |-------------------------------------|
-----------------------------------------------------------
Total:                                     16170.007 100.0%

Memory usage: 3.67 GiB
Date: Wed Nov 26 15:55:26 2025
