
  ___ ___ ___ _ _ _  
 |   |   |_  | | | | 
 | | | | | . | | | | 
 |__ |  _|___|_____|  25.7.0
 |___|_|             

User:   tew@Mathuss-MacBook-Air-357.local
Date:   Wed Nov 26 11:25:56 2025
Arch:   arm64
Pid:    88448
CWD:    /Users/tew/Documents/Project/GitHub/chem-com
Python: 3.13.5
gpaw:   /Users/tew/Documents/Project/GitHub/chem-com/.venv/lib/python3.13/site-packages/gpaw
_gpaw:  /Users/tew/Documents/Project/GitHub/chem-com/.venv/lib/python3.13/site-packages/
        _gpaw.cpython-313-darwin.so
ase:    /Users/tew/Documents/Project/GitHub/chem-com/.venv/lib/python3.13/site-packages/ase (version 3.26.0)
numpy:  /Users/tew/Documents/Project/GitHub/chem-com/.venv/lib/python3.13/site-packages/numpy (version 2.3.5)
scipy:  /Users/tew/Documents/Project/GitHub/chem-com/.venv/lib/python3.13/site-packages/scipy (version 1.16.3)
libxc:  2.x.y
units:  Angstrom and eV
cores: 1
OpenMP: False
OMP_NUM_THREADS: 1

Input parameters:
  basis: dzp
  convergence: {density: 0.0001,
                eigenstates: 5e-06}
  kpts: [1 1 1]
  mode: {interpolation: 3,
         name: lcao}
  occupations: {fixmagmom: False,
                name: fermi-dirac,
                width: 0.15}
  xc: PBE

System changes: positions, numbers, cell, pbc, initial_charges, initial_magmoms 

Initialize ...

species:
  Na:
    name: Sodium
    id: d7ecbc49209718622bcbe287195dca2a
    Z: 11.0
    valence: 7
    core: 4
    charge: 0.0
    file: /Users/tew/Documents/Project/GitHub/chem-com/.venv/lib/python3.13/site-packages/gpaw_data/setups/Na.PBE.gz
    compensation charges: {type: gauss,
                           rc: 0.37,
                           lmax: 2}
    cutoffs: {filter: 2.17,
              core: 2.59}
    projectors:
      #              energy  rcut
      - 3s(1.00)    -2.744   1.201
      - 2p(6.00)   -28.672   1.217
      - 3p(0.00)    -0.743   1.217
      -  s          24.468   1.201
      -  d           0.000   1.238
  
    # LCAO basis set for Na:
    #   Name: dzp
    #   File: /Users/tew/Documents/Project/GitHub/chem-com/.venv/lib/python3.13/site-packages/gpaw_data/setups/Na.dzp.basis.gz
    #   Number of radial functions: 7
    #   Number of spherical harmonics: 17
    #     l=0, rc=11.4062 Bohr: 3s-sz confined orbital
    #     l=1, rc=3.6719 Bohr: 2p-sz confined orbital
    #     l=1, rc=15.9375 Bohr: 3p-sz confined orbital
    #     l=0, rc=6.9531 Bohr: 3s-dz split-valence wave
    #     l=1, rc=2.4219 Bohr: 2p-dz split-valence wave
    #     l=1, rc=10.0469 Bohr: 3p-dz split-valence wave
    #     l=1, rc=11.4062 Bohr: p-type Gaussian polarization
    #   Number of RI-basis functions 0

Reference energy: -322558.566329  # eV

Spin-paired calculation

Convergence criteria:
 Maximum [total energy] change in last 3 cyles: 0.0005 eV / valence electron
 Maximum integral of absolute [dens]ity change: 0.0001 electrons / valence electron
 Maximum integral of absolute [eigenst]ate change: 5e-06 eV^2 / valence electron
 Maximum number of scf [iter]ations: 333
 (Square brackets indicate name in SCF output, whereas a 'c' in
 the SCF output indicates the quantity has converged.)

Symmetries present (total): 2

  ( 1  0  0)  (-1  0  0)
  ( 0  1  0)  ( 0  1  0)
  ( 0  0  1)  ( 0  0  1)

1 k-point (Gamma)
1 k-point in the irreducible part of the Brillouin zone
       k-points in crystal coordinates                weights
   0:     0.00000000    0.00000000    0.00000000          1/1

Wave functions: LCAO
  Diagonalizer: Serial LAPACK
  Atomic Correction: dense with blas
  Data-type: float
 

Occupation numbers: Fermi-Dirac:
  width: 0.1500  # eV
 

Eigensolver
   LCAO using direct dense diagonalizer 

Densities:
  Coarse grid: 88*64*144 grid
  Fine grid: 176*128*288 grid
  Total Charge: 0.000000 

Density mixing:
  Method: separate
  Backend: pulay
  Linear mixing parameter: 0.05
  old densities: 5
  Damping of long wavelength oscillations: 50 

Hamiltonian:
  XC and Coulomb potentials evaluated on a 176*128*288 grid
  Using the PBE Exchange-Correlation functional
  Interpolation: tri-quintic (5. degree polynomial)
  Poisson solver: FastPoissonSolver using
    Stencil: 6*3+1=19 point O(h^6) finite-difference Laplacian
    FFT axes: [np.int64(0), np.int64(1)]
    FST axes: [np.int64(2)]
 

XC parameters: PBE with 2 nearest neighbor stencil

Memory estimate:
  Process memory now: 3762.67 MiB
  Calculator: 1616.02 MiB
    Density: 540.29 MiB
      Arrays: 160.27 MiB
      Localized functions: 318.57 MiB
      Mixer: 61.45 MiB
    Hamiltonian: 128.23 MiB
      Arrays: 104.80 MiB
      XC: 0.00 MiB
      Poisson: 0.00 MiB
      vbar: 23.43 MiB
    Wavefunctions: 947.50 MiB
      C [qnM]: 2.94 MiB
      S, T [2 x qmm]: 23.50 MiB
      P [aqMi]: 1.12 MiB
      BasisFunctions: 919.93 MiB
      Eigensolver: 0.00 MiB

Total number of cores used: 1

Number of atoms: 73
Number of atomic orbitals: 1241
Number of bands in calculation: 311
Number of valence electrons: 511
Bands to converge: occupied

... initialized

Initializing position-dependent things.

Density initialized from atomic densities
         .-------------------------------------------.  
        /|                                           |  
       / |                                           |  
      /  |                                           |  
     /   |                                           |  
    /    |                                           |  
   /     |                                           |  
  /      |                                           |  
 *       |                                           |  
 |       |                                           |  
 |       |                                           |  
 |       |                                           |  
 |       |                                           |  
 |       |                                           |  
 |      Na            Na             Na              |  
 |       |    Na            Na             Na        |  
 |Na Na  Na         Na            Na                 |  
 |       |     Na             Na            Na       |  
 |       | Na             Na            Na           |  
 |    Na |       Na  Na         Na  Na               |  
 |Na    Na  Na         Na  Na         Na  Na         |  
 |      Na        Na  Na         Na  Na              |  
 |  Na   |                                           |  
 |       |Na  Na        Na  Na         Na  Na        |  
 |   Na  |      Na  Na        Na  Na                 |  
 |       | Na  Na         Na  Na        Na  Na       |  
 |    Na |           Na             Na               |  
 |Na     |       Na             Na                   |  
 |      Na  Na         Na  Na         Na  Na         |  
 |  Na   |        Na             Na                  |  
 |       |Na            Na             Na            |  
 |       |                                           |  
 Na      |      Na            Na                     |  
 |       |                                           |  
 |       |                                           |  
 |       |                                           |  
 |       .-------------------------------------------.  
 |      /                                           /   
 |     /                                           /    
 |    /                                           /     
 |   /                                           /      
 |  /                                           /       
 | /                                           /        
 |/                                           /         
 *-------------------------------------------*          

Atomic positions and initial magnetic moments

Positions:
   0 Na     0.000000    0.000000   10.000000    ( 0.0000,  0.0000,  0.0000)
   1 Na     2.991062    2.115000   10.000000    ( 0.0000,  0.0000,  0.0000)
   2 Na     2.991062    0.000000   12.991062    ( 0.0000,  0.0000,  0.0000)
   3 Na     5.982123    2.115000   12.991062    ( 0.0000,  0.0000,  0.0000)
   4 Na     0.000000   -0.121459   15.812383    ( 0.0000,  0.0000,  0.0000)
   5 Na     3.008072    2.113614   15.945007    ( 0.0000,  0.0000,  0.0000)
   6 Na     2.945313    0.044602   19.043026    ( 0.0000,  0.0000,  0.0000)
   7 Na     0.000000    2.113442   18.396301    ( 0.0000,  0.0000,  0.0000)
   8 Na     0.000000    4.230000   10.000000    ( 0.0000,  0.0000,  0.0000)
   9 Na     2.991062    6.345000   10.000000    ( 0.0000,  0.0000,  0.0000)
  10 Na     2.991062    4.230000   12.991062    ( 0.0000,  0.0000,  0.0000)
  11 Na     5.982123    6.345000   12.991062    ( 0.0000,  0.0000,  0.0000)
  12 Na    -0.000000    4.351902   15.813646    ( 0.0000,  0.0000,  0.0000)
  13 Na     2.998175    6.339891   15.973267    ( 0.0000,  0.0000,  0.0000)
  14 Na     2.944918    4.187458   19.042926    ( 0.0000,  0.0000,  0.0000)
  15 Na    -0.000000    6.299488   19.027194    ( 0.0000,  0.0000,  0.0000)
  16 Na     0.000000    8.460000   10.000000    ( 0.0000,  0.0000,  0.0000)
  17 Na     2.991062   10.575000   10.000000    ( 0.0000,  0.0000,  0.0000)
  18 Na     2.991062    8.460000   12.991062    ( 0.0000,  0.0000,  0.0000)
  19 Na     5.982123   10.575000   12.991062    ( 0.0000,  0.0000,  0.0000)
  20 Na    -0.000000    8.458297   15.976677    ( 0.0000,  0.0000,  0.0000)
  21 Na     2.997744   10.581645   15.974642    ( 0.0000,  0.0000,  0.0000)
  22 Na     2.990723    8.458920   18.983198    ( 0.0000,  0.0000,  0.0000)
  23 Na     0.000000   10.620565   19.028126    ( 0.0000,  0.0000,  0.0000)
  24 Na     5.982123    0.000000   10.000000    ( 0.0000,  0.0000,  0.0000)
  25 Na     8.973185    2.115000   10.000000    ( 0.0000,  0.0000,  0.0000)
  26 Na     8.973185    0.000000   12.991062    ( 0.0000,  0.0000,  0.0000)
  27 Na    11.964247    2.115000   12.991062    ( 0.0000,  0.0000,  0.0000)
  28 Na     5.981518    0.001090   15.972674    ( 0.0000,  0.0000,  0.0000)
  29 Na     8.973185    2.113298   15.972542    ( 0.0000,  0.0000,  0.0000)
  30 Na     8.973185    0.000706   18.977261    ( 0.0000,  0.0000,  0.0000)
  31 Na     5.982110    2.113950   18.977799    ( 0.0000,  0.0000,  0.0000)
  32 Na     5.982123    4.230000   10.000000    ( 0.0000,  0.0000,  0.0000)
  33 Na     8.973185    6.345000   10.000000    ( 0.0000,  0.0000,  0.0000)
  34 Na     8.973185    4.230000   12.991062    ( 0.0000,  0.0000,  0.0000)
  35 Na    11.964247    6.345000   12.991062    ( 0.0000,  0.0000,  0.0000)
  36 Na     5.981875    4.230427   15.973971    ( 0.0000,  0.0000,  0.0000)
  37 Na     8.973185    6.346787   15.964073    ( 0.0000,  0.0000,  0.0000)
  38 Na     8.973185    4.230224   18.978447    ( 0.0000,  0.0000,  0.0000)
  39 Na     5.979130    6.341721   18.976610    ( 0.0000,  0.0000,  0.0000)
  40 Na     5.982123    8.460000   10.000000    ( 0.0000,  0.0000,  0.0000)
  41 Na     8.973185   10.575000   10.000000    ( 0.0000,  0.0000,  0.0000)
  42 Na     8.973185    8.460000   12.991062    ( 0.0000,  0.0000,  0.0000)
  43 Na    11.964247   10.575000   12.991062    ( 0.0000,  0.0000,  0.0000)
  44 Na     5.981522    8.458480   15.965596    ( 0.0000,  0.0000,  0.0000)
  45 Na     8.973185   10.574931   15.964983    ( 0.0000,  0.0000,  0.0000)
  46 Na     8.973185    8.459057   18.977540    ( 0.0000,  0.0000,  0.0000)
  47 Na     5.980230   10.579367   18.977234    ( 0.0000,  0.0000,  0.0000)
  48 Na    11.964247    0.000000   10.000000    ( 0.0000,  0.0000,  0.0000)
  49 Na    14.955308    2.115000   10.000000    ( 0.0000,  0.0000,  0.0000)
  50 Na    14.955308    0.000000   12.991062    ( 0.0000,  0.0000,  0.0000)
  51 Na    17.946370    2.115000   12.991062    ( 0.0000,  0.0000,  0.0000)
  52 Na    11.964853    0.001090   15.972674    ( 0.0000,  0.0000,  0.0000)
  53 Na    14.938299    2.113614   15.945007    ( 0.0000,  0.0000,  0.0000)
  54 Na    15.001057    0.044602   19.043026    ( 0.0000,  0.0000,  0.0000)
  55 Na    11.964260    2.113950   18.977799    ( 0.0000,  0.0000,  0.0000)
  56 Na    11.964247    4.230000   10.000000    ( 0.0000,  0.0000,  0.0000)
  57 Na    14.955308    6.345000   10.000000    ( 0.0000,  0.0000,  0.0000)
  58 Na    14.955308    4.230000   12.991062    ( 0.0000,  0.0000,  0.0000)
  59 Na    17.946370    6.345000   12.991062    ( 0.0000,  0.0000,  0.0000)
  60 Na    11.964495    4.230427   15.973971    ( 0.0000,  0.0000,  0.0000)
  61 Na    14.948195    6.339891   15.973267    ( 0.0000,  0.0000,  0.0000)
  62 Na    15.001453    4.187458   19.042926    ( 0.0000,  0.0000,  0.0000)
  63 Na    11.967240    6.341721   18.976610    ( 0.0000,  0.0000,  0.0000)
  64 Na    11.964247    8.460000   10.000000    ( 0.0000,  0.0000,  0.0000)
  65 Na    14.955308   10.575000   10.000000    ( 0.0000,  0.0000,  0.0000)
  66 Na    14.955308    8.460000   12.991062    ( 0.0000,  0.0000,  0.0000)
  67 Na    17.946370   10.575000   12.991062    ( 0.0000,  0.0000,  0.0000)
  68 Na    11.964849    8.458480   15.965596    ( 0.0000,  0.0000,  0.0000)
  69 Na    14.948627   10.581645   15.974642    ( 0.0000,  0.0000,  0.0000)
  70 Na    14.955647    8.458920   18.983198    ( 0.0000,  0.0000,  0.0000)
  71 Na    11.966140   10.579367   18.977234    ( 0.0000,  0.0000,  0.0000)
  72 Na     0.000000    2.114246   21.570743    ( 0.0000,  0.0000,  0.0000)

Unit cell:
           periodic     x           y           z      points  spacing
  1. axis:    yes   17.946370    0.000000    0.000000    88     0.2039
  2. axis:    yes    0.000000   12.690000    0.000000    64     0.1983
  3. axis:    no     0.000000    0.000000   28.973185   144     0.2012

  Lengths:  17.946370  12.690000  28.973185
  Angles:   90.000000  90.000000  90.000000

Effective grid spacing dv^(1/3) = 0.2011

     iter     time        total  log10-change:
                         energy   eigst   dens
iter:   1 15:42:40   -89.357142        c
iter:   2 15:43:37   -88.519831        c -1.60
iter:   3 15:44:28   -87.965518        c -1.70
iter:   4 15:45:18   -87.864936        c -1.87
iter:   5 15:46:03   -87.852452c       c -2.04
iter:   6 15:46:53   -87.879367c       c -2.24
iter:   7 15:47:44   -87.799548c       c -2.25
iter:   8 15:49:06   -87.790969c       c -2.71
iter:   9 15:50:33   -87.781855c       c -2.87
iter:  10 15:51:20   -87.780673c       c -3.16
iter:  11 15:51:58   -87.779768c       c -3.23
iter:  12 15:52:35   -87.779064c       c -3.42
iter:  13 15:53:10   -87.779123c       c -3.58
iter:  14 15:53:46   -87.779602c       c -3.72
iter:  15 15:54:23   -87.779708c       c -3.93
iter:  16 15:55:24   -87.779686c       c -4.04c

Converged after 16 iterations.

Dipole moment: (-22.620631, -12.991282, 0.301973) |e|*Ang

Energy contributions relative to reference atoms: (reference = -322558.566329)

Kinetic:       +143.918573
Potential:     -131.068731
External:        +0.000000
XC:             -99.555352
Entropy (-ST):   -2.609842
Local:           +0.230745
SIC:             +0.000000
--------------------------
Free energy:    -89.084606
Extrapolated:   -87.779686

 Band  Eigenvalues  Occupancy
    0    -28.53876    2.00000
    1    -28.51760    2.00000
    2    -28.51620    2.00000
    3    -27.95237    2.00000
    4    -27.94231    2.00000
    5    -27.93660    2.00000
    6    -27.93081    2.00000
    7    -27.93031    2.00000
    8    -27.93006    2.00000
    9    -27.92851    2.00000
   10    -27.92799    2.00000
   11    -27.92767    2.00000
   12    -27.92500    2.00000
   13    -27.92492    2.00000
   14    -27.92476    2.00000
   15    -27.92461    2.00000
   16    -27.92416    2.00000
   17    -27.92093    2.00000
   18    -27.91900    2.00000
   19    -27.91893    2.00000
   20    -27.91885    2.00000
   21    -27.91873    2.00000
   22    -27.91871    2.00000
   23    -27.91862    2.00000
   24    -27.91855    2.00000
   25    -27.91823    2.00000
   26    -27.91820    2.00000
   27    -27.91748    2.00000
   28    -27.91645    2.00000
   29    -27.91607    2.00000
   30    -27.91526    2.00000
   31    -27.91502    2.00000
   32    -27.91492    2.00000
   33    -27.91432    2.00000
   34    -27.91386    2.00000
   35    -27.91321    2.00000
   36    -27.91311    2.00000
   37    -27.91279    2.00000
   38    -27.91261    2.00000
   39    -27.91234    2.00000
   40    -27.91234    2.00000
   41    -27.91231    2.00000
   42    -27.91092    2.00000
   43    -27.91089    2.00000
   44    -27.91078    2.00000
   45    -27.91070    2.00000
   46    -27.91063    2.00000
   47    -27.91032    2.00000
   48    -27.90951    2.00000
   49    -27.90941    2.00000
   50    -27.90925    2.00000
   51    -27.90892    2.00000
   52    -27.90870    2.00000
   53    -27.90860    2.00000
   54    -27.90820    2.00000
   55    -27.90648    2.00000
   56    -27.90618    2.00000
   57    -27.90555    2.00000
   58    -27.90368    2.00000
   59    -27.90325    2.00000
   60    -27.90317    2.00000
   61    -27.90225    2.00000
   62    -27.90193    2.00000
   63    -27.90179    2.00000
   64    -27.90157    2.00000
   65    -27.90143    2.00000
   66    -27.90136    2.00000
   67    -27.90107    2.00000
   68    -27.90087    2.00000
   69    -27.89998    2.00000
   70    -27.89974    2.00000
   71    -27.89869    2.00000
   72    -27.89855    2.00000
   73    -27.89844    2.00000
   74    -27.89815    2.00000
   75    -27.89779    2.00000
   76    -27.89758    2.00000
   77    -27.89742    2.00000
   78    -27.89612    2.00000
   79    -27.89476    2.00000
   80    -27.89456    2.00000
   81    -27.89414    2.00000
   82    -27.89338    2.00000
   83    -27.89274    2.00000
   84    -27.89247    2.00000
   85    -27.89196    2.00000
   86    -27.89195    2.00000
   87    -27.89187    2.00000
   88    -27.88984    2.00000
   89    -27.88978    2.00000
   90    -27.88786    2.00000
   91    -27.88737    2.00000
   92    -27.88730    2.00000
   93    -27.88721    2.00000
   94    -27.88683    2.00000
   95    -27.88673    2.00000
   96    -27.88607    2.00000
   97    -27.88594    2.00000
   98    -27.88556    2.00000
   99    -27.88542    2.00000
  100    -27.88386    2.00000
  101    -27.88357    2.00000
  102    -27.88346    2.00000
  103    -27.88256    2.00000
  104    -27.87076    2.00000
  105    -27.87048    2.00000
  106    -27.86879    2.00000
  107    -27.86773    2.00000
  108    -27.74029    2.00000
  109    -27.73910    2.00000
  110    -27.73905    2.00000
  111    -27.73903    2.00000
  112    -27.73543    2.00000
  113    -27.73530    2.00000
  114    -27.73250    2.00000
  115    -27.73202    2.00000
  116    -27.73056    2.00000
  117    -27.72936    2.00000
  118    -27.72646    2.00000
  119    -27.72523    2.00000
  120    -27.72521    2.00000
  121    -27.72520    2.00000
  122    -27.72506    2.00000
  123    -27.72503    2.00000
  124    -27.72434    2.00000
  125    -27.72422    2.00000
  126    -27.72395    2.00000
  127    -27.72371    2.00000
  128    -27.72365    2.00000
  129    -27.72297    2.00000
  130    -27.72188    2.00000
  131    -27.72138    2.00000
  132    -27.72116    2.00000
  133    -27.72007    2.00000
  134    -27.72001    2.00000
  135    -27.71952    2.00000
  136    -27.71827    2.00000
  137    -27.71806    2.00000
  138    -27.71784    2.00000
  139    -27.71745    2.00000
  140    -27.71705    2.00000
  141    -27.71686    2.00000
  142    -27.71665    2.00000
  143    -27.71548    2.00000
  144    -27.71542    2.00000
  145    -27.71428    2.00000
  146    -27.71416    2.00000
  147    -27.71373    2.00000
  148    -27.71359    2.00000
  149    -27.71351    2.00000
  150    -27.71344    2.00000
  151    -27.71311    2.00000
  152    -27.71306    2.00000
  153    -27.71283    2.00000
  154    -27.71260    2.00000
  155    -27.71189    2.00000
  156    -27.71180    2.00000
  157    -27.71126    2.00000
  158    -27.71116    2.00000
  159    -27.71101    2.00000
  160    -27.71078    2.00000
  161    -27.71001    2.00000
  162    -27.70999    2.00000
  163    -27.70988    2.00000
  164    -27.70860    2.00000
  165    -27.70841    2.00000
  166    -27.70808    2.00000
  167    -27.70764    2.00000
  168    -27.70744    2.00000
  169    -27.70715    2.00000
  170    -27.70669    2.00000
  171    -27.70590    2.00000
  172    -27.70527    2.00000
  173    -27.70405    2.00000
  174    -27.70383    2.00000
  175    -27.70359    2.00000
  176    -27.70355    2.00000
  177    -27.70342    2.00000
  178    -27.70277    2.00000
  179    -27.70174    2.00000
  180    -27.70150    2.00000
  181    -27.70113    2.00000
  182    -27.70098    2.00000
  183    -27.70042    2.00000
  184    -27.69992    2.00000
  185    -27.69988    2.00000
  186    -27.69950    2.00000
  187    -27.69886    2.00000
  188    -27.69885    2.00000
  189    -27.69824    2.00000
  190    -27.69805    2.00000
  191    -27.69798    2.00000
  192    -27.69796    2.00000
  193    -27.69737    2.00000
  194    -27.69691    2.00000
  195    -27.69623    2.00000
  196    -27.69604    2.00000
  197    -27.69596    2.00000
  198    -27.69545    2.00000
  199    -27.69516    2.00000
  200    -27.69506    2.00000
  201    -27.69473    2.00000
  202    -27.69446    2.00000
  203    -27.69413    2.00000
  204    -27.69377    2.00000
  205    -27.69355    2.00000
  206    -27.69290    2.00000
  207    -27.69267    2.00000
  208    -27.69254    2.00000
  209    -27.69196    2.00000
  210    -27.69161    2.00000
  211    -27.68911    2.00000
  212    -27.68887    2.00000
  213    -27.68869    2.00000
  214    -27.68684    2.00000
  215    -27.68645    2.00000
  216    -27.68609    2.00000
  217    -27.68598    2.00000
  218    -27.68424    2.00000
  219     -5.89661    2.00000
  220     -5.41735    2.00000
  221     -5.40051    2.00000
  222     -5.33802    2.00000
  223     -4.93445    2.00000
  224     -4.93151    2.00000
  225     -4.87505    2.00000
  226     -4.85522    2.00000
  227     -4.47280    1.99997
  228     -4.46987    1.99997
  229     -4.45468    1.99996
  230     -4.45035    1.99996
  231     -4.43778    1.99996
  232     -4.39062    1.99995
  233     -4.38509    1.99994
  234     -4.00748    1.99931
  235     -3.98939    1.99922
  236     -3.98814    1.99921
  237     -3.94330    1.99894
  238     -3.91919    1.99876
  239     -3.91811    1.99875
  240     -3.91231    1.99870
  241     -3.90178    1.99860
  242     -3.53769    1.98430
  243     -3.48912    1.97836
  244     -3.45392    1.97271
  245     -3.44946    1.97190
  246     -3.28893    1.92020
  247     -3.07433    1.70390
  248     -3.07238    1.70061
  249     -3.06940    1.69551
  250     -3.06851    1.69398
  251     -3.05717    1.67387
  252     -3.03150    1.62443
  253     -3.01481    1.58930
  254     -3.00536    1.56836
  255     -2.84228    1.10113
  256     -2.74479    0.78017
  257     -2.57531    0.34250
  258     -2.56327    0.32031
  259     -2.53164    0.26756
  260     -2.53029    0.26548
  261     -2.52962    0.26445
  262     -2.52546    0.25815
  263     -2.41784    0.13489
  264     -2.32702    0.07595
  265     -2.20210    0.03375
  266     -2.14873    0.02377
  267     -2.14279    0.02285
  268     -1.96128    0.00687
  269     -1.92794    0.00550
  270     -1.90327    0.00467
  271     -1.88121    0.00403
  272     -1.84172    0.00310
  273     -1.76286    0.00183
  274     -1.73518    0.00153
  275     -1.73339    0.00151
  276     -1.71867    0.00137
  277     -1.71602    0.00134
  278     -1.71100    0.00130
  279     -1.70962    0.00129
  280     -1.70414    0.00124
  281     -1.70290    0.00123
  282     -1.68061    0.00106
  283     -1.63430    0.00078
  284     -1.62960    0.00076
  285     -1.44429    0.00022
  286     -1.42439    0.00019
  287     -1.39355    0.00016
  288     -1.35037    0.00012
  289     -1.34060    0.00011
  290     -1.28201    0.00007
  291     -1.10918    0.00002
  292     -1.04539    0.00002
  293     -1.04420    0.00002
  294     -1.02680    0.00001
  295     -1.01792    0.00001
  296     -1.01065    0.00001
  297     -1.00464    0.00001
  298     -0.88751    0.00001
  299     -0.85089    0.00000
  300     -0.82473    0.00000
  301     -0.82032    0.00000
  302     -0.82021    0.00000
  303     -0.76654    0.00000
  304     -0.75851    0.00000
  305     -0.59624    0.00000
  306     -0.59433    0.00000
  307     -0.57633    0.00000
  308     -0.52408    0.00000
  309     -0.52290    0.00000
  310     -0.51027    0.00000

Fermi level: -2.81183

Gap: 0.097 eV
Transition (v -> c):
  (s=0, k=0, n=255, [0.00, 0.00, 0.00]) -> (s=0, k=0, n=256, [0.00, 0.00, 0.00])
No difference between direct/indirect transitions
Timing:                              incl.     excl.
-----------------------------------------------------------
Basic WFS set positions:             0.001     0.001   0.0% |
Basis functions set positions:       1.494     1.494   0.0% |
LCAO WFS Initialize:                 3.587     0.851   0.0% |
 Hamiltonian:                        2.736     0.000   0.0% |
  Atomic:                            1.071     0.003   0.0% |
   XC Correction:                    1.068     1.068   0.0% |
  Calculate atomic Hamiltonians:     0.056     0.056   0.0% |
  Communicate:                       0.000     0.000   0.0% |
  Hartree integrate/restrict:        0.029     0.029   0.0% |
  Initialize Hamiltonian:            0.000     0.000   0.0% |
  Poisson:                           0.621     0.041   0.0% |
   Communicate from 1D:              0.072     0.072   0.0% |
   Communicate from 2D:              0.060     0.060   0.0% |
   Communicate to 1D:                0.041     0.041   0.0% |
   Communicate to 2D:                0.089     0.089   0.0% |
   FFT 1D:                           0.129     0.129   0.0% |
   FFT 2D:                           0.189     0.189   0.0% |
  XC 3D grid:                        0.948     0.948   0.0% |
  vbar:                              0.010     0.010   0.0% |
P tci:                               1.626     1.626   0.0% |
SCF-cycle:                         793.187     0.036   0.0% |
 Density:                          323.037     0.000   0.0% |
  Atomic density matrices:           0.081     0.081   0.0% |
  Mix:                               2.706     2.706   0.0% |
  Multipole moments:                 0.015     0.015   0.0% |
  Normalize:                         0.006     0.006   0.0% |
  Pseudo density:                  320.229     0.053   0.0% |
   Calculate density matrix:         0.174     0.174   0.0% |
   Construct density:              319.845   319.845   2.0% ||
   Symmetrize density:               0.156     0.156   0.0% |
 Hamiltonian:                       35.221     0.002   0.0% |
  Atomic:                           12.577     0.048   0.0% |
   XC Correction:                   12.528    12.528   0.1% |
  Calculate atomic Hamiltonians:     0.869     0.869   0.0% |
  Communicate:                       0.000     0.000   0.0% |
  Hartree integrate/restrict:        0.337     0.337   0.0% |
  Poisson:                           8.829     0.588   0.0% |
   Communicate from 1D:              0.917     0.917   0.0% |
   Communicate from 2D:              0.687     0.687   0.0% |
   Communicate to 1D:                0.529     0.529   0.0% |
   Communicate to 2D:                1.981     1.981   0.0% |
   FFT 1D:                           1.567     1.567   0.0% |
   FFT 2D:                           2.559     2.559   0.0% |
  XC 3D grid:                       12.155    12.155   0.1% |
  vbar:                              0.454     0.454   0.0% |
 LCAO eigensolver:                 434.892     0.117   0.0% |
  Calculate projections:             0.191     0.191   0.0% |
  DenseAtomicCorrection:             2.786     2.786   0.0% |
  Distribute overlap matrix:         0.003     0.003   0.0% |
  Orbital Layouts:                   4.990     4.990   0.0% |
  Potential matrix:                426.805   426.805   2.6% ||
ST tci:                              3.947     3.947   0.0% |
Set symmetry:                        0.001     0.001   0.0% |
TCI: Evaluate splines:               0.037     0.037   0.0% |
mktci:                               0.074     0.074   0.0% |
Other:                           15365.717 15365.717  95.0% |-------------------------------------|
-----------------------------------------------------------
Total:                                     16169.671 100.0%

Memory usage: 3.67 GiB
Date: Wed Nov 26 15:55:26 2025
