
  ___ ___ ___ _ _ _  
 |   |   |_  | | | | 
 | | | | | . | | | | 
 |__ |  _|___|_____|  25.7.0
 |___|_|             

User:   tew@Mathuss-MacBook-Air-357.local
Date:   Wed Nov 26 11:25:56 2025
Arch:   arm64
Pid:    88448
CWD:    /Users/tew/Documents/Project/GitHub/chem-com
Python: 3.13.5
gpaw:   /Users/tew/Documents/Project/GitHub/chem-com/.venv/lib/python3.13/site-packages/gpaw
_gpaw:  /Users/tew/Documents/Project/GitHub/chem-com/.venv/lib/python3.13/site-packages/
        _gpaw.cpython-313-darwin.so
ase:    /Users/tew/Documents/Project/GitHub/chem-com/.venv/lib/python3.13/site-packages/ase (version 3.26.0)
numpy:  /Users/tew/Documents/Project/GitHub/chem-com/.venv/lib/python3.13/site-packages/numpy (version 2.3.5)
scipy:  /Users/tew/Documents/Project/GitHub/chem-com/.venv/lib/python3.13/site-packages/scipy (version 1.16.3)
libxc:  2.x.y
units:  Angstrom and eV
cores: 1
OpenMP: False
OMP_NUM_THREADS: 1

Input parameters:
  basis: dzp
  convergence: {density: 0.0001,
                eigenstates: 5e-06}
  kpts: [1 1 1]
  mode: {interpolation: 3,
         name: lcao}
  occupations: {fixmagmom: False,
                name: fermi-dirac,
                width: 0.15}
  xc: PBE

System changes: positions, numbers, cell, pbc, initial_charges, initial_magmoms 

Initialize ...

species:
  Na:
    name: Sodium
    id: d7ecbc49209718622bcbe287195dca2a
    Z: 11.0
    valence: 7
    core: 4
    charge: 0.0
    file: /Users/tew/Documents/Project/GitHub/chem-com/.venv/lib/python3.13/site-packages/gpaw_data/setups/Na.PBE.gz
    compensation charges: {type: gauss,
                           rc: 0.37,
                           lmax: 2}
    cutoffs: {filter: 2.17,
              core: 2.59}
    projectors:
      #              energy  rcut
      - 3s(1.00)    -2.744   1.201
      - 2p(6.00)   -28.672   1.217
      - 3p(0.00)    -0.743   1.217
      -  s          24.468   1.201
      -  d           0.000   1.238
  
    # LCAO basis set for Na:
    #   Name: dzp
    #   File: /Users/tew/Documents/Project/GitHub/chem-com/.venv/lib/python3.13/site-packages/gpaw_data/setups/Na.dzp.basis.gz
    #   Number of radial functions: 7
    #   Number of spherical harmonics: 17
    #     l=0, rc=11.4062 Bohr: 3s-sz confined orbital
    #     l=1, rc=3.6719 Bohr: 2p-sz confined orbital
    #     l=1, rc=15.9375 Bohr: 3p-sz confined orbital
    #     l=0, rc=6.9531 Bohr: 3s-dz split-valence wave
    #     l=1, rc=2.4219 Bohr: 2p-dz split-valence wave
    #     l=1, rc=10.0469 Bohr: 3p-dz split-valence wave
    #     l=1, rc=11.4062 Bohr: p-type Gaussian polarization
    #   Number of RI-basis functions 0

Reference energy: -322558.566329  # eV

Spin-paired calculation

Convergence criteria:
 Maximum [total energy] change in last 3 cyles: 0.0005 eV / valence electron
 Maximum integral of absolute [dens]ity change: 0.0001 electrons / valence electron
 Maximum integral of absolute [eigenst]ate change: 5e-06 eV^2 / valence electron
 Maximum number of scf [iter]ations: 333
 (Square brackets indicate name in SCF output, whereas a 'c' in
 the SCF output indicates the quantity has converged.)

Symmetries present (total): 1

  ( 1  0  0)
  ( 0  1  0)
  ( 0  0  1)

1 k-point (Gamma)
1 k-point in the irreducible part of the Brillouin zone
       k-points in crystal coordinates                weights
   0:     0.00000000    0.00000000    0.00000000          1/1

Wave functions: LCAO
  Diagonalizer: Serial LAPACK
  Atomic Correction: dense with blas
  Data-type: float
 

Occupation numbers: Fermi-Dirac:
  width: 0.1500  # eV
 

Eigensolver
   LCAO using direct dense diagonalizer 

Densities:
  Coarse grid: 88*64*144 grid
  Fine grid: 176*128*288 grid
  Total Charge: 0.000000 

Density mixing:
  Method: separate
  Backend: pulay
  Linear mixing parameter: 0.05
  old densities: 5
  Damping of long wavelength oscillations: 50 

Hamiltonian:
  XC and Coulomb potentials evaluated on a 176*128*288 grid
  Using the PBE Exchange-Correlation functional
  Interpolation: tri-quintic (5. degree polynomial)
  Poisson solver: FastPoissonSolver using
    Stencil: 6*3+1=19 point O(h^6) finite-difference Laplacian
    FFT axes: [np.int64(0), np.int64(1)]
    FST axes: [np.int64(2)]
 

XC parameters: PBE with 2 nearest neighbor stencil

Memory estimate:
  Process memory now: 3762.67 MiB
  Calculator: 1616.02 MiB
    Density: 540.29 MiB
      Arrays: 160.27 MiB
      Localized functions: 318.57 MiB
      Mixer: 61.45 MiB
    Hamiltonian: 128.23 MiB
      Arrays: 104.80 MiB
      XC: 0.00 MiB
      Poisson: 0.00 MiB
      vbar: 23.43 MiB
    Wavefunctions: 947.50 MiB
      C [qnM]: 2.94 MiB
      S, T [2 x qmm]: 23.50 MiB
      P [aqMi]: 1.12 MiB
      BasisFunctions: 919.93 MiB
      Eigensolver: 0.00 MiB

Total number of cores used: 1

Number of atoms: 73
Number of atomic orbitals: 1241
Number of bands in calculation: 311
Number of valence electrons: 511
Bands to converge: occupied

... initialized

Initializing position-dependent things.

Density initialized from atomic densities
         .-------------------------------------------.  
        /|                                           |  
       / |                                           |  
      /  |                                           |  
     /   |                                           |  
    /    |                                           |  
   /     |                                           |  
  /      |                                           |  
 *       |                                           |  
 |       |                                           |  
 |       |                                           |  
 |       |                                           |  
 |       |                                           |  
 |       |                                           |  
 |      Na            Na             Na              |  
 |       |    Na            Na             Na        |  
 |       |          Na            Na             Na  Na 
 |    Na |                    Na            Na       |  
 |       | Na  Na         Na            Na           |  
 |Na     |       Na  Na         Na  Na            Na |  
 |       |  Na         Na  Na         Na  Na         |  
 |      Na        Na  Na         Na  Na              |  
 |       |                                      Na   |  
 |       |Na  Na        Na  Na         Na  Na        |  
 |   Na  |      Na  Na        Na  Na                 |  
 |       | Na  Na         Na  Na        Na  Na       |  
 |    Na |           Na             Na               |  
 |Na     |       Na             Na                   |  
 |      Na  Na         Na  Na         Na  Na         |  
 |  Na   |        Na             Na                  |  
 |       |Na            Na             Na            |  
 |       |                                           |  
 Na      |      Na            Na                     |  
 |       |                                           |  
 |       |                                           |  
 |       |                                           |  
 |       .-------------------------------------------.  
 |      /                                           /   
 |     /                                           /    
 |    /                                           /     
 |   /                                           /      
 |  /                                           /       
 | /                                           /        
 |/                                           /         
 *-------------------------------------------*          

Atomic positions and initial magnetic moments

Positions:
   0 Na     0.000000    0.000000   10.000000    ( 0.0000,  0.0000,  0.0000)
   1 Na     2.991062    2.115000   10.000000    ( 0.0000,  0.0000,  0.0000)
   2 Na     2.991062    0.000000   12.991062    ( 0.0000,  0.0000,  0.0000)
   3 Na     5.982123    2.115000   12.991062    ( 0.0000,  0.0000,  0.0000)
   4 Na    -0.013696   -0.040486   15.896641    ( 0.0000,  0.0000,  0.0000)
   5 Na     2.996885    2.205370   15.842896    ( 0.0000,  0.0000,  0.0000)
   6 Na     2.976298    0.014867   18.612436    ( 0.0000,  0.0000,  0.0000)
   7 Na     0.033747    2.081979   18.831648    ( 0.0000,  0.0000,  0.0000)
   8 Na     0.000000    4.230000   10.000000    ( 0.0000,  0.0000,  0.0000)
   9 Na     2.991062    6.345000   10.000000    ( 0.0000,  0.0000,  0.0000)
  10 Na     2.991062    4.230000   12.991062    ( 0.0000,  0.0000,  0.0000)
  11 Na     5.982123    6.345000   12.991062    ( 0.0000,  0.0000,  0.0000)
  12 Na    -0.004261    4.268046   15.919297    ( 0.0000,  0.0000,  0.0000)
  13 Na     2.993812    6.343297   15.974132    ( 0.0000,  0.0000,  0.0000)
  14 Na     2.975814    4.184949   19.035995    ( 0.0000,  0.0000,  0.0000)
  15 Na    -0.000341    6.329829   18.997786    ( 0.0000,  0.0000,  0.0000)
  16 Na     0.000000    8.460000   10.000000    ( 0.0000,  0.0000,  0.0000)
  17 Na     2.991062   10.575000   10.000000    ( 0.0000,  0.0000,  0.0000)
  18 Na     2.991062    8.460000   12.991062    ( 0.0000,  0.0000,  0.0000)
  19 Na     5.982123   10.575000   12.991062    ( 0.0000,  0.0000,  0.0000)
  20 Na    -0.004261    8.462020   15.973640    ( 0.0000,  0.0000,  0.0000)
  21 Na     2.993442   10.486383   15.852774    ( 0.0000,  0.0000,  0.0000)
  22 Na     2.991083    8.490510   19.016086    ( 0.0000,  0.0000,  0.0000)
  23 Na     0.033747   10.622689   19.042256    ( 0.0000,  0.0000,  0.0000)
  24 Na     5.982123    0.000000   10.000000    ( 0.0000,  0.0000,  0.0000)
  25 Na     8.973185    2.115000   10.000000    ( 0.0000,  0.0000,  0.0000)
  26 Na     8.973185    0.000000   12.991062    ( 0.0000,  0.0000,  0.0000)
  27 Na    11.964247    2.115000   12.991062    ( 0.0000,  0.0000,  0.0000)
  28 Na     5.995084    0.000363   15.950295    ( 0.0000,  0.0000,  0.0000)
  29 Na     8.972970    2.112313   15.972282    ( 0.0000,  0.0000,  0.0000)
  30 Na     8.973275    0.000235   18.977244    ( 0.0000,  0.0000,  0.0000)
  31 Na     5.948852    2.081983   19.025512    ( 0.0000,  0.0000,  0.0000)
  32 Na     5.982123    4.230000   10.000000    ( 0.0000,  0.0000,  0.0000)
  33 Na     8.973185    6.345000   10.000000    ( 0.0000,  0.0000,  0.0000)
  34 Na     8.973185    4.230000   12.991062    ( 0.0000,  0.0000,  0.0000)
  35 Na    11.964247    6.345000   12.991062    ( 0.0000,  0.0000,  0.0000)
  36 Na     5.986205    4.227513   15.973238    ( 0.0000,  0.0000,  0.0000)
  37 Na     8.972824    6.345596   15.962844    ( 0.0000,  0.0000,  0.0000)
  38 Na     8.972105    4.228554   18.978108    ( 0.0000,  0.0000,  0.0000)
  39 Na     5.980832    6.343907   18.981236    ( 0.0000,  0.0000,  0.0000)
  40 Na     5.982123    8.460000   10.000000    ( 0.0000,  0.0000,  0.0000)
  41 Na     8.973185   10.575000   10.000000    ( 0.0000,  0.0000,  0.0000)
  42 Na     8.973185    8.460000   12.991062    ( 0.0000,  0.0000,  0.0000)
  43 Na    11.964247   10.575000   12.991062    ( 0.0000,  0.0000,  0.0000)
  44 Na     5.986087    8.462123   15.970446    ( 0.0000,  0.0000,  0.0000)
  45 Na     8.972970   10.577097   15.969763    ( 0.0000,  0.0000,  0.0000)
  46 Na     8.972105    8.461206   18.977805    ( 0.0000,  0.0000,  0.0000)
  47 Na     5.948226   10.609122   19.025324    ( 0.0000,  0.0000,  0.0000)
  48 Na    11.964247    0.000000   10.000000    ( 0.0000,  0.0000,  0.0000)
  49 Na    14.955308    2.115000   10.000000    ( 0.0000,  0.0000,  0.0000)
  50 Na    14.955308    0.000000   12.991062    ( 0.0000,  0.0000,  0.0000)
  51 Na    17.946370    2.115000   12.991062    ( 0.0000,  0.0000,  0.0000)
  52 Na    11.964762    0.000363   15.971482    ( 0.0000,  0.0000,  0.0000)
  53 Na    14.949775    2.112547   15.963676    ( 0.0000,  0.0000,  0.0000)
  54 Na    14.969857    0.014867   18.999443    ( 0.0000,  0.0000,  0.0000)
  55 Na    11.964152    2.113355   18.978509    ( 0.0000,  0.0000,  0.0000)
  56 Na    11.964247    4.230000   10.000000    ( 0.0000,  0.0000,  0.0000)
  57 Na    14.955308    6.345000   10.000000    ( 0.0000,  0.0000,  0.0000)
  58 Na    14.955308    4.230000   12.991062    ( 0.0000,  0.0000,  0.0000)
  59 Na    17.946370    6.345000   12.991062    ( 0.0000,  0.0000,  0.0000)
  60 Na    11.964394    4.232573   15.967342    ( 0.0000,  0.0000,  0.0000)
  61 Na    14.952946    6.343297   15.966146    ( 0.0000,  0.0000,  0.0000)
  62 Na    14.971872    4.214391   18.999470    ( 0.0000,  0.0000,  0.0000)
  63 Na    11.965953    6.343907   18.976896    ( 0.0000,  0.0000,  0.0000)
  64 Na    11.964247    8.460000   10.000000    ( 0.0000,  0.0000,  0.0000)
  65 Na    14.955308   10.575000   10.000000    ( 0.0000,  0.0000,  0.0000)
  66 Na    14.955308    8.460000   12.991062    ( 0.0000,  0.0000,  0.0000)
  67 Na    17.946370   10.575000   12.991062    ( 0.0000,  0.0000,  0.0000)
  68 Na    11.964512    8.457062   15.964550    ( 0.0000,  0.0000,  0.0000)
  69 Na    14.953217   10.579206   15.973555    ( 0.0000,  0.0000,  0.0000)
  70 Na    14.956604    8.461068   18.979561    ( 0.0000,  0.0000,  0.0000)
  71 Na    11.964779   10.577751   18.978320    ( 0.0000,  0.0000,  0.0000)
  72 Na     1.994932    0.704749   21.579586    ( 0.0000,  0.0000,  0.0000)

Unit cell:
           periodic     x           y           z      points  spacing
  1. axis:    yes   17.946370    0.000000    0.000000    88     0.2039
  2. axis:    yes    0.000000   12.690000    0.000000    64     0.1983
  3. axis:    no     0.000000    0.000000   28.973185   144     0.2012

  Lengths:  17.946370  12.690000  28.973185
  Angles:   90.000000  90.000000  90.000000

Effective grid spacing dv^(1/3) = 0.2011

     iter     time        total  log10-change:
                         energy   eigst   dens
iter:   1 11:42:28   -89.354285        c
iter:   2 11:43:18   -88.523453        c -1.61
iter:   3 11:44:07   -87.970708        c -1.71
iter:   4 11:44:53   -87.874752        c -1.87
iter:   5 11:45:38   -87.857658c       c -2.05
iter:   6 11:46:26   -87.881327c       c -2.25
iter:   7 11:47:18   -87.804093c       c -2.25
iter:   8 11:48:10   -87.795712c       c -2.71
iter:   9 11:49:01   -87.787197c       c -2.87
iter:  10 11:49:51   -87.786033c       c -3.16
iter:  11 11:50:40   -87.785180c       c -3.23
iter:  12 11:51:33   -87.784386c       c -3.42
iter:  13 11:52:24   -87.784419c       c -3.58
iter:  14 11:53:08   -87.784921c       c -3.73
iter:  15 11:53:52   -87.785021c       c -3.95
iter:  16 11:54:43   -87.784981c       c -4.06c

Converged after 16 iterations.

Dipole moment: (-23.481351, -17.329361, 0.312218) |e|*Ang

Energy contributions relative to reference atoms: (reference = -322558.566329)

Kinetic:       +144.458434
Potential:     -131.504860
External:        +0.000000
XC:             -99.666222
Entropy (-ST):   -2.607345
Local:           +0.231340
SIC:             +0.000000
--------------------------
Free energy:    -89.088653
Extrapolated:   -87.784981

 Band  Eigenvalues  Occupancy
    0    -28.50159    2.00000
    1    -28.48667    2.00000
    2    -28.47978    2.00000
    3    -27.94548    2.00000
    4    -27.93969    2.00000
    5    -27.93663    2.00000
    6    -27.93627    2.00000
    7    -27.93564    2.00000
    8    -27.93373    2.00000
    9    -27.93205    2.00000
   10    -27.93069    2.00000
   11    -27.92960    2.00000
   12    -27.92731    2.00000
   13    -27.92622    2.00000
   14    -27.92394    2.00000
   15    -27.92327    2.00000
   16    -27.92306    2.00000
   17    -27.92226    2.00000
   18    -27.92209    2.00000
   19    -27.92061    2.00000
   20    -27.91984    2.00000
   21    -27.91845    2.00000
   22    -27.91773    2.00000
   23    -27.91721    2.00000
   24    -27.91699    2.00000
   25    -27.91604    2.00000
   26    -27.91597    2.00000
   27    -27.91542    2.00000
   28    -27.91517    2.00000
   29    -27.91458    2.00000
   30    -27.91383    2.00000
   31    -27.91331    2.00000
   32    -27.91328    2.00000
   33    -27.91321    2.00000
   34    -27.91272    2.00000
   35    -27.91225    2.00000
   36    -27.91199    2.00000
   37    -27.91144    2.00000
   38    -27.91125    2.00000
   39    -27.91104    2.00000
   40    -27.91038    2.00000
   41    -27.91007    2.00000
   42    -27.90985    2.00000
   43    -27.90975    2.00000
   44    -27.90934    2.00000
   45    -27.90896    2.00000
   46    -27.90868    2.00000
   47    -27.90842    2.00000
   48    -27.90840    2.00000
   49    -27.90831    2.00000
   50    -27.90819    2.00000
   51    -27.90804    2.00000
   52    -27.90686    2.00000
   53    -27.90681    2.00000
   54    -27.90663    2.00000
   55    -27.90566    2.00000
   56    -27.90487    2.00000
   57    -27.90449    2.00000
   58    -27.90371    2.00000
   59    -27.90357    2.00000
   60    -27.90284    2.00000
   61    -27.90260    2.00000
   62    -27.90180    2.00000
   63    -27.90176    2.00000
   64    -27.90113    2.00000
   65    -27.90057    2.00000
   66    -27.90051    2.00000
   67    -27.89938    2.00000
   68    -27.89898    2.00000
   69    -27.89876    2.00000
   70    -27.89753    2.00000
   71    -27.89642    2.00000
   72    -27.89623    2.00000
   73    -27.89621    2.00000
   74    -27.89554    2.00000
   75    -27.89542    2.00000
   76    -27.89419    2.00000
   77    -27.89311    2.00000
   78    -27.89296    2.00000
   79    -27.89267    2.00000
   80    -27.89249    2.00000
   81    -27.89223    2.00000
   82    -27.89137    2.00000
   83    -27.89109    2.00000
   84    -27.89062    2.00000
   85    -27.88994    2.00000
   86    -27.88982    2.00000
   87    -27.88946    2.00000
   88    -27.88941    2.00000
   89    -27.88829    2.00000
   90    -27.88746    2.00000
   91    -27.88696    2.00000
   92    -27.88669    2.00000
   93    -27.88616    2.00000
   94    -27.88518    2.00000
   95    -27.88410    2.00000
   96    -27.88237    2.00000
   97    -27.88066    2.00000
   98    -27.87979    2.00000
   99    -27.87576    2.00000
  100    -27.87569    2.00000
  101    -27.87319    2.00000
  102    -27.86759    2.00000
  103    -27.86429    2.00000
  104    -27.86153    2.00000
  105    -27.78964    2.00000
  106    -27.78052    2.00000
  107    -27.77743    2.00000
  108    -27.73588    2.00000
  109    -27.73498    2.00000
  110    -27.73423    2.00000
  111    -27.73229    2.00000
  112    -27.73164    2.00000
  113    -27.72987    2.00000
  114    -27.72934    2.00000
  115    -27.72746    2.00000
  116    -27.72570    2.00000
  117    -27.72443    2.00000
  118    -27.72396    2.00000
  119    -27.72299    2.00000
  120    -27.72247    2.00000
  121    -27.72197    2.00000
  122    -27.72177    2.00000
  123    -27.72144    2.00000
  124    -27.72132    2.00000
  125    -27.72092    2.00000
  126    -27.72053    2.00000
  127    -27.72044    2.00000
  128    -27.71974    2.00000
  129    -27.71934    2.00000
  130    -27.71894    2.00000
  131    -27.71805    2.00000
  132    -27.71710    2.00000
  133    -27.71669    2.00000
  134    -27.71645    2.00000
  135    -27.71608    2.00000
  136    -27.71572    2.00000
  137    -27.71501    2.00000
  138    -27.71482    2.00000
  139    -27.71466    2.00000
  140    -27.71442    2.00000
  141    -27.71394    2.00000
  142    -27.71368    2.00000
  143    -27.71313    2.00000
  144    -27.71303    2.00000
  145    -27.71245    2.00000
  146    -27.71239    2.00000
  147    -27.71185    2.00000
  148    -27.71154    2.00000
  149    -27.71131    2.00000
  150    -27.71084    2.00000
  151    -27.71026    2.00000
  152    -27.70994    2.00000
  153    -27.70951    2.00000
  154    -27.70931    2.00000
  155    -27.70877    2.00000
  156    -27.70837    2.00000
  157    -27.70761    2.00000
  158    -27.70734    2.00000
  159    -27.70718    2.00000
  160    -27.70705    2.00000
  161    -27.70643    2.00000
  162    -27.70606    2.00000
  163    -27.70575    2.00000
  164    -27.70538    2.00000
  165    -27.70508    2.00000
  166    -27.70474    2.00000
  167    -27.70466    2.00000
  168    -27.70386    2.00000
  169    -27.70378    2.00000
  170    -27.70360    2.00000
  171    -27.70334    2.00000
  172    -27.70296    2.00000
  173    -27.70265    2.00000
  174    -27.70185    2.00000
  175    -27.70162    2.00000
  176    -27.70147    2.00000
  177    -27.70111    2.00000
  178    -27.70059    2.00000
  179    -27.70009    2.00000
  180    -27.69991    2.00000
  181    -27.69879    2.00000
  182    -27.69864    2.00000
  183    -27.69803    2.00000
  184    -27.69789    2.00000
  185    -27.69730    2.00000
  186    -27.69719    2.00000
  187    -27.69710    2.00000
  188    -27.69645    2.00000
  189    -27.69606    2.00000
  190    -27.69583    2.00000
  191    -27.69575    2.00000
  192    -27.69540    2.00000
  193    -27.69530    2.00000
  194    -27.69492    2.00000
  195    -27.69473    2.00000
  196    -27.69435    2.00000
  197    -27.69397    2.00000
  198    -27.69363    2.00000
  199    -27.69361    2.00000
  200    -27.69242    2.00000
  201    -27.69198    2.00000
  202    -27.69182    2.00000
  203    -27.69147    2.00000
  204    -27.69088    2.00000
  205    -27.69060    2.00000
  206    -27.69039    2.00000
  207    -27.68964    2.00000
  208    -27.68947    2.00000
  209    -27.68892    2.00000
  210    -27.68856    2.00000
  211    -27.68805    2.00000
  212    -27.68706    2.00000
  213    -27.68617    2.00000
  214    -27.68540    2.00000
  215    -27.68411    2.00000
  216    -27.68332    2.00000
  217    -27.68214    2.00000
  218    -27.67881    2.00000
  219     -5.89390    2.00000
  220     -5.41218    2.00000
  221     -5.40036    2.00000
  222     -5.33574    2.00000
  223     -4.93282    2.00000
  224     -4.92745    2.00000
  225     -4.87309    2.00000
  226     -4.85316    2.00000
  227     -4.47467    1.99997
  228     -4.46262    1.99997
  229     -4.45364    1.99997
  230     -4.44993    1.99996
  231     -4.43678    1.99996
  232     -4.38735    1.99995
  233     -4.38217    1.99994
  234     -4.01521    1.99936
  235     -3.98699    1.99922
  236     -3.98248    1.99920
  237     -3.94138    1.99895
  238     -3.91667    1.99876
  239     -3.91336    1.99873
  240     -3.90805    1.99868
  241     -3.90084    1.99862
  242     -3.54433    1.98522
  243     -3.48468    1.97808
  244     -3.44979    1.97242
  245     -3.44708    1.97193
  246     -3.28626    1.92014
  247     -3.07669    1.71205
  248     -3.06816    1.69776
  249     -3.06744    1.69653
  250     -3.06622    1.69442
  251     -3.05534    1.67516
  252     -3.02678    1.61998
  253     -3.01163    1.58792
  254     -3.00315    1.56913
  255     -2.84035    1.10318
  256     -2.74050    0.77465
  257     -2.57841    0.35332
  258     -2.55774    0.31499
  259     -2.52853    0.26670
  260     -2.52792    0.26575
  261     -2.52630    0.26327
  262     -2.52150    0.25605
  263     -2.41551    0.13507
  264     -2.32112    0.07433
  265     -2.20021    0.03390
  266     -2.14425    0.02347
  267     -2.14157    0.02306
  268     -1.96297    0.00707
  269     -1.92375    0.00544
  270     -1.89795    0.00459
  271     -1.87423    0.00392
  272     -1.83927    0.00310
  273     -1.76065    0.00184
  274     -1.73608    0.00156
  275     -1.72283    0.00143
  276     -1.71485    0.00136
  277     -1.71303    0.00134
  278     -1.70935    0.00131
  279     -1.70695    0.00129
  280     -1.70339    0.00126
  281     -1.70147    0.00124
  282     -1.67568    0.00104
  283     -1.63010    0.00077
  284     -1.62832    0.00076
  285     -1.44396    0.00022
  286     -1.41477    0.00018
  287     -1.39607    0.00016
  288     -1.34662    0.00012
  289     -1.33148    0.00011
  290     -1.27915    0.00007
  291     -1.10581    0.00002
  292     -1.04245    0.00002
  293     -1.04162    0.00002
  294     -1.03024    0.00001
  295     -1.01896    0.00001
  296     -1.00544    0.00001
  297     -1.00259    0.00001
  298     -0.88387    0.00001
  299     -0.84862    0.00000
  300     -0.83673    0.00000
  301     -0.81695    0.00000
  302     -0.79568    0.00000
  303     -0.76220    0.00000
  304     -0.76067    0.00000
  305     -0.59672    0.00000
  306     -0.59082    0.00000
  307     -0.55417    0.00000
  308     -0.52245    0.00000
  309     -0.51849    0.00000
  310     -0.50591    0.00000

Fermi level: -2.80929

Gap: 0.100 eV
Transition (v -> c):
  (s=0, k=0, n=255, [0.00, 0.00, 0.00]) -> (s=0, k=0, n=256, [0.00, 0.00, 0.00])
No difference between direct/indirect transitions

Forces in eV/Ang:
  0 Na   -0.00033    0.00078   -0.00533
  1 Na    0.00060   -0.00325   -0.00474
  2 Na    0.00268   -0.00254   -0.01067
  3 Na    0.00584    0.00247   -0.00351
  4 Na    0.02015    0.00653    0.00686
  5 Na   -0.00877   -0.01545    0.01402
  6 Na    0.06926   -0.05123   -0.09536
  7 Na   -0.02694    0.01694    0.03712
  8 Na   -0.00421   -0.00697    0.00058
  9 Na    0.00660   -0.00511    0.00764
 10 Na    0.00174    0.02454   -0.03419
 11 Na    0.00352   -0.00146    0.01537
 12 Na   -0.01035   -0.01095    0.01311
 13 Na    0.00578   -0.00444    0.01338
 14 Na   -0.00294   -0.02119    0.02060
 15 Na    0.00962    0.00321   -0.00298
 16 Na   -0.00798    0.00633    0.00385
 17 Na    0.00160    0.00811   -0.00044
 18 Na    0.00084   -0.02209   -0.02588
 19 Na    0.00550   -0.00118   -0.00083
 20 Na   -0.01181    0.00413    0.01348
 21 Na    0.00435    0.02132    0.01836
 22 Na   -0.00729    0.00225   -0.00163
 23 Na    0.00664    0.01671    0.02236
 24 Na   -0.00132    0.00024   -0.00535
 25 Na    0.00148    0.00263   -0.00594
 26 Na   -0.00219   -0.00023    0.00739
 27 Na    0.00165   -0.00025    0.00581
 28 Na   -0.02148   -0.00076    0.01140
 29 Na    0.00283    0.00057   -0.00027
 30 Na   -0.00455   -0.00022   -0.00348
 31 Na   -0.00918   -0.00289    0.01446
 32 Na    0.00450   -0.00124   -0.00389
 33 Na    0.00895    0.00206   -0.01402
 34 Na    0.00116    0.00165    0.00883
 35 Na   -0.00115    0.00025    0.00875
 36 Na    0.01018    0.00053    0.01103
 37 Na   -0.00044    0.00067   -0.00272
 38 Na   -0.00912   -0.00480   -0.00046
 39 Na   -0.00917   -0.00133    0.00084
 40 Na    0.00869    0.00111   -0.00130
 41 Na    0.00387   -0.00469   -0.00827
 42 Na    0.00300   -0.00136    0.00996
 43 Na    0.00006   -0.00009    0.00620
 44 Na    0.01129   -0.00013    0.01192
 45 Na    0.00314   -0.00107   -0.00239
 46 Na   -0.00994    0.00469   -0.00061
 47 Na    0.00358    0.00413    0.00006
 48 Na    0.00003   -0.00220   -0.00414
 49 Na   -0.00022   -0.00009   -0.00537
 50 Na   -0.00337   -0.00156    0.00204
 51 Na   -0.00470    0.00311   -0.00975
 52 Na   -0.00191    0.00021   -0.00095
 53 Na    0.00947    0.00103    0.00783
 54 Na    0.00308   -0.00196    0.00129
 55 Na    0.00203    0.00081   -0.00239
 56 Na   -0.00368    0.00781   -0.01203
 57 Na   -0.01058    0.00026   -0.00420
 58 Na   -0.00428    0.00181    0.00606
 59 Na   -0.00135    0.00750   -0.00007
 60 Na   -0.00171   -0.00013   -0.00272
 61 Na   -0.00598    0.00080    0.00361
 62 Na   -0.00363   -0.00075   -0.00854
 63 Na    0.00575   -0.00276   -0.00047
 64 Na   -0.00517   -0.00564   -0.01735
 65 Na   -0.00286   -0.00018   -0.00584
 66 Na   -0.00466    0.00041    0.01265
 67 Na   -0.00405   -0.01108   -0.01723
 68 Na    0.00008    0.00001   -0.00312
 69 Na   -0.00515   -0.00095    0.00528
 70 Na    0.00859    0.00408   -0.00071
 71 Na    0.00472    0.00249   -0.00009
 72 Na   -0.02940    0.03064    0.01481

System changes: positions 

Initializing position-dependent things.

Density initialized from wave functions
         .-------------------------------------------.  
        /|                                           |  
       / |                                           |  
      /  |                                           |  
     /   |                                           |  
    /    |                                           |  
   /     |                                           |  
  /      |                                           |  
 *       |                                           |  
 |       |                                           |  
 |       |                                           |  
 |       |                                           |  
 |       |                                           |  
 |       |                                           |  
 |      Na            Na             Na              |  
 |       |    Na            Na             Na        |  
 |       |          Na            Na             Na  Na 
 |    Na |                    Na            Na       |  
 |       | Na  Na         Na            Na           |  
 |Na     |       Na  Na         Na  Na            Na |  
 |       |  Na         Na  Na         Na  Na         |  
 |      Na        Na  Na         Na  Na              |  
 |       |                                      Na   |  
 |       |Na  Na        Na  Na         Na  Na        |  
 |   Na  |      Na  Na        Na  Na                 |  
 |       | Na  Na         Na  Na        Na  Na       |  
 |    Na |           Na             Na               |  
 |Na     |       Na             Na                   |  
 |      Na  Na         Na  Na         Na  Na         |  
 |  Na   |        Na             Na                  |  
 |       |Na            Na             Na            |  
 |       |                                           |  
 Na      |      Na            Na                     |  
 |       |                                           |  
 |       |                                           |  
 |       |                                           |  
 |       .-------------------------------------------.  
 |      /                                           /   
 |     /                                           /    
 |    /                                           /     
 |   /                                           /      
 |  /                                           /       
 | /                                           /        
 |/                                           /         
 *-------------------------------------------*          

Atomic positions and initial magnetic moments

Positions:
   0 Na     0.000000    0.000000   10.000000    ( 0.0000,  0.0000,  0.0000)
   1 Na     2.991062    2.115000   10.000000    ( 0.0000,  0.0000,  0.0000)
   2 Na     2.991062    0.000000   12.991062    ( 0.0000,  0.0000,  0.0000)
   3 Na     5.982123    2.115000   12.991062    ( 0.0000,  0.0000,  0.0000)
   4 Na    -0.013496   -0.040415   15.896716    ( 0.0000,  0.0000,  0.0000)
   5 Na     2.996797    2.205221   15.843029    ( 0.0000,  0.0000,  0.0000)
   6 Na     2.976992    0.014353   18.611453    ( 0.0000,  0.0000,  0.0000)
   7 Na     0.033480    2.082147   18.832049    ( 0.0000,  0.0000,  0.0000)
   8 Na     0.000000    4.230000   10.000000    ( 0.0000,  0.0000,  0.0000)
   9 Na     2.991062    6.345000   10.000000    ( 0.0000,  0.0000,  0.0000)
  10 Na     2.991062    4.230000   12.991062    ( 0.0000,  0.0000,  0.0000)
  11 Na     5.982123    6.345000   12.991062    ( 0.0000,  0.0000,  0.0000)
  12 Na    -0.004365    4.267931   15.919435    ( 0.0000,  0.0000,  0.0000)
  13 Na     2.993870    6.343253   15.974266    ( 0.0000,  0.0000,  0.0000)
  14 Na     2.975787    4.184737   19.036201    ( 0.0000,  0.0000,  0.0000)
  15 Na    -0.000245    6.329863   18.997754    ( 0.0000,  0.0000,  0.0000)
  16 Na     0.000000    8.460000   10.000000    ( 0.0000,  0.0000,  0.0000)
  17 Na     2.991062   10.575000   10.000000    ( 0.0000,  0.0000,  0.0000)
  18 Na     2.991062    8.460000   12.991062    ( 0.0000,  0.0000,  0.0000)
  19 Na     5.982123   10.575000   12.991062    ( 0.0000,  0.0000,  0.0000)
  20 Na    -0.004379    8.462062   15.973775    ( 0.0000,  0.0000,  0.0000)
  21 Na     2.993486   10.486590   15.852949    ( 0.0000,  0.0000,  0.0000)
  22 Na     2.991010    8.490534   19.016072    ( 0.0000,  0.0000,  0.0000)
  23 Na     0.033816   10.622857   19.042481    ( 0.0000,  0.0000,  0.0000)
  24 Na     5.982123    0.000000   10.000000    ( 0.0000,  0.0000,  0.0000)
  25 Na     8.973185    2.115000   10.000000    ( 0.0000,  0.0000,  0.0000)
  26 Na     8.973185    0.000000   12.991062    ( 0.0000,  0.0000,  0.0000)
  27 Na    11.964247    2.115000   12.991062    ( 0.0000,  0.0000,  0.0000)
  28 Na     5.994870    0.000356   15.950408    ( 0.0000,  0.0000,  0.0000)
  29 Na     8.972998    2.112318   15.972279    ( 0.0000,  0.0000,  0.0000)
  30 Na     8.973230    0.000233   18.977209    ( 0.0000,  0.0000,  0.0000)
  31 Na     5.948758    2.081952   19.025660    ( 0.0000,  0.0000,  0.0000)
  32 Na     5.982123    4.230000   10.000000    ( 0.0000,  0.0000,  0.0000)
  33 Na     8.973185    6.345000   10.000000    ( 0.0000,  0.0000,  0.0000)
  34 Na     8.973185    4.230000   12.991062    ( 0.0000,  0.0000,  0.0000)
  35 Na    11.964247    6.345000   12.991062    ( 0.0000,  0.0000,  0.0000)
  36 Na     5.986307    4.227518   15.973349    ( 0.0000,  0.0000,  0.0000)
  37 Na     8.972820    6.345602   15.962817    ( 0.0000,  0.0000,  0.0000)
  38 Na     8.972014    4.228506   18.978103    ( 0.0000,  0.0000,  0.0000)
  39 Na     5.980741    6.343894   18.981244    ( 0.0000,  0.0000,  0.0000)
  40 Na     5.982123    8.460000   10.000000    ( 0.0000,  0.0000,  0.0000)
  41 Na     8.973185   10.575000   10.000000    ( 0.0000,  0.0000,  0.0000)
  42 Na     8.973185    8.460000   12.991062    ( 0.0000,  0.0000,  0.0000)
  43 Na    11.964247   10.575000   12.991062    ( 0.0000,  0.0000,  0.0000)
  44 Na     5.986200    8.462122   15.970566    ( 0.0000,  0.0000,  0.0000)
  45 Na     8.973001   10.577086   15.969739    ( 0.0000,  0.0000,  0.0000)
  46 Na     8.972006    8.461253   18.977799    ( 0.0000,  0.0000,  0.0000)
  47 Na     5.948259   10.609166   19.025328    ( 0.0000,  0.0000,  0.0000)
  48 Na    11.964247    0.000000   10.000000    ( 0.0000,  0.0000,  0.0000)
  49 Na    14.955308    2.115000   10.000000    ( 0.0000,  0.0000,  0.0000)
  50 Na    14.955308    0.000000   12.991062    ( 0.0000,  0.0000,  0.0000)
  51 Na    17.946370    2.115000   12.991062    ( 0.0000,  0.0000,  0.0000)
  52 Na    11.964743    0.000365   15.971472    ( 0.0000,  0.0000,  0.0000)
  53 Na    14.949870    2.112558   15.963756    ( 0.0000,  0.0000,  0.0000)
  54 Na    14.969886    0.014846   18.999453    ( 0.0000,  0.0000,  0.0000)
  55 Na    11.964172    2.113363   18.978485    ( 0.0000,  0.0000,  0.0000)
  56 Na    11.964247    4.230000   10.000000    ( 0.0000,  0.0000,  0.0000)
  57 Na    14.955308    6.345000   10.000000    ( 0.0000,  0.0000,  0.0000)
  58 Na    14.955308    4.230000   12.991062    ( 0.0000,  0.0000,  0.0000)
  59 Na    17.946370    6.345000   12.991062    ( 0.0000,  0.0000,  0.0000)
  60 Na    11.964377    4.232572   15.967314    ( 0.0000,  0.0000,  0.0000)
  61 Na    14.952887    6.343305   15.966182    ( 0.0000,  0.0000,  0.0000)
  62 Na    14.971834    4.214385   18.999382    ( 0.0000,  0.0000,  0.0000)
  63 Na    11.966011    6.343880   18.976891    ( 0.0000,  0.0000,  0.0000)
  64 Na    11.964247    8.460000   10.000000    ( 0.0000,  0.0000,  0.0000)
  65 Na    14.955308   10.575000   10.000000    ( 0.0000,  0.0000,  0.0000)
  66 Na    14.955308    8.460000   12.991062    ( 0.0000,  0.0000,  0.0000)
  67 Na    17.946370   10.575000   12.991062    ( 0.0000,  0.0000,  0.0000)
  68 Na    11.964513    8.457062   15.964519    ( 0.0000,  0.0000,  0.0000)
  69 Na    14.953166   10.579196   15.973607    ( 0.0000,  0.0000,  0.0000)
  70 Na    14.956690    8.461109   18.979553    ( 0.0000,  0.0000,  0.0000)
  71 Na    11.964826   10.577776   18.978319    ( 0.0000,  0.0000,  0.0000)
  72 Na     1.994775    0.704958   21.579735    ( 0.0000,  0.0000,  0.0000)

Unit cell:
           periodic     x           y           z      points  spacing
  1. axis:    yes   17.946370    0.000000    0.000000    88     0.2039
  2. axis:    yes    0.000000   12.690000    0.000000    64     0.1983
  3. axis:    no     0.000000    0.000000   28.973185   144     0.2012

  Lengths:  17.946370  12.690000  28.973185
  Angles:   90.000000  90.000000  90.000000

Effective grid spacing dv^(1/3) = 0.2011

     iter     time        total  log10-change:
                         energy   eigst   dens
iter:   1 12:50:39   -87.786171        c
iter:   2 12:51:28   -87.785631        c -3.56
iter:   3 12:52:21   -87.785564c       c -4.12c

Converged after 3 iterations.

Dipole moment: (-23.477401, -17.318310, 0.313730) |e|*Ang

Energy contributions relative to reference atoms: (reference = -322558.566329)

Kinetic:       +143.613439
Potential:     -130.760514
External:        +0.000000
XC:             -99.572585
Entropy (-ST):   -2.606728
Local:           +0.237460
SIC:             +0.000000
--------------------------
Free energy:    -89.088928
Extrapolated:   -87.785564

 Band  Eigenvalues  Occupancy
    0    -28.49848    2.00000
    1    -28.48352    2.00000
    2    -28.47661    2.00000
    3    -27.94396    2.00000
    4    -27.94006    2.00000
    5    -27.93689    2.00000
    6    -27.93550    2.00000
    7    -27.93477    2.00000
    8    -27.93244    2.00000
    9    -27.93242    2.00000
   10    -27.92975    2.00000
   11    -27.92918    2.00000
   12    -27.92733    2.00000
   13    -27.92562    2.00000
   14    -27.92382    2.00000
   15    -27.92235    2.00000
   16    -27.92203    2.00000
   17    -27.92181    2.00000
   18    -27.92130    2.00000
   19    -27.91979    2.00000
   20    -27.91868    2.00000
   21    -27.91858    2.00000
   22    -27.91647    2.00000
   23    -27.91637    2.00000
   24    -27.91590    2.00000
   25    -27.91582    2.00000
   26    -27.91539    2.00000
   27    -27.91466    2.00000
   28    -27.91458    2.00000
   29    -27.91412    2.00000
   30    -27.91378    2.00000
   31    -27.91287    2.00000
   32    -27.91255    2.00000
   33    -27.91240    2.00000
   34    -27.91182    2.00000
   35    -27.91174    2.00000
   36    -27.91165    2.00000
   37    -27.91082    2.00000
   38    -27.91065    2.00000
   39    -27.91022    2.00000
   40    -27.90998    2.00000
   41    -27.90959    2.00000
   42    -27.90955    2.00000
   43    -27.90944    2.00000
   44    -27.90927    2.00000
   45    -27.90917    2.00000
   46    -27.90853    2.00000
   47    -27.90795    2.00000
   48    -27.90791    2.00000
   49    -27.90763    2.00000
   50    -27.90754    2.00000
   51    -27.90692    2.00000
   52    -27.90651    2.00000
   53    -27.90624    2.00000
   54    -27.90613    2.00000
   55    -27.90542    2.00000
   56    -27.90449    2.00000
   57    -27.90448    2.00000
   58    -27.90328    2.00000
   59    -27.90299    2.00000
   60    -27.90266    2.00000
   61    -27.90231    2.00000
   62    -27.90141    2.00000
   63    -27.90111    2.00000
   64    -27.90067    2.00000
   65    -27.90005    2.00000
   66    -27.89999    2.00000
   67    -27.89887    2.00000
   68    -27.89829    2.00000
   69    -27.89784    2.00000
   70    -27.89720    2.00000
   71    -27.89623    2.00000
   72    -27.89601    2.00000
   73    -27.89594    2.00000
   74    -27.89487    2.00000
   75    -27.89414    2.00000
   76    -27.89381    2.00000
   77    -27.89289    2.00000
   78    -27.89266    2.00000
   79    -27.89261    2.00000
   80    -27.89219    2.00000
   81    -27.89196    2.00000
   82    -27.89110    2.00000
   83    -27.89107    2.00000
   84    -27.89039    2.00000
   85    -27.89028    2.00000
   86    -27.88964    2.00000
   87    -27.88912    2.00000
   88    -27.88867    2.00000
   89    -27.88802    2.00000
   90    -27.88659    2.00000
   91    -27.88641    2.00000
   92    -27.88611    2.00000
   93    -27.88558    2.00000
   94    -27.88555    2.00000
   95    -27.88396    2.00000
   96    -27.88361    2.00000
   97    -27.88082    2.00000
   98    -27.88028    2.00000
   99    -27.87702    2.00000
  100    -27.87588    2.00000
  101    -27.87349    2.00000
  102    -27.86790    2.00000
  103    -27.86469    2.00000
  104    -27.86196    2.00000
  105    -27.79089    2.00000
  106    -27.78179    2.00000
  107    -27.77860    2.00000
  108    -27.73707    2.00000
  109    -27.73587    2.00000
  110    -27.73495    2.00000
  111    -27.73327    2.00000
  112    -27.73156    2.00000
  113    -27.73059    2.00000
  114    -27.72967    2.00000
  115    -27.72786    2.00000
  116    -27.72649    2.00000
  117    -27.72447    2.00000
  118    -27.72411    2.00000
  119    -27.72313    2.00000
  120    -27.72283    2.00000
  121    -27.72229    2.00000
  122    -27.72189    2.00000
  123    -27.72169    2.00000
  124    -27.72157    2.00000
  125    -27.72142    2.00000
  126    -27.72098    2.00000
  127    -27.72064    2.00000
  128    -27.71980    2.00000
  129    -27.71954    2.00000
  130    -27.71942    2.00000
  131    -27.71830    2.00000
  132    -27.71775    2.00000
  133    -27.71735    2.00000
  134    -27.71683    2.00000
  135    -27.71648    2.00000
  136    -27.71605    2.00000
  137    -27.71549    2.00000
  138    -27.71522    2.00000
  139    -27.71504    2.00000
  140    -27.71469    2.00000
  141    -27.71432    2.00000
  142    -27.71404    2.00000
  143    -27.71356    2.00000
  144    -27.71330    2.00000
  145    -27.71278    2.00000
  146    -27.71269    2.00000
  147    -27.71203    2.00000
  148    -27.71197    2.00000
  149    -27.71166    2.00000
  150    -27.71116    2.00000
  151    -27.71086    2.00000
  152    -27.71036    2.00000
  153    -27.70977    2.00000
  154    -27.70965    2.00000
  155    -27.70905    2.00000
  156    -27.70860    2.00000
  157    -27.70797    2.00000
  158    -27.70787    2.00000
  159    -27.70760    2.00000
  160    -27.70723    2.00000
  161    -27.70685    2.00000
  162    -27.70633    2.00000
  163    -27.70615    2.00000
  164    -27.70581    2.00000
  165    -27.70530    2.00000
  166    -27.70520    2.00000
  167    -27.70486    2.00000
  168    -27.70431    2.00000
  169    -27.70421    2.00000
  170    -27.70397    2.00000
  171    -27.70360    2.00000
  172    -27.70340    2.00000
  173    -27.70293    2.00000
  174    -27.70242    2.00000
  175    -27.70213    2.00000
  176    -27.70193    2.00000
  177    -27.70149    2.00000
  178    -27.70101    2.00000
  179    -27.70050    2.00000
  180    -27.70026    2.00000
  181    -27.69929    2.00000
  182    -27.69900    2.00000
  183    -27.69841    2.00000
  184    -27.69819    2.00000
  185    -27.69786    2.00000
  186    -27.69755    2.00000
  187    -27.69741    2.00000
  188    -27.69701    2.00000
  189    -27.69692    2.00000
  190    -27.69658    2.00000
  191    -27.69644    2.00000
  192    -27.69633    2.00000
  193    -27.69609    2.00000
  194    -27.69564    2.00000
  195    -27.69525    2.00000
  196    -27.69496    2.00000
  197    -27.69449    2.00000
  198    -27.69423    2.00000
  199    -27.69385    2.00000
  200    -27.69335    2.00000
  201    -27.69309    2.00000
  202    -27.69288    2.00000
  203    -27.69209    2.00000
  204    -27.69180    2.00000
  205    -27.69157    2.00000
  206    -27.69103    2.00000
  207    -27.69052    2.00000
  208    -27.69011    2.00000
  209    -27.69002    2.00000
  210    -27.68982    2.00000
  211    -27.68942    2.00000
  212    -27.68790    2.00000
  213    -27.68734    2.00000
  214    -27.68723    2.00000
  215    -27.68605    2.00000
  216    -27.68525    2.00000
  217    -27.68402    2.00000
  218    -27.68089    2.00000
  219     -5.89333    2.00000
  220     -5.41168    2.00000
  221     -5.39977    2.00000
  222     -5.33485    2.00000
  223     -4.93226    2.00000
  224     -4.92688    2.00000
  225     -4.87217    2.00000
  226     -4.85232    2.00000
  227     -4.47411    1.99997
  228     -4.46203    1.99997
  229     -4.45306    1.99997
  230     -4.44936    1.99996
  231     -4.43597    1.99996
  232     -4.38655    1.99995
  233     -4.38137    1.99994
  234     -4.01451    1.99935
  235     -3.98643    1.99922
  236     -3.98186    1.99920
  237     -3.94092    1.99895
  238     -3.91586    1.99876
  239     -3.91249    1.99873
  240     -3.90720    1.99868
  241     -3.90003    1.99862
  242     -3.54344    1.98520
  243     -3.48417    1.97810
  244     -3.44898    1.97239
  245     -3.44626    1.97189
  246     -3.28566    1.92014
  247     -3.07612    1.71214
  248     -3.06759    1.69784
  249     -3.06686    1.69658
  250     -3.06564    1.69449
  251     -3.05477    1.67525
  252     -3.02625    1.62017
  253     -3.01113    1.58818
  254     -3.00272    1.56955
  255     -2.83978    1.10336
  256     -2.73995    0.77488
  257     -2.57761    0.35296
  258     -2.55709    0.31494
  259     -2.52774    0.26643
  260     -2.52708    0.26541
  261     -2.52549    0.26299
  262     -2.52070    0.25578
  263     -2.41483    0.13502
  264     -2.32052    0.07434
  265     -2.19960    0.03390
  266     -2.14370    0.02348
  267     -2.14102    0.02307
  268     -1.96239    0.00707
  269     -1.92321    0.00545
  270     -1.89733    0.00459
  271     -1.87372    0.00392
  272     -1.83874    0.00311
  273     -1.75999    0.00184
  274     -1.73538    0.00156
  275     -1.72226    0.00143
  276     -1.71435    0.00136
  277     -1.71247    0.00134
  278     -1.70886    0.00131
  279     -1.70648    0.00129
  280     -1.70273    0.00126
  281     -1.70084    0.00124
  282     -1.67520    0.00104
  283     -1.62926    0.00077
  284     -1.62753    0.00076
  285     -1.44300    0.00022
  286     -1.41391    0.00018
  287     -1.39539    0.00016
  288     -1.34610    0.00012
  289     -1.33085    0.00011
  290     -1.27861    0.00007
  291     -1.10503    0.00002
  292     -1.04190    0.00002
  293     -1.04105    0.00002
  294     -1.02938    0.00001
  295     -1.01814    0.00001
  296     -1.00468    0.00001
  297     -1.00184    0.00001
  298     -0.88322    0.00001
  299     -0.84804    0.00000
  300     -0.83601    0.00000
  301     -0.81645    0.00000
  302     -0.79502    0.00000
  303     -0.76167    0.00000
  304     -0.76018    0.00000
  305     -0.59613    0.00000
  306     -0.59025    0.00000
  307     -0.55339    0.00000
  308     -0.52165    0.00000
  309     -0.51777    0.00000
  310     -0.50532    0.00000

Fermi level: -2.80867

Gap: 0.100 eV
Transition (v -> c):
  (s=0, k=0, n=255, [0.00, 0.00, 0.00]) -> (s=0, k=0, n=256, [0.00, 0.00, 0.00])
No difference between direct/indirect transitions

Forces in eV/Ang:
  0 Na   -0.00018    0.00047   -0.00546
  1 Na    0.00049   -0.00264   -0.00487
  2 Na    0.00242   -0.00261   -0.01127
  3 Na    0.00512    0.00236   -0.00463
  4 Na    0.01834    0.00562    0.00552
  5 Na   -0.00760   -0.01369    0.01220
  6 Na    0.06751   -0.05020   -0.08966
  7 Na   -0.02533    0.01596    0.04003
  8 Na   -0.00386   -0.00629    0.00030
  9 Na    0.00639   -0.00490    0.00713
 10 Na    0.00133    0.02390   -0.03538
 11 Na    0.00332   -0.00166    0.01321
 12 Na   -0.01131   -0.00888    0.01357
 13 Na    0.00584   -0.00355    0.01575
 14 Na   -0.00333   -0.02089    0.02140
 15 Na    0.00922    0.00390   -0.00476
 16 Na   -0.00758    0.00596    0.00343
 17 Na    0.00142    0.00727   -0.00064
 18 Na    0.00045   -0.02138   -0.02748
 19 Na    0.00485   -0.00089   -0.00215
 20 Na   -0.01201    0.00291    0.01568
 21 Na    0.00515    0.01870    0.01755
 22 Na   -0.00718    0.00132   -0.00287
 23 Na    0.00734    0.01685    0.02347
 24 Na   -0.00139    0.00013   -0.00531
 25 Na    0.00182    0.00233   -0.00549
 26 Na   -0.00247   -0.00037    0.00458
 27 Na    0.00173    0.00008    0.00272
 28 Na   -0.01979   -0.00130    0.01221
 29 Na    0.00212    0.00083    0.00358
 30 Na   -0.00365   -0.00034   -0.00499
 31 Na   -0.00832   -0.00299    0.01449
 32 Na    0.00388   -0.00088   -0.00389
 33 Na    0.00847    0.00196   -0.01316
 34 Na    0.00129    0.00190    0.00647
 35 Na   -0.00148    0.00036    0.00650
 36 Na    0.01078    0.00136    0.01314
 37 Na   -0.00079    0.00074    0.00089
 38 Na   -0.00870   -0.00455   -0.00203
 39 Na   -0.00820   -0.00066   -0.00139
 40 Na    0.00781    0.00086   -0.00135
 41 Na    0.00394   -0.00428   -0.00764
 42 Na    0.00337   -0.00147    0.00773
 43 Na    0.00001   -0.00053    0.00349
 44 Na    0.01119   -0.00042    0.01530
 45 Na    0.00244   -0.00142    0.00145
 46 Na   -0.01003    0.00457   -0.00228
 47 Na    0.00475    0.00345   -0.00090
 48 Na   -0.00026   -0.00197   -0.00368
 49 Na   -0.00023   -0.00003   -0.00525
 50 Na   -0.00276   -0.00156    0.00054
 51 Na   -0.00412    0.00309   -0.01059
 52 Na   -0.00120    0.00004    0.00333
 53 Na    0.00852    0.00161    0.00980
 54 Na    0.00133   -0.00203    0.00070
 55 Na    0.00174    0.00096   -0.00379
 56 Na   -0.00367    0.00729   -0.01119
 57 Na   -0.00962    0.00034   -0.00405
 58 Na   -0.00402    0.00158    0.00430
 59 Na   -0.00075    0.00715   -0.00197
 60 Na   -0.00119    0.00022    0.00114
 61 Na   -0.00562    0.00080    0.00766
 62 Na   -0.00514    0.00023   -0.01020
 63 Na    0.00608   -0.00284   -0.00189
 64 Na   -0.00497   -0.00536   -0.01632
 65 Na   -0.00250   -0.00034   -0.00566
 66 Na   -0.00471    0.00064    0.01050
 67 Na   -0.00334   -0.01070   -0.01831
 68 Na    0.00034   -0.00017    0.00039
 69 Na   -0.00558   -0.00152    0.00779
 70 Na    0.00761    0.00321   -0.00280
 71 Na    0.00455    0.00241   -0.00150
 72 Na   -0.02925    0.03040    0.00947

System changes: positions 

Initializing position-dependent things.

Density initialized from wave functions
         .-------------------------------------------.  
        /|                                           |  
       / |                                           |  
      /  |                                           |  
     /   |                                           |  
    /    |                                           |  
   /     |                                           |  
  /      |                                           |  
 *       |                                           |  
 |       |                                           |  
 |       |                                           |  
 |       |                                           |  
 |       |                                           |  
 |       |                                           |  
 |      Na            Na             Na              |  
 |       |    Na            Na             Na        |  
 |       |          Na            Na             Na  Na 
 |    Na |                    Na            Na       |  
 |       | Na  Na         Na            Na           |  
 |Na     |       Na  Na         Na  Na            Na |  
 |       |  Na         Na  Na         Na  Na         |  
 |      Na        Na  Na         Na  Na              |  
 |       |                                      Na   |  
 |       |Na  Na        Na  Na         Na  Na        |  
 |   Na  |      Na  Na        Na  Na                 |  
 |       | Na  Na         Na  Na        Na  Na       |  
 |    Na |           Na             Na               |  
 |Na     |       Na             Na                   |  
 |      Na  Na         Na  Na         Na  Na         |  
 |  Na   |        Na             Na                  |  
 |       |Na            Na             Na            |  
 |       |                                           |  
 Na      |      Na            Na                     |  
 |       |                                           |  
 |       |                                           |  
 |       |                                           |  
 |       .-------------------------------------------.  
 |      /                                           /   
 |     /                                           /    
 |    /                                           /     
 |   /                                           /      
 |  /                                           /       
 | /                                           /        
 |/                                           /         
 *-------------------------------------------*          

Atomic positions and initial magnetic moments

Positions:
   0 Na     0.000000    0.000000   10.000000    ( 0.0000,  0.0000,  0.0000)
   1 Na     2.991062    2.115000   10.000000    ( 0.0000,  0.0000,  0.0000)
   2 Na     2.991062    0.000000   12.991062    ( 0.0000,  0.0000,  0.0000)
   3 Na     5.982123    2.115000   12.991062    ( 0.0000,  0.0000,  0.0000)
   4 Na    -0.013114   -0.040284   15.896850    ( 0.0000,  0.0000,  0.0000)
   5 Na     2.996632    2.204944   15.843276    ( 0.0000,  0.0000,  0.0000)
   6 Na     2.978364    0.013334   18.609547    ( 0.0000,  0.0000,  0.0000)
   7 Na     0.032963    2.082471   18.832884    ( 0.0000,  0.0000,  0.0000)
   8 Na     0.000000    4.230000   10.000000    ( 0.0000,  0.0000,  0.0000)
   9 Na     2.991062    6.345000   10.000000    ( 0.0000,  0.0000,  0.0000)
  10 Na     2.991062    4.230000   12.991062    ( 0.0000,  0.0000,  0.0000)
  11 Na     5.982123    6.345000   12.991062    ( 0.0000,  0.0000,  0.0000)
  12 Na    -0.004583    4.267723   15.919717    ( 0.0000,  0.0000,  0.0000)
  13 Na     2.993986    6.343174   15.974560    ( 0.0000,  0.0000,  0.0000)
  14 Na     2.975728    4.184316   19.036621    ( 0.0000,  0.0000,  0.0000)
  15 Na    -0.000056    6.329939   18.997671    ( 0.0000,  0.0000,  0.0000)
  16 Na     0.000000    8.460000   10.000000    ( 0.0000,  0.0000,  0.0000)
  17 Na     2.991062   10.575000   10.000000    ( 0.0000,  0.0000,  0.0000)
  18 Na     2.991062    8.460000   12.991062    ( 0.0000,  0.0000,  0.0000)
  19 Na     5.982123   10.575000   12.991062    ( 0.0000,  0.0000,  0.0000)
  20 Na    -0.004618    8.462131   15.974069    ( 0.0000,  0.0000,  0.0000)
  21 Na     2.993581   10.486975   15.853291    ( 0.0000,  0.0000,  0.0000)
  22 Na     2.990865    8.490574   19.016030    ( 0.0000,  0.0000,  0.0000)
  23 Na     0.033961   10.623193   19.042943    ( 0.0000,  0.0000,  0.0000)
  24 Na     5.982123    0.000000   10.000000    ( 0.0000,  0.0000,  0.0000)
  25 Na     8.973185    2.115000   10.000000    ( 0.0000,  0.0000,  0.0000)
  26 Na     8.973185    0.000000   12.991062    ( 0.0000,  0.0000,  0.0000)
  27 Na    11.964247    2.115000   12.991062    ( 0.0000,  0.0000,  0.0000)
  28 Na     5.994460    0.000334   15.950642    ( 0.0000,  0.0000,  0.0000)
  29 Na     8.973047    2.112333   15.972317    ( 0.0000,  0.0000,  0.0000)
  30 Na     8.973149    0.000227   18.977123    ( 0.0000,  0.0000,  0.0000)
  31 Na     5.948579    2.081889   19.025957    ( 0.0000,  0.0000,  0.0000)
  32 Na     5.982123    4.230000   10.000000    ( 0.0000,  0.0000,  0.0000)
  33 Na     8.973185    6.345000   10.000000    ( 0.0000,  0.0000,  0.0000)
  34 Na     8.973185    4.230000   12.991062    ( 0.0000,  0.0000,  0.0000)
  35 Na    11.964247    6.345000   12.991062    ( 0.0000,  0.0000,  0.0000)
  36 Na     5.986518    4.227538   15.973593    ( 0.0000,  0.0000,  0.0000)
  37 Na     8.972807    6.345616   15.962802    ( 0.0000,  0.0000,  0.0000)
  38 Na     8.971836    4.228413   18.978076    ( 0.0000,  0.0000,  0.0000)
  39 Na     5.980568    6.343875   18.981237    ( 0.0000,  0.0000,  0.0000)
  40 Na     5.982123    8.460000   10.000000    ( 0.0000,  0.0000,  0.0000)
  41 Na     8.973185   10.575000   10.000000    ( 0.0000,  0.0000,  0.0000)
  42 Na     8.973185    8.460000   12.991062    ( 0.0000,  0.0000,  0.0000)
  43 Na    11.964247   10.575000   12.991062    ( 0.0000,  0.0000,  0.0000)
  44 Na     5.986425    8.462116   15.970843    ( 0.0000,  0.0000,  0.0000)
  45 Na     8.973056   10.577061   15.969734    ( 0.0000,  0.0000,  0.0000)
  46 Na     8.971806    8.461346   18.977769    ( 0.0000,  0.0000,  0.0000)
  47 Na     5.948339   10.609245   19.025325    ( 0.0000,  0.0000,  0.0000)
  48 Na    11.964247    0.000000   10.000000    ( 0.0000,  0.0000,  0.0000)
  49 Na    14.955308    2.115000   10.000000    ( 0.0000,  0.0000,  0.0000)
  50 Na    14.955308    0.000000   12.991062    ( 0.0000,  0.0000,  0.0000)
  51 Na    17.946370    2.115000   12.991062    ( 0.0000,  0.0000,  0.0000)
  52 Na    11.964713    0.000368   15.971500    ( 0.0000,  0.0000,  0.0000)
  53 Na    14.950051    2.112584   15.963937    ( 0.0000,  0.0000,  0.0000)
  54 Na    14.969924    0.014802   18.999466    ( 0.0000,  0.0000,  0.0000)
  55 Na    11.964210    2.113381   18.978422    ( 0.0000,  0.0000,  0.0000)
  56 Na    11.964247    4.230000   10.000000    ( 0.0000,  0.0000,  0.0000)
  57 Na    14.955308    6.345000   10.000000    ( 0.0000,  0.0000,  0.0000)
  58 Na    14.955308    4.230000   12.991062    ( 0.0000,  0.0000,  0.0000)
  59 Na    17.946370    6.345000   12.991062    ( 0.0000,  0.0000,  0.0000)
  60 Na    11.964348    4.232574   15.967302    ( 0.0000,  0.0000,  0.0000)
  61 Na    14.952772    6.343322   15.966298    ( 0.0000,  0.0000,  0.0000)
  62 Na    14.971740    4.214385   18.999187    ( 0.0000,  0.0000,  0.0000)
  63 Na    11.966130    6.343824   18.976866    ( 0.0000,  0.0000,  0.0000)
  64 Na    11.964247    8.460000   10.000000    ( 0.0000,  0.0000,  0.0000)
  65 Na    14.955308   10.575000   10.000000    ( 0.0000,  0.0000,  0.0000)
  66 Na    14.955308    8.460000   12.991062    ( 0.0000,  0.0000,  0.0000)
  67 Na    17.946370   10.575000   12.991062    ( 0.0000,  0.0000,  0.0000)
  68 Na    11.964517    8.457061   15.964495    ( 0.0000,  0.0000,  0.0000)
  69 Na    14.953059   10.579170   15.973741    ( 0.0000,  0.0000,  0.0000)
  70 Na    14.956851    8.461181   18.979516    ( 0.0000,  0.0000,  0.0000)
  71 Na    11.964919   10.577825   18.978302    ( 0.0000,  0.0000,  0.0000)
  72 Na     1.994461    0.705376   21.579974    ( 0.0000,  0.0000,  0.0000)

Unit cell:
           periodic     x           y           z      points  spacing
  1. axis:    yes   17.946370    0.000000    0.000000    88     0.2039
  2. axis:    yes    0.000000   12.690000    0.000000    64     0.1983
  3. axis:    no     0.000000    0.000000   28.973185   144     0.2012

  Lengths:  17.946370  12.690000  28.973185
  Angles:   90.000000  90.000000  90.000000

Effective grid spacing dv^(1/3) = 0.2011

     iter     time        total  log10-change:
                         energy   eigst   dens
iter:   1 13:15:42   -87.785038        c
iter:   2 13:16:33   -87.785328        c -3.79
iter:   3 13:17:24   -87.785782c       c -4.01c

Converged after 3 iterations.

Dipole moment: (-23.474600, -17.292880, 0.313708) |e|*Ang

Energy contributions relative to reference atoms: (reference = -322558.566329)

Kinetic:       +143.908363
Potential:     -131.022463
External:        +0.000000
XC:             -99.605479
Entropy (-ST):   -2.607340
Local:           +0.237467
SIC:             +0.000000
--------------------------
Free energy:    -89.089452
Extrapolated:   -87.785782

 Band  Eigenvalues  Occupancy
    0    -28.50267    2.00000
    1    -28.48782    2.00000
    2    -28.48090    2.00000
    3    -27.94559    2.00000
    4    -27.94019    2.00000
    5    -27.93700    2.00000
    6    -27.93635    2.00000
    7    -27.93592    2.00000
    8    -27.93388    2.00000
    9    -27.93220    2.00000
   10    -27.93075    2.00000
   11    -27.92997    2.00000
   12    -27.92753    2.00000
   13    -27.92617    2.00000
   14    -27.92412    2.00000
   15    -27.92346    2.00000
   16    -27.92317    2.00000
   17    -27.92231    2.00000
   18    -27.92223    2.00000
   19    -27.92078    2.00000
   20    -27.91984    2.00000
   21    -27.91857    2.00000
   22    -27.91783    2.00000
   23    -27.91723    2.00000
   24    -27.91704    2.00000
   25    -27.91608    2.00000
   26    -27.91593    2.00000
   27    -27.91545    2.00000
   28    -27.91520    2.00000
   29    -27.91473    2.00000
   30    -27.91400    2.00000
   31    -27.91346    2.00000
   32    -27.91337    2.00000
   33    -27.91328    2.00000
   34    -27.91279    2.00000
   35    -27.91224    2.00000
   36    -27.91220    2.00000
   37    -27.91147    2.00000
   38    -27.91132    2.00000
   39    -27.91120    2.00000
   40    -27.91074    2.00000
   41    -27.91027    2.00000
   42    -27.91009    2.00000
   43    -27.90984    2.00000
   44    -27.90971    2.00000
   45    -27.90923    2.00000
   46    -27.90907    2.00000
   47    -27.90866    2.00000
   48    -27.90860    2.00000
   49    -27.90836    2.00000
   50    -27.90835    2.00000
   51    -27.90832    2.00000
   52    -27.90700    2.00000
   53    -27.90684    2.00000
   54    -27.90683    2.00000
   55    -27.90554    2.00000
   56    -27.90518    2.00000
   57    -27.90512    2.00000
   58    -27.90391    2.00000
   59    -27.90360    2.00000
   60    -27.90303    2.00000
   61    -27.90281    2.00000
   62    -27.90210    2.00000
   63    -27.90181    2.00000
   64    -27.90140    2.00000
   65    -27.90069    2.00000
   66    -27.90063    2.00000
   67    -27.89953    2.00000
   68    -27.89898    2.00000
   69    -27.89876    2.00000
   70    -27.89781    2.00000
   71    -27.89665    2.00000
   72    -27.89643    2.00000
   73    -27.89625    2.00000
   74    -27.89597    2.00000
   75    -27.89533    2.00000
   76    -27.89439    2.00000
   77    -27.89321    2.00000
   78    -27.89317    2.00000
   79    -27.89310    2.00000
   80    -27.89275    2.00000
   81    -27.89214    2.00000
   82    -27.89179    2.00000
   83    -27.89165    2.00000
   84    -27.89087    2.00000
   85    -27.89013    2.00000
   86    -27.89011    2.00000
   87    -27.88981    2.00000
   88    -27.88963    2.00000
   89    -27.88849    2.00000
   90    -27.88741    2.00000
   91    -27.88739    2.00000
   92    -27.88658    2.00000
   93    -27.88649    2.00000
   94    -27.88548    2.00000
   95    -27.88449    2.00000
   96    -27.88308    2.00000
   97    -27.88106    2.00000
   98    -27.88020    2.00000
   99    -27.87642    2.00000
  100    -27.87619    2.00000
  101    -27.87353    2.00000
  102    -27.86790    2.00000
  103    -27.86466    2.00000
  104    -27.86190    2.00000
  105    -27.79021    2.00000
  106    -27.78116    2.00000
  107    -27.77800    2.00000
  108    -27.73671    2.00000
  109    -27.73550    2.00000
  110    -27.73459    2.00000
  111    -27.73293    2.00000
  112    -27.73238    2.00000
  113    -27.73064    2.00000
  114    -27.72989    2.00000
  115    -27.72822    2.00000
  116    -27.72639    2.00000
  117    -27.72517    2.00000
  118    -27.72456    2.00000
  119    -27.72362    2.00000
  120    -27.72266    2.00000
  121    -27.72251    2.00000
  122    -27.72231    2.00000
  123    -27.72193    2.00000
  124    -27.72169    2.00000
  125    -27.72146    2.00000
  126    -27.72113    2.00000
  127    -27.72096    2.00000
  128    -27.72027    2.00000
  129    -27.71993    2.00000
  130    -27.71960    2.00000
  131    -27.71859    2.00000
  132    -27.71768    2.00000
  133    -27.71723    2.00000
  134    -27.71699    2.00000
  135    -27.71666    2.00000
  136    -27.71631    2.00000
  137    -27.71561    2.00000
  138    -27.71550    2.00000
  139    -27.71528    2.00000
  140    -27.71507    2.00000
  141    -27.71462    2.00000
  142    -27.71421    2.00000
  143    -27.71379    2.00000
  144    -27.71363    2.00000
  145    -27.71311    2.00000
  146    -27.71299    2.00000
  147    -27.71255    2.00000
  148    -27.71203    2.00000
  149    -27.71191    2.00000
  150    -27.71138    2.00000
  151    -27.71085    2.00000
  152    -27.71052    2.00000
  153    -27.71004    2.00000
  154    -27.70985    2.00000
  155    -27.70929    2.00000
  156    -27.70897    2.00000
  157    -27.70817    2.00000
  158    -27.70783    2.00000
  159    -27.70777    2.00000
  160    -27.70765    2.00000
  161    -27.70694    2.00000
  162    -27.70667    2.00000
  163    -27.70632    2.00000
  164    -27.70602    2.00000
  165    -27.70564    2.00000
  166    -27.70532    2.00000
  167    -27.70520    2.00000
  168    -27.70442    2.00000
  169    -27.70436    2.00000
  170    -27.70419    2.00000
  171    -27.70393    2.00000
  172    -27.70354    2.00000
  173    -27.70320    2.00000
  174    -27.70248    2.00000
  175    -27.70214    2.00000
  176    -27.70197    2.00000
  177    -27.70160    2.00000
  178    -27.70107    2.00000
  179    -27.70065    2.00000
  180    -27.70054    2.00000
  181    -27.69937    2.00000
  182    -27.69910    2.00000
  183    -27.69856    2.00000
  184    -27.69839    2.00000
  185    -27.69775    2.00000
  186    -27.69772    2.00000
  187    -27.69768    2.00000
  188    -27.69702    2.00000
  189    -27.69669    2.00000
  190    -27.69641    2.00000
  191    -27.69629    2.00000
  192    -27.69593    2.00000
  193    -27.69581    2.00000
  194    -27.69542    2.00000
  195    -27.69525    2.00000
  196    -27.69484    2.00000
  197    -27.69440    2.00000
  198    -27.69429    2.00000
  199    -27.69426    2.00000
  200    -27.69316    2.00000
  201    -27.69250    2.00000
  202    -27.69237    2.00000
  203    -27.69182    2.00000
  204    -27.69114    2.00000
  205    -27.69090    2.00000
  206    -27.69070    2.00000
  207    -27.69002    2.00000
  208    -27.68982    2.00000
  209    -27.68919    2.00000
  210    -27.68889    2.00000
  211    -27.68847    2.00000
  212    -27.68719    2.00000
  213    -27.68640    2.00000
  214    -27.68583    2.00000
  215    -27.68449    2.00000
  216    -27.68370    2.00000
  217    -27.68249    2.00000
  218    -27.67916    2.00000
  219     -5.89384    2.00000
  220     -5.41212    2.00000
  221     -5.40031    2.00000
  222     -5.33565    2.00000
  223     -4.93278    2.00000
  224     -4.92739    2.00000
  225     -4.87294    2.00000
  226     -4.85312    2.00000
  227     -4.47449    1.99997
  228     -4.46252    1.99997
  229     -4.45362    1.99997
  230     -4.44988    1.99996
  231     -4.43665    1.99996
  232     -4.38727    1.99995
  233     -4.38215    1.99994
  234     -4.01492    1.99935
  235     -3.98695    1.99922
  236     -3.98239    1.99920
  237     -3.94131    1.99895
  238     -3.91657    1.99876
  239     -3.91328    1.99873
  240     -3.90804    1.99868
  241     -3.90082    1.99862
  242     -3.54408    1.98521
  243     -3.48458    1.97808
  244     -3.44974    1.97243
  245     -3.44704    1.97194
  246     -3.28619    1.92015
  247     -3.07658    1.71203
  248     -3.06812    1.69784
  249     -3.06739    1.69660
  250     -3.06614    1.69444
  251     -3.05518    1.67505
  252     -3.02664    1.61990
  253     -3.01154    1.58792
  254     -3.00311    1.56924
  255     -2.84024    1.10311
  256     -2.74042    0.77469
  257     -2.57823    0.35315
  258     -2.55759    0.31489
  259     -2.52845    0.26671
  260     -2.52783    0.26575
  261     -2.52625    0.26333
  262     -2.52151    0.25619
  263     -2.41542    0.13507
  264     -2.32106    0.07435
  265     -2.20009    0.03389
  266     -2.14419    0.02347
  267     -2.14153    0.02306
  268     -1.96277    0.00706
  269     -1.92369    0.00545
  270     -1.89784    0.00459
  271     -1.87421    0.00392
  272     -1.83921    0.00310
  273     -1.76053    0.00184
  274     -1.73589    0.00156
  275     -1.72272    0.00143
  276     -1.71478    0.00136
  277     -1.71296    0.00134
  278     -1.70929    0.00131
  279     -1.70692    0.00129
  280     -1.70337    0.00126
  281     -1.70142    0.00124
  282     -1.67563    0.00104
  283     -1.63004    0.00077
  284     -1.62830    0.00076
  285     -1.44370    0.00022
  286     -1.41463    0.00018
  287     -1.39605    0.00016
  288     -1.34656    0.00012
  289     -1.33134    0.00011
  290     -1.27922    0.00007
  291     -1.10551    0.00002
  292     -1.04241    0.00002
  293     -1.04154    0.00002
  294     -1.03008    0.00001
  295     -1.01884    0.00001
  296     -1.00541    0.00001
  297     -1.00249    0.00001
  298     -0.88378    0.00001
  299     -0.84857    0.00000
  300     -0.83668    0.00000
  301     -0.81690    0.00000
  302     -0.79562    0.00000
  303     -0.76208    0.00000
  304     -0.76062    0.00000
  305     -0.59668    0.00000
  306     -0.59076    0.00000
  307     -0.55399    0.00000
  308     -0.52246    0.00000
  309     -0.51841    0.00000
  310     -0.50579    0.00000

Fermi level: -2.80919

Gap: 0.100 eV
Transition (v -> c):
  (s=0, k=0, n=255, [0.00, 0.00, 0.00]) -> (s=0, k=0, n=256, [0.00, 0.00, 0.00])
No difference between direct/indirect transitions

Forces in eV/Ang:
  0 Na   -0.00027    0.00077   -0.00641
  1 Na    0.00060   -0.00323   -0.00585
  2 Na    0.00254   -0.00255   -0.01010
  3 Na    0.00592    0.00265   -0.00388
  4 Na    0.01945    0.00640    0.00686
  5 Na   -0.00840   -0.01455    0.01331
  6 Na    0.06665   -0.04951   -0.09107
  7 Na   -0.02571    0.01588    0.03752
  8 Na   -0.00424   -0.00689   -0.00011
  9 Na    0.00668   -0.00506    0.00715
 10 Na    0.00172    0.02450   -0.03449
 11 Na    0.00381   -0.00138    0.01418
 12 Na   -0.01039   -0.01082    0.01323
 13 Na    0.00562   -0.00462    0.01426
 14 Na   -0.00302   -0.02103    0.02130
 15 Na    0.00945    0.00316   -0.00223
 16 Na   -0.00804    0.00625    0.00337
 17 Na    0.00165    0.00804   -0.00135
 18 Na    0.00090   -0.02202   -0.02680
 19 Na    0.00564   -0.00145   -0.00153
 20 Na   -0.01164    0.00436    0.01420
 21 Na    0.00436    0.02010    0.01739
 22 Na   -0.00709    0.00202   -0.00104
 23 Na    0.00671    0.01691    0.02296
 24 Na   -0.00146    0.00021   -0.00612
 25 Na    0.00135    0.00266   -0.00622
 26 Na   -0.00184   -0.00030    0.00645
 27 Na    0.00142   -0.00011    0.00487
 28 Na   -0.02084   -0.00067    0.01178
 29 Na    0.00255    0.00059    0.00066
 30 Na   -0.00442   -0.00018   -0.00275
 31 Na   -0.00863   -0.00288    0.01507
 32 Na    0.00438   -0.00110   -0.00436
 33 Na    0.00873    0.00215   -0.01407
 34 Na    0.00137    0.00192    0.00799
 35 Na   -0.00125    0.00036    0.00789
 36 Na    0.01009    0.00027    0.01163
 37 Na   -0.00017    0.00062   -0.00211
 38 Na   -0.00905   -0.00475    0.00038
 39 Na   -0.00889   -0.00140    0.00165
 40 Na    0.00859    0.00101   -0.00160
 41 Na    0.00372   -0.00480   -0.00847
 42 Na    0.00318   -0.00156    0.00903
 43 Na   -0.00011   -0.00033    0.00536
 44 Na    0.01117    0.00010    0.01267
 45 Na    0.00308   -0.00106   -0.00151
 46 Na   -0.00972    0.00462    0.00032
 47 Na    0.00420    0.00380    0.00067
 48 Na    0.00006   -0.00222   -0.00438
 49 Na   -0.00004   -0.00004   -0.00591
 50 Na   -0.00354   -0.00165    0.00149
 51 Na   -0.00457    0.00320   -0.00957
 52 Na   -0.00167    0.00014   -0.00001
 53 Na    0.00937    0.00088    0.00851
 54 Na    0.00253   -0.00198    0.00198
 55 Na    0.00199    0.00080   -0.00152
 56 Na   -0.00361    0.00794   -0.01212
 57 Na   -0.01039    0.00032   -0.00434
 58 Na   -0.00450    0.00210    0.00517
 59 Na   -0.00151    0.00747   -0.00119
 60 Na   -0.00173   -0.00006   -0.00198
 61 Na   -0.00602    0.00068    0.00439
 62 Na   -0.00394   -0.00061   -0.00781
 63 Na    0.00554   -0.00268    0.00054
 64 Na   -0.00508   -0.00575   -0.01738
 65 Na   -0.00268   -0.00031   -0.00625
 66 Na   -0.00494    0.00021    0.01155
 67 Na   -0.00401   -0.01115   -0.01743
 68 Na   -0.00008    0.00001   -0.00255
 69 Na   -0.00506   -0.00071    0.00600
 70 Na    0.00833    0.00414    0.00008
 71 Na    0.00465    0.00242    0.00079
 72 Na   -0.02858    0.03009    0.00974

System changes: positions 

Initializing position-dependent things.

Density initialized from wave functions
         .-------------------------------------------.  
        /|                                           |  
       / |                                           |  
      /  |                                           |  
     /   |                                           |  
    /    |                                           |  
   /     |                                           |  
  /      |                                           |  
 *       |                                           |  
 |       |                                           |  
 |       |                                           |  
 |       |                                           |  
 |       |                                           |  
 |       |                                           |  
 |      Na            Na             Na              |  
 |       |    Na            Na             Na        |  
 |   Na  |          Na            Na                 Na 
 |    Na |                    Na            Na       |  
 |       | Na  Na         Na            Na           |  
 |Na     |       Na  Na         Na  Na            Na |  
 |       |  Na         Na  Na         Na  Na         |  
 |      Na        Na  Na         Na  Na              |  
 |       |                                      Na   |  
 |       |Na  Na        Na  Na         Na  Na        |  
 |   Na  |      Na  Na        Na  Na                 |  
 |       | Na  Na         Na  Na        Na  Na       |  
 |    Na |           Na             Na               |  
 |Na     |       Na             Na                   |  
 |      Na  Na         Na  Na         Na  Na         |  
 |  Na   |        Na             Na                  |  
 |       |Na            Na             Na            |  
 |       |                                           |  
 Na      |      Na            Na                     |  
 |       |                                           |  
 |       |                                           |  
 |       |                                           |  
 |       .-------------------------------------------.  
 |      /                                           /   
 |     /                                           /    
 |    /                                           /     
 |   /                                           /      
 |  /                                           /       
 | /                                           /        
 |/                                           /         
 *-------------------------------------------*          

Atomic positions and initial magnetic moments

Positions:
   0 Na     0.000000    0.000000   10.000000    ( 0.0000,  0.0000,  0.0000)
   1 Na     2.991062    2.115000   10.000000    ( 0.0000,  0.0000,  0.0000)
   2 Na     2.991062    0.000000   12.991062    ( 0.0000,  0.0000,  0.0000)
   3 Na     5.982123    2.115000   12.991062    ( 0.0000,  0.0000,  0.0000)
   4 Na    -0.012537   -0.040082   15.897060    ( 0.0000,  0.0000,  0.0000)
   5 Na     2.996383    2.204526   15.843650    ( 0.0000,  0.0000,  0.0000)
   6 Na     2.980404    0.011819   18.606701    ( 0.0000,  0.0000,  0.0000)
   7 Na     0.032191    2.082951   18.834122    ( 0.0000,  0.0000,  0.0000)
   8 Na     0.000000    4.230000   10.000000    ( 0.0000,  0.0000,  0.0000)
   9 Na     2.991062    6.345000   10.000000    ( 0.0000,  0.0000,  0.0000)
  10 Na     2.991062    4.230000   12.991062    ( 0.0000,  0.0000,  0.0000)
  11 Na     5.982123    6.345000   12.991062    ( 0.0000,  0.0000,  0.0000)
  12 Na    -0.004905    4.267399   15.920138    ( 0.0000,  0.0000,  0.0000)
  13 Na     2.994157    6.343048   15.974997    ( 0.0000,  0.0000,  0.0000)
  14 Na     2.975641    4.183683   19.037255    ( 0.0000,  0.0000,  0.0000)
  15 Na     0.000227    6.330048   18.997566    ( 0.0000,  0.0000,  0.0000)
  16 Na     0.000000    8.460000   10.000000    ( 0.0000,  0.0000,  0.0000)
  17 Na     2.991062   10.575000   10.000000    ( 0.0000,  0.0000,  0.0000)
  18 Na     2.991062    8.460000   12.991062    ( 0.0000,  0.0000,  0.0000)
  19 Na     5.982123   10.575000   12.991062    ( 0.0000,  0.0000,  0.0000)
  20 Na    -0.004974    8.462247   15.974504    ( 0.0000,  0.0000,  0.0000)
  21 Na     2.993719   10.487556   15.853799    ( 0.0000,  0.0000,  0.0000)
  22 Na     2.990650    8.490636   19.015982    ( 0.0000,  0.0000,  0.0000)
  23 Na     0.034175   10.623700   19.043636    ( 0.0000,  0.0000,  0.0000)
  24 Na     5.982123    0.000000   10.000000    ( 0.0000,  0.0000,  0.0000)
  25 Na     8.973185    2.115000   10.000000    ( 0.0000,  0.0000,  0.0000)
  26 Na     8.973185    0.000000   12.991062    ( 0.0000,  0.0000,  0.0000)
  27 Na    11.964247    2.115000   12.991062    ( 0.0000,  0.0000,  0.0000)
  28 Na     5.993842    0.000307   15.950993    ( 0.0000,  0.0000,  0.0000)
  29 Na     8.973121    2.112352   15.972358    ( 0.0000,  0.0000,  0.0000)
  30 Na     8.973022    0.000220   18.977012    ( 0.0000,  0.0000,  0.0000)
  31 Na     5.948312    2.081795   19.026409    ( 0.0000,  0.0000,  0.0000)
  32 Na     5.982123    4.230000   10.000000    ( 0.0000,  0.0000,  0.0000)
  33 Na     8.973185    6.345000   10.000000    ( 0.0000,  0.0000,  0.0000)
  34 Na     8.973185    4.230000   12.991062    ( 0.0000,  0.0000,  0.0000)
  35 Na    11.964247    6.345000   12.991062    ( 0.0000,  0.0000,  0.0000)
  36 Na     5.986829    4.227558   15.973952    ( 0.0000,  0.0000,  0.0000)
  37 Na     8.972793    6.345636   15.962763    ( 0.0000,  0.0000,  0.0000)
  38 Na     8.971567    4.228271   18.978057    ( 0.0000,  0.0000,  0.0000)
  39 Na     5.980306    6.343841   18.981251    ( 0.0000,  0.0000,  0.0000)
  40 Na     5.982123    8.460000   10.000000    ( 0.0000,  0.0000,  0.0000)
  41 Na     8.973185   10.575000   10.000000    ( 0.0000,  0.0000,  0.0000)
  42 Na     8.973185    8.460000   12.991062    ( 0.0000,  0.0000,  0.0000)
  43 Na    11.964247   10.575000   12.991062    ( 0.0000,  0.0000,  0.0000)
  44 Na     5.986763    8.462113   15.971244    ( 0.0000,  0.0000,  0.0000)
  45 Na     8.973143   10.577026   15.969712    ( 0.0000,  0.0000,  0.0000)
  46 Na     8.971509    8.461486   18.977745    ( 0.0000,  0.0000,  0.0000)
  47 Na     5.948460   10.609364   19.025334    ( 0.0000,  0.0000,  0.0000)
  48 Na    11.964247    0.000000   10.000000    ( 0.0000,  0.0000,  0.0000)
  49 Na    14.955308    2.115000   10.000000    ( 0.0000,  0.0000,  0.0000)
  50 Na    14.955308    0.000000   12.991062    ( 0.0000,  0.0000,  0.0000)
  51 Na    17.946370    2.115000   12.991062    ( 0.0000,  0.0000,  0.0000)
  52 Na    11.964665    0.000371   15.971525    ( 0.0000,  0.0000,  0.0000)
  53 Na    14.950327    2.112619   15.964204    ( 0.0000,  0.0000,  0.0000)
  54 Na    14.969986    0.014736   18.999499    ( 0.0000,  0.0000,  0.0000)
  55 Na    11.964268    2.113406   18.978347    ( 0.0000,  0.0000,  0.0000)
  56 Na    11.964247    4.230000   10.000000    ( 0.0000,  0.0000,  0.0000)
  57 Na    14.955308    6.345000   10.000000    ( 0.0000,  0.0000,  0.0000)
  58 Na    14.955308    4.230000   12.991062    ( 0.0000,  0.0000,  0.0000)
  59 Na    17.946370    6.345000   12.991062    ( 0.0000,  0.0000,  0.0000)
  60 Na    11.964302    4.232575   15.967266    ( 0.0000,  0.0000,  0.0000)
  61 Na    14.952596    6.343345   15.966454    ( 0.0000,  0.0000,  0.0000)
  62 Na    14.971607    4.214379   18.998913    ( 0.0000,  0.0000,  0.0000)
  63 Na    11.966303    6.343741   18.976850    ( 0.0000,  0.0000,  0.0000)
  64 Na    11.964247    8.460000   10.000000    ( 0.0000,  0.0000,  0.0000)
  65 Na    14.955308   10.575000   10.000000    ( 0.0000,  0.0000,  0.0000)
  66 Na    14.955308    8.460000   12.991062    ( 0.0000,  0.0000,  0.0000)
  67 Na    17.946370   10.575000   12.991062    ( 0.0000,  0.0000,  0.0000)
  68 Na    11.964520    8.457059   15.964443    ( 0.0000,  0.0000,  0.0000)
  69 Na    14.952902   10.579138   15.973933    ( 0.0000,  0.0000,  0.0000)
  70 Na    14.957096    8.461297   18.979482    ( 0.0000,  0.0000,  0.0000)
  71 Na    11.965058   10.577898   18.978296    ( 0.0000,  0.0000,  0.0000)
  72 Na     1.993991    0.706004   21.580307    ( 0.0000,  0.0000,  0.0000)

Unit cell:
           periodic     x           y           z      points  spacing
  1. axis:    yes   17.946370    0.000000    0.000000    88     0.2039
  2. axis:    yes    0.000000   12.690000    0.000000    64     0.1983
  3. axis:    no     0.000000    0.000000   28.973185   144     0.2012

  Lengths:  17.946370  12.690000  28.973185
  Angles:   90.000000  90.000000  90.000000

Effective grid spacing dv^(1/3) = 0.2011

     iter     time        total  log10-change:
                         energy   eigst   dens
iter:   1 13:45:04   -87.786776        c
[...]
  60 Na    11.964096    4.232572   15.967152    ( 0.0000,  0.0000,  0.0000)
  61 Na    14.951749    6.343457   15.967289    ( 0.0000,  0.0000,  0.0000)
  62 Na    14.970949    4.214395   18.997503    ( 0.0000,  0.0000,  0.0000)
  63 Na    11.967163    6.343337   18.976701    ( 0.0000,  0.0000,  0.0000)
  64 Na    11.964247    8.460000   10.000000    ( 0.0000,  0.0000,  0.0000)
  65 Na    14.955308   10.575000   10.000000    ( 0.0000,  0.0000,  0.0000)
  66 Na    14.955308    8.460000   12.991062    ( 0.0000,  0.0000,  0.0000)
  67 Na    17.946370   10.575000   12.991062    ( 0.0000,  0.0000,  0.0000)
  68 Na    11.964548    8.457050   15.964248    ( 0.0000,  0.0000,  0.0000)
  69 Na    14.952142   10.578995   15.974913    ( 0.0000,  0.0000,  0.0000)
  70 Na    14.958351    8.461860   18.979255    ( 0.0000,  0.0000,  0.0000)
  71 Na    11.965745   10.578260   18.978207    ( 0.0000,  0.0000,  0.0000)
  72 Na     1.991660    0.709154   21.581384    ( 0.0000,  0.0000,  0.0000)

Unit cell:
           periodic     x           y           z      points  spacing
  1. axis:    yes   17.946370    0.000000    0.000000    88     0.2039
  2. axis:    yes    0.000000   12.690000    0.000000    64     0.1983
  3. axis:    no     0.000000    0.000000   28.973185   144     0.2012

  Lengths:  17.946370  12.690000  28.973185
  Angles:   90.000000  90.000000  90.000000

Effective grid spacing dv^(1/3) = 0.2011

     iter     time        total  log10-change:
                         energy   eigst   dens
iter:   1 15:07:55   -87.789506        c
iter:   2 15:08:49   -87.789445        c -3.75
iter:   3 15:09:38   -87.789453c       c -4.04c

Converged after 3 iterations.

Dipole moment: (-23.416461, -17.069513, 0.310283) |e|*Ang

Energy contributions relative to reference atoms: (reference = -322558.566329)

Kinetic:       +143.783760
Potential:     -130.919745
External:        +0.000000
XC:             -99.586608
Entropy (-ST):   -2.608208
Local:           +0.237244
SIC:             +0.000000
--------------------------
Free energy:    -89.093557
Extrapolated:   -87.789453

 Band  Eigenvalues  Occupancy
    0    -28.50063    2.00000
    1    -28.48694    2.00000
    2    -28.47996    2.00000
    3    -27.94556    2.00000
    4    -27.93966    2.00000
    5    -27.93631    2.00000
    6    -27.93621    2.00000
    7    -27.93509    2.00000
    8    -27.93383    2.00000
    9    -27.93072    2.00000
   10    -27.93045    2.00000
   11    -27.92929    2.00000
   12    -27.92645    2.00000
   13    -27.92501    2.00000
   14    -27.92372    2.00000
   15    -27.92314    2.00000
   16    -27.92310    2.00000
   17    -27.92141    2.00000
   18    -27.92107    2.00000
   19    -27.92090    2.00000
   20    -27.91929    2.00000
   21    -27.91783    2.00000
   22    -27.91718    2.00000
   23    -27.91708    2.00000
   24    -27.91629    2.00000
   25    -27.91563    2.00000
   26    -27.91535    2.00000
   27    -27.91505    2.00000
   28    -27.91440    2.00000
   29    -27.91398    2.00000
   30    -27.91396    2.00000
   31    -27.91354    2.00000
   32    -27.91335    2.00000
   33    -27.91279    2.00000
   34    -27.91264    2.00000
   35    -27.91236    2.00000
   36    -27.91214    2.00000
   37    -27.91147    2.00000
   38    -27.91128    2.00000
   39    -27.91083    2.00000
   40    -27.91073    2.00000
   41    -27.91046    2.00000
   42    -27.91041    2.00000
   43    -27.91026    2.00000
   44    -27.90977    2.00000
   45    -27.90932    2.00000
   46    -27.90916    2.00000
   47    -27.90891    2.00000
   48    -27.90887    2.00000
   49    -27.90862    2.00000
   50    -27.90778    2.00000
   51    -27.90749    2.00000
   52    -27.90714    2.00000
   53    -27.90660    2.00000
   54    -27.90628    2.00000
   55    -27.90553    2.00000
   56    -27.90531    2.00000
   57    -27.90436    2.00000
   58    -27.90430    2.00000
   59    -27.90324    2.00000
   60    -27.90294    2.00000
   61    -27.90262    2.00000
   62    -27.90195    2.00000
   63    -27.90190    2.00000
   64    -27.90108    2.00000
   65    -27.90093    2.00000
   66    -27.89996    2.00000
   67    -27.89963    2.00000
   68    -27.89841    2.00000
   69    -27.89820    2.00000
   70    -27.89802    2.00000
   71    -27.89705    2.00000
   72    -27.89670    2.00000
   73    -27.89599    2.00000
   74    -27.89569    2.00000
   75    -27.89459    2.00000
   76    -27.89456    2.00000
   77    -27.89366    2.00000
   78    -27.89351    2.00000
   79    -27.89326    2.00000
   80    -27.89259    2.00000
   81    -27.89211    2.00000
   82    -27.89181    2.00000
   83    -27.89138    2.00000
   84    -27.89130    2.00000
   85    -27.89078    2.00000
   86    -27.89023    2.00000
   87    -27.88996    2.00000
   88    -27.88922    2.00000
   89    -27.88880    2.00000
   90    -27.88819    2.00000
   91    -27.88690    2.00000
   92    -27.88648    2.00000
   93    -27.88553    2.00000
   94    -27.88538    2.00000
   95    -27.88482    2.00000
   96    -27.88301    2.00000
   97    -27.88142    2.00000
   98    -27.88016    2.00000
   99    -27.87656    2.00000
  100    -27.87638    2.00000
  101    -27.87359    2.00000
  102    -27.86790    2.00000
  103    -27.86461    2.00000
  104    -27.86186    2.00000
  105    -27.78989    2.00000
  106    -27.78103    2.00000
  107    -27.77759    2.00000
  108    -27.73781    2.00000
  109    -27.73641    2.00000
  110    -27.73445    2.00000
  111    -27.73359    2.00000
  112    -27.73229    2.00000
  113    -27.73134    2.00000
  114    -27.73041    2.00000
  115    -27.72918    2.00000
  116    -27.72709    2.00000
  117    -27.72616    2.00000
  118    -27.72523    2.00000
  119    -27.72458    2.00000
  120    -27.72326    2.00000
  121    -27.72291    2.00000
  122    -27.72228    2.00000
  123    -27.72222    2.00000
  124    -27.72159    2.00000
  125    -27.72131    2.00000
  126    -27.72084    2.00000
  127    -27.72058    2.00000
  128    -27.72020    2.00000
  129    -27.71953    2.00000
  130    -27.71905    2.00000
  131    -27.71890    2.00000
  132    -27.71784    2.00000
  133    -27.71742    2.00000
  134    -27.71725    2.00000
  135    -27.71698    2.00000
  136    -27.71673    2.00000
  137    -27.71630    2.00000
  138    -27.71603    2.00000
  139    -27.71563    2.00000
  140    -27.71540    2.00000
  141    -27.71511    2.00000
  142    -27.71447    2.00000
  143    -27.71417    2.00000
  144    -27.71382    2.00000
  145    -27.71352    2.00000
  146    -27.71325    2.00000
  147    -27.71264    2.00000
  148    -27.71211    2.00000
  149    -27.71207    2.00000
  150    -27.71162    2.00000
  151    -27.71104    2.00000
  152    -27.71075    2.00000
  153    -27.71020    2.00000
  154    -27.71007    2.00000
  155    -27.70959    2.00000
  156    -27.70930    2.00000
  157    -27.70858    2.00000
  158    -27.70820    2.00000
  159    -27.70794    2.00000
  160    -27.70785    2.00000
  161    -27.70746    2.00000
  162    -27.70695    2.00000
  163    -27.70672    2.00000
  164    -27.70636    2.00000
  165    -27.70583    2.00000
  166    -27.70568    2.00000
  167    -27.70530    2.00000
  168    -27.70469    2.00000
  169    -27.70458    2.00000
  170    -27.70444    2.00000
  171    -27.70410    2.00000
  172    -27.70372    2.00000
  173    -27.70344    2.00000
  174    -27.70274    2.00000
  175    -27.70227    2.00000
  176    -27.70194    2.00000
  177    -27.70167    2.00000
  178    -27.70099    2.00000
  179    -27.70077    2.00000
  180    -27.70060    2.00000
  181    -27.69958    2.00000
  182    -27.69926    2.00000
  183    -27.69873    2.00000
  184    -27.69846    2.00000
  185    -27.69793    2.00000
  186    -27.69783    2.00000
  187    -27.69726    2.00000
  188    -27.69693    2.00000
  189    -27.69683    2.00000
  190    -27.69661    2.00000
  191    -27.69636    2.00000
  192    -27.69598    2.00000
  193    -27.69588    2.00000
  194    -27.69521    2.00000
  195    -27.69510    2.00000
  196    -27.69472    2.00000
  197    -27.69451    2.00000
  198    -27.69405    2.00000
  199    -27.69394    2.00000
  200    -27.69350    2.00000
  201    -27.69245    2.00000
  202    -27.69222    2.00000
  203    -27.69109    2.00000
  204    -27.69049    2.00000
  205    -27.69041    2.00000
  206    -27.68976    2.00000
  207    -27.68926    2.00000
  208    -27.68903    2.00000
  209    -27.68849    2.00000
  210    -27.68819    2.00000
  211    -27.68786    2.00000
  212    -27.68618    2.00000
  213    -27.68549    2.00000
  214    -27.68536    2.00000
  215    -27.68352    2.00000
  216    -27.68269    2.00000
  217    -27.68152    2.00000
  218    -27.67818    2.00000
  219     -5.89359    2.00000
  220     -5.41189    2.00000
  221     -5.40006    2.00000
  222     -5.33574    2.00000
  223     -4.93258    2.00000
  224     -4.92712    2.00000
  225     -4.87255    2.00000
  226     -4.85352    2.00000
  227     -4.47350    1.99997
  228     -4.46210    1.99997
  229     -4.45359    1.99997
  230     -4.44968    1.99996
  231     -4.43637    1.99996
  232     -4.38729    1.99995
  233     -4.38242    1.99994
  234     -4.01379    1.99935
  235     -3.98686    1.99922
  236     -3.98190    1.99920
  237     -3.94118    1.99895
  238     -3.91642    1.99876
  239     -3.91326    1.99873
  240     -3.90851    1.99869
  241     -3.90120    1.99862
  242     -3.54298    1.98511
  243     -3.48433    1.97807
  244     -3.44997    1.97250
  245     -3.44729    1.97201
  246     -3.28611    1.92018
  247     -3.07631    1.71184
  248     -3.06798    1.69787
  249     -3.06717    1.69648
  250     -3.06576    1.69405
  251     -3.05447    1.67403
  252     -3.02621    1.61931
  253     -3.01129    1.58772
  254     -3.00316    1.56970
  255     -2.84007    1.10307
  256     -2.74060    0.77574
  257     -2.57782    0.35265
  258     -2.55718    0.31443
  259     -2.52846    0.26696
  260     -2.52772    0.26582
  261     -2.52642    0.26384
  262     -2.52195    0.25708
  263     -2.41528    0.13509
  264     -2.32117    0.07448
  265     -2.20006    0.03392
  266     -2.14393    0.02345
  267     -2.14132    0.02305
  268     -1.96240    0.00705
  269     -1.92338    0.00544
  270     -1.89764    0.00458
  271     -1.87445    0.00393
  272     -1.83950    0.00311
  273     -1.76059    0.00184
  274     -1.73511    0.00155
  275     -1.72225    0.00143
  276     -1.71449    0.00135
  277     -1.71274    0.00134
  278     -1.70904    0.00131
  279     -1.70678    0.00129
  280     -1.70352    0.00126
  281     -1.70135    0.00124
  282     -1.67573    0.00105
  283     -1.63013    0.00077
  284     -1.62855    0.00076
  285     -1.44351    0.00022
  286     -1.41447    0.00018
  287     -1.39645    0.00016
  288     -1.34632    0.00012
  289     -1.33144    0.00011
  290     -1.27967    0.00007
  291     -1.10562    0.00002
  292     -1.04227    0.00002
  293     -1.04111    0.00002
  294     -1.02978    0.00001
  295     -1.01871    0.00001
  296     -1.00594    0.00001
  297     -1.00260    0.00001
  298     -0.88355    0.00001
  299     -0.84849    0.00000
  300     -0.83676    0.00000
  301     -0.81686    0.00000
  302     -0.79561    0.00000
  303     -0.76204    0.00000
  304     -0.76068    0.00000
  305     -0.59650    0.00000
  306     -0.59047    0.00000
  307     -0.55352    0.00000
  308     -0.52305    0.00000
  309     -0.51839    0.00000
  310     -0.50598    0.00000

Fermi level: -2.80904

Gap: 0.099 eV
Transition (v -> c):
  (s=0, k=0, n=255, [0.00, 0.00, 0.00]) -> (s=0, k=0, n=256, [0.00, 0.00, 0.00])
No difference between direct/indirect transitions

Forces in eV/Ang:
  0 Na   -0.00006    0.00056   -0.00608
  1 Na    0.00048   -0.00321   -0.00565
  2 Na    0.00229   -0.00248   -0.00855
  3 Na    0.00594    0.00246   -0.00300
  4 Na    0.01752    0.00650    0.00768
  5 Na   -0.00789   -0.01120    0.01063
  6 Na    0.05358   -0.04160   -0.06919
  7 Na   -0.02046    0.01174    0.03392
  8 Na   -0.00449   -0.00643    0.00014
  9 Na    0.00676   -0.00470    0.00710
 10 Na    0.00164    0.02350   -0.03355
 11 Na    0.00487   -0.00128    0.01387
 12 Na   -0.00917   -0.01074    0.01246
 13 Na    0.00457   -0.00531    0.01439
 14 Na   -0.00318   -0.02050    0.02054
 15 Na    0.00886    0.00217   -0.00100
 16 Na   -0.00825    0.00602    0.00364
 17 Na    0.00175    0.00765   -0.00117
 18 Na    0.00104   -0.02104   -0.02626
 19 Na    0.00598   -0.00146   -0.00128
 20 Na   -0.01004    0.00569    0.01397
 21 Na    0.00342    0.01429    0.01106
 22 Na   -0.00603    0.00234   -0.00066
 23 Na    0.00703    0.01727    0.02165
 24 Na   -0.00165   -0.00027   -0.00552
 25 Na    0.00128    0.00292   -0.00494
 26 Na   -0.00175   -0.00060    0.00622
 27 Na    0.00129    0.00028    0.00437
 28 Na   -0.01763    0.00011    0.01018
 29 Na    0.00150   -0.00014    0.00054
 30 Na   -0.00398    0.00003   -0.00196
 31 Na   -0.00698   -0.00263    0.01501
 32 Na    0.00442   -0.00050   -0.00373
 33 Na    0.00864    0.00261   -0.01227
 34 Na    0.00186    0.00257    0.00749
 35 Na   -0.00161    0.00070    0.00670
 36 Na    0.00871   -0.00111    0.01130
 37 Na    0.00034    0.00050   -0.00208
 38 Na   -0.00877   -0.00438    0.00117
 39 Na   -0.00865   -0.00179    0.00293
 40 Na    0.00870    0.00089   -0.00086
 41 Na    0.00345   -0.00554   -0.00698
 42 Na    0.00382   -0.00186    0.00798
 43 Na   -0.00038   -0.00107    0.00478
 44 Na    0.00987    0.00097    0.01200
 45 Na    0.00258   -0.00027   -0.00155
 46 Na   -0.00856    0.00411    0.00116
 47 Na    0.00594    0.00194    0.00168
 48 Na   -0.00002   -0.00248   -0.00304
 49 Na    0.00024    0.00050   -0.00509
 50 Na   -0.00329   -0.00168    0.00230
 51 Na   -0.00456    0.00293   -0.00868
 52 Na   -0.00095    0.00009    0.00014
 53 Na    0.00884   -0.00065    0.00752
 54 Na    0.00173   -0.00219    0.00247
 55 Na    0.00142    0.00020   -0.00050
 56 Na   -0.00345    0.00870   -0.01036
 57 Na   -0.01034    0.00056   -0.00317
 58 Na   -0.00490    0.00231    0.00500
 59 Na   -0.00217    0.00713   -0.00087
 60 Na   -0.00167   -0.00033   -0.00225
 61 Na   -0.00567    0.00059    0.00364
 62 Na   -0.00363    0.00007   -0.00639
 63 Na    0.00403   -0.00194    0.00142
 64 Na   -0.00503   -0.00625   -0.01541
 65 Na   -0.00245   -0.00109   -0.00533
 66 Na   -0.00573    0.00013    0.01092
 67 Na   -0.00412   -0.01059   -0.01654
 68 Na   -0.00040    0.00035   -0.00265
 69 Na   -0.00402    0.00070    0.00545
 70 Na    0.00824    0.00458    0.00100
 71 Na    0.00391    0.00222    0.00157
 72 Na   -0.02378    0.02710   -0.00475

Timing:                                       incl.     excl.
--------------------------------------------------------------------
Basic WFS set positions:                      0.318     0.026   0.0% |
 Redistribute:                                0.291     0.291   0.0% |
Basis functions set positions:               16.101    16.101   0.1% |
Forces:                                     941.362     8.669   0.1% |
 LCAO forces:                               932.692     0.612   0.0% |
  Atomic Hamiltonian force:                   6.345     6.345   0.0% |
  Initial:                                    0.289     0.000   0.0% |
   Get density matrix:                        0.289     0.289   0.0% |
  Paw correction:                             7.470     7.470   0.0% |
  Potential:                                892.612   892.612   5.5% |-|
  TCI derivative:                            25.365    25.365   0.2% |
  Wait for sum:                               0.001     0.001   0.0% |
LCAO WFS Initialize:                        219.433     1.162   0.0% |
 Density initialized from wave functions:   188.566    23.192   0.1% |
  Calculate density matrix:                   2.967     2.967   0.0% |
  Construct density:                        162.402   162.402   1.0% |
  Symmetrize density:                         0.005     0.005   0.0% |
 Hamiltonian:                                29.705     0.008   0.0% |
  Atomic:                                     6.605     0.043   0.0% |
   XC Correction:                             6.563     6.563   0.0% |
  Calculate atomic Hamiltonians:              0.991     0.991   0.0% |
  Communicate:                                0.000     0.000   0.0% |
  Hartree integrate/restrict:                 1.069     1.069   0.0% |
  Initialize Hamiltonian:                     0.001     0.001   0.0% |
  Poisson:                                   11.463     6.856   0.0% |
   Communicate from 1D:                       0.672     0.672   0.0% |
   Communicate from 2D:                       0.375     0.375   0.0% |
   Communicate to 1D:                         0.265     0.265   0.0% |
   Communicate to 2D:                         1.108     1.108   0.0% |
   FFT 1D:                                    0.889     0.889   0.0% |
   FFT 2D:                                    1.296     1.296   0.0% |
  XC 3D grid:                                 6.597     6.597   0.0% |
  vbar:                                       2.971     2.971   0.0% |
P tci:                                       12.804    12.804   0.1% |
Redistribute:                                 0.006     0.006   0.0% |
SCF-cycle:                                 1589.202     0.117   0.0% |
 Density:                                   614.767     0.001   0.0% |
  Atomic density matrices:                    0.168     0.168   0.0% |
  Mix:                                        8.816     8.816   0.1% |
  Multipole moments:                          0.044     0.044   0.0% |
  Normalize:                                  0.013     0.013   0.0% |
  Pseudo density:                           605.724     0.197   0.0% |
   Calculate density matrix:                  0.261     0.261   0.0% |
   Construct density:                       605.261   605.261   3.7% ||
   Symmetrize density:                        0.006     0.006   0.0% |
 Hamiltonian:                                73.522     0.008   0.0% |
  Atomic:                                    24.197     0.135   0.0% |
   XC Correction:                            24.062    24.062   0.1% |
  Calculate atomic Hamiltonians:              1.766     1.766   0.0% |
  Communicate:                                0.001     0.001   0.0% |
  Hartree integrate/restrict:                 0.653     0.653   0.0% |
  Poisson:                                   19.396     1.804   0.0% |
   Communicate from 1D:                       1.702     1.702   0.0% |
   Communicate from 2D:                       1.346     1.346   0.0% |
   Communicate to 1D:                         0.987     0.987   0.0% |
   Communicate to 2D:                         3.911     3.911   0.0% |
   FFT 1D:                                    3.142     3.142   0.0% |
   FFT 2D:                                    6.504     6.504   0.0% |
  XC 3D grid:                                26.151    26.151   0.2% |
  vbar:                                       1.350     1.350   0.0% |
 LCAO eigensolver:                          900.795     0.276   0.0% |
  Calculate projections:                      0.465     0.465   0.0% |
  DenseAtomicCorrection:                      6.105     6.105   0.0% |
  Distribute overlap matrix:                  0.008     0.008   0.0% |
  Orbital Layouts:                           13.464    13.464   0.1% |
  Potential matrix:                         880.477   880.477   5.4% |-|
ST tci:                                       9.719     9.719   0.1% |
Set symmetry:                                 0.001     0.001   0.0% |
TCI: Evaluate splines:                        0.064     0.064   0.0% |
mktci:                                        2.008     2.008   0.0% |
Other:                                    13378.657 13378.657  82.7% |--------------------------------|
--------------------------------------------------------------------
Total:                                              16169.674 100.0%

Memory usage: 3.67 GiB
Date: Wed Nov 26 15:55:26 2025
