
  ___ ___ ___ _ _ _  
 |   |   |_  | | | | 
 | | | | | . | | | | 
 |__ |  _|___|_____|  25.7.0
 |___|_|             

User:   tew@Mathuss-MacBook-Air-357.local
Date:   Wed Nov 26 11:25:56 2025
Arch:   arm64
Pid:    88448
CWD:    /Users/tew/Documents/Project/GitHub/chem-com
Python: 3.13.5
gpaw:   /Users/tew/Documents/Project/GitHub/chem-com/.venv/lib/python3.13/site-packages/gpaw
_gpaw:  /Users/tew/Documents/Project/GitHub/chem-com/.venv/lib/python3.13/site-packages/
        _gpaw.cpython-313-darwin.so
ase:    /Users/tew/Documents/Project/GitHub/chem-com/.venv/lib/python3.13/site-packages/ase (version 3.26.0)
numpy:  /Users/tew/Documents/Project/GitHub/chem-com/.venv/lib/python3.13/site-packages/numpy (version 2.3.5)
scipy:  /Users/tew/Documents/Project/GitHub/chem-com/.venv/lib/python3.13/site-packages/scipy (version 1.16.3)
libxc:  2.x.y
units:  Angstrom and eV
cores: 1
OpenMP: False
OMP_NUM_THREADS: 1

Input parameters:
  basis: dzp
  convergence: {density: 0.0001,
                eigenstates: 5e-06}
  kpts: [1 1 1]
  mode: {interpolation: 3,
         name: lcao}
  occupations: {fixmagmom: False,
                name: fermi-dirac,
                width: 0.15}
  xc: PBE

System changes: positions, numbers, cell, pbc, initial_charges, initial_magmoms 

Initialize ...

species:
  Na:
    name: Sodium
    id: d7ecbc49209718622bcbe287195dca2a
    Z: 11.0
    valence: 7
    core: 4
    charge: 0.0
    file: /Users/tew/Documents/Project/GitHub/chem-com/.venv/lib/python3.13/site-packages/gpaw_data/setups/Na.PBE.gz
    compensation charges: {type: gauss,
                           rc: 0.37,
                           lmax: 2}
    cutoffs: {filter: 2.17,
              core: 2.59}
    projectors:
      #              energy  rcut
      - 3s(1.00)    -2.744   1.201
      - 2p(6.00)   -28.672   1.217
      - 3p(0.00)    -0.743   1.217
      -  s          24.468   1.201
      -  d           0.000   1.238
  
    # LCAO basis set for Na:
    #   Name: dzp
    #   File: /Users/tew/Documents/Project/GitHub/chem-com/.venv/lib/python3.13/site-packages/gpaw_data/setups/Na.dzp.basis.gz
    #   Number of radial functions: 7
    #   Number of spherical harmonics: 17
    #     l=0, rc=11.4062 Bohr: 3s-sz confined orbital
    #     l=1, rc=3.6719 Bohr: 2p-sz confined orbital
    #     l=1, rc=15.9375 Bohr: 3p-sz confined orbital
    #     l=0, rc=6.9531 Bohr: 3s-dz split-valence wave
    #     l=1, rc=2.4219 Bohr: 2p-dz split-valence wave
    #     l=1, rc=10.0469 Bohr: 3p-dz split-valence wave
    #     l=1, rc=11.4062 Bohr: p-type Gaussian polarization
    #   Number of RI-basis functions 0

Reference energy: -322558.566329  # eV

Spin-paired calculation

Convergence criteria:
 Maximum [total energy] change in last 3 cyles: 0.0005 eV / valence electron
 Maximum integral of absolute [dens]ity change: 0.0001 electrons / valence electron
 Maximum integral of absolute [eigenst]ate change: 5e-06 eV^2 / valence electron
 Maximum number of scf [iter]ations: 333
 (Square brackets indicate name in SCF output, whereas a 'c' in
 the SCF output indicates the quantity has converged.)

Symmetries present (total): 1

  ( 1  0  0)
  ( 0  1  0)
  ( 0  0  1)

1 k-point (Gamma)
1 k-point in the irreducible part of the Brillouin zone
       k-points in crystal coordinates                weights
   0:     0.00000000    0.00000000    0.00000000          1/1

Wave functions: LCAO
  Diagonalizer: Serial LAPACK
  Atomic Correction: dense with blas
  Data-type: float
 

Occupation numbers: Fermi-Dirac:
  width: 0.1500  # eV
 

Eigensolver
   LCAO using direct dense diagonalizer 

Densities:
  Coarse grid: 88*64*144 grid
  Fine grid: 176*128*288 grid
  Total Charge: 0.000000 

Density mixing:
  Method: separate
  Backend: pulay
  Linear mixing parameter: 0.05
  old densities: 5
  Damping of long wavelength oscillations: 50 

Hamiltonian:
  XC and Coulomb potentials evaluated on a 176*128*288 grid
  Using the PBE Exchange-Correlation functional
  Interpolation: tri-quintic (5. degree polynomial)
  Poisson solver: FastPoissonSolver using
    Stencil: 6*3+1=19 point O(h^6) finite-difference Laplacian
    FFT axes: [np.int64(0), np.int64(1)]
    FST axes: [np.int64(2)]
 

XC parameters: PBE with 2 nearest neighbor stencil

Memory estimate:
  Process memory now: 3762.67 MiB
  Calculator: 1616.02 MiB
    Density: 540.29 MiB
      Arrays: 160.27 MiB
      Localized functions: 318.57 MiB
      Mixer: 61.45 MiB
    Hamiltonian: 128.23 MiB
      Arrays: 104.80 MiB
      XC: 0.00 MiB
      Poisson: 0.00 MiB
      vbar: 23.43 MiB
    Wavefunctions: 947.50 MiB
      C [qnM]: 2.94 MiB
      S, T [2 x qmm]: 23.50 MiB
      P [aqMi]: 1.12 MiB
      BasisFunctions: 919.93 MiB
      Eigensolver: 0.00 MiB

Total number of cores used: 1

Number of atoms: 73
Number of atomic orbitals: 1241
Number of bands in calculation: 311
Number of valence electrons: 511
Bands to converge: occupied

... initialized

Initializing position-dependent things.

Density initialized from atomic densities
         .-------------------------------------------.  
        /|                                           |  
       / |                                           |  
      /  |                                           |  
     /   |                                           |  
    /    |                                           |  
   /     |                                           |  
  /      |                                           |  
 *       |                                           |  
 |       |                                           |  
 |       |                                           |  
 |       |                                           |  
 |       |                                           |  
 |       |                                           |  
 |      Na            Na             Na              |  
 |       |    Na            Na             Na        |  
 |  Na   |          Na            Na             Na  Na 
 |       |                    Na            Na       |  
 |       | Na  Na         Na            Na           |  
 |       |       Na  Na         Na  Na            Na |  
 |Na     |  Na         Na  Na         Na  Na         |  
 |      Na        Na  Na         Na  Na              |  
 |       |                                      Na   |  
 |       |Na  Na        Na  Na         Na  Na        |  
 |   Na  |      Na  Na        Na  Na                 |  
 |       | Na  Na         Na  Na        Na  Na       |  
 |    Na |           Na             Na               |  
 |Na     |       Na             Na                   |  
 |      Na  Na         Na  Na         Na  Na         |  
 |  Na   |        Na             Na                  |  
 |       |Na            Na             Na            |  
 |       |                                           |  
 Na      |      Na            Na                     |  
 |       |                                           |  
 |       |                                           |  
 |       |                                           |  
 |       .-------------------------------------------.  
 |      /                                           /   
 |     /                                           /    
 |    /                                           /     
 |   /                                           /      
 |  /                                           /       
 | /                                           /        
 |/                                           /         
 *-------------------------------------------*          

Atomic positions and initial magnetic moments

Positions:
   0 Na     0.000000    0.000000   10.000000    ( 0.0000,  0.0000,  0.0000)
   1 Na     2.991062    2.115000   10.000000    ( 0.0000,  0.0000,  0.0000)
   2 Na     2.991062    0.000000   12.991062    ( 0.0000,  0.0000,  0.0000)
   3 Na     5.982123    2.115000   12.991062    ( 0.0000,  0.0000,  0.0000)
   4 Na    -0.006848   -0.080973   15.854512    ( 0.0000,  0.0000,  0.0000)
   5 Na     3.002478    2.159492   15.893952    ( 0.0000,  0.0000,  0.0000)
   6 Na     2.960805    0.029735   18.827731    ( 0.0000,  0.0000,  0.0000)
   7 Na     0.016874    2.097711   18.613975    ( 0.0000,  0.0000,  0.0000)
   8 Na     0.000000    4.230000   10.000000    ( 0.0000,  0.0000,  0.0000)
   9 Na     2.991062    6.345000   10.000000    ( 0.0000,  0.0000,  0.0000)
  10 Na     2.991062    4.230000   12.991062    ( 0.0000,  0.0000,  0.0000)
  11 Na     5.982123    6.345000   12.991062    ( 0.0000,  0.0000,  0.0000)
  12 Na    -0.002130    4.309974   15.866471    ( 0.0000,  0.0000,  0.0000)
  13 Na     2.995994    6.341594   15.973699    ( 0.0000,  0.0000,  0.0000)
  14 Na     2.960366    4.186204   19.039461    ( 0.0000,  0.0000,  0.0000)
  15 Na    -0.000170    6.314658   19.012490    ( 0.0000,  0.0000,  0.0000)
  16 Na     0.000000    8.460000   10.000000    ( 0.0000,  0.0000,  0.0000)
  17 Na     2.991062   10.575000   10.000000    ( 0.0000,  0.0000,  0.0000)
  18 Na     2.991062    8.460000   12.991062    ( 0.0000,  0.0000,  0.0000)
  19 Na     5.982123   10.575000   12.991062    ( 0.0000,  0.0000,  0.0000)
  20 Na    -0.002130    8.460158   15.975159    ( 0.0000,  0.0000,  0.0000)
  21 Na     2.995593   10.534014   15.913708    ( 0.0000,  0.0000,  0.0000)
  22 Na     2.990903    8.474715   18.999642    ( 0.0000,  0.0000,  0.0000)
  23 Na     0.016874   10.621627   19.035191    ( 0.0000,  0.0000,  0.0000)
  24 Na     5.982123    0.000000   10.000000    ( 0.0000,  0.0000,  0.0000)
  25 Na     8.973185    2.115000   10.000000    ( 0.0000,  0.0000,  0.0000)
  26 Na     8.973185    0.000000   12.991062    ( 0.0000,  0.0000,  0.0000)
  27 Na    11.964247    2.115000   12.991062    ( 0.0000,  0.0000,  0.0000)
  28 Na     5.988301    0.000726   15.961484    ( 0.0000,  0.0000,  0.0000)
  29 Na     8.973077    2.112805   15.972412    ( 0.0000,  0.0000,  0.0000)
  30 Na     8.973230    0.000471   18.977253    ( 0.0000,  0.0000,  0.0000)
  31 Na     5.965481    2.097967   19.001656    ( 0.0000,  0.0000,  0.0000)
  32 Na     5.982123    4.230000   10.000000    ( 0.0000,  0.0000,  0.0000)
  33 Na     8.973185    6.345000   10.000000    ( 0.0000,  0.0000,  0.0000)
  34 Na     8.973185    4.230000   12.991062    ( 0.0000,  0.0000,  0.0000)
  35 Na    11.964247    6.345000   12.991062    ( 0.0000,  0.0000,  0.0000)
  36 Na     5.984040    4.228970   15.973605    ( 0.0000,  0.0000,  0.0000)
  37 Na     8.973005    6.346191   15.963458    ( 0.0000,  0.0000,  0.0000)
  38 Na     8.972645    4.229389   18.978277    ( 0.0000,  0.0000,  0.0000)
  39 Na     5.979981    6.342814   18.978923    ( 0.0000,  0.0000,  0.0000)
  40 Na     5.982123    8.460000   10.000000    ( 0.0000,  0.0000,  0.0000)
  41 Na     8.973185   10.575000   10.000000    ( 0.0000,  0.0000,  0.0000)
  42 Na     8.973185    8.460000   12.991062    ( 0.0000,  0.0000,  0.0000)
  43 Na    11.964247   10.575000   12.991062    ( 0.0000,  0.0000,  0.0000)
  44 Na     5.983804    8.460302   15.968021    ( 0.0000,  0.0000,  0.0000)
  45 Na     8.973077   10.576014   15.967373    ( 0.0000,  0.0000,  0.0000)
  46 Na     8.972645    8.460132   18.977673    ( 0.0000,  0.0000,  0.0000)
  47 Na     5.964228   10.594245   19.001279    ( 0.0000,  0.0000,  0.0000)
  48 Na    11.964247    0.000000   10.000000    ( 0.0000,  0.0000,  0.0000)
  49 Na    14.955308    2.115000   10.000000    ( 0.0000,  0.0000,  0.0000)
  50 Na    14.955308    0.000000   12.991062    ( 0.0000,  0.0000,  0.0000)
  51 Na    17.946370    2.115000   12.991062    ( 0.0000,  0.0000,  0.0000)
  52 Na    11.964807    0.000726   15.972078    ( 0.0000,  0.0000,  0.0000)
  53 Na    14.944037    2.113080   15.954342    ( 0.0000,  0.0000,  0.0000)
  54 Na    14.985457    0.029735   19.021235    ( 0.0000,  0.0000,  0.0000)
  55 Na    11.964206    2.113652   18.978154    ( 0.0000,  0.0000,  0.0000)
  56 Na    11.964247    4.230000   10.000000    ( 0.0000,  0.0000,  0.0000)
  57 Na    14.955308    6.345000   10.000000    ( 0.0000,  0.0000,  0.0000)
  58 Na    14.955308    4.230000   12.991062    ( 0.0000,  0.0000,  0.0000)
  59 Na    17.946370    6.345000   12.991062    ( 0.0000,  0.0000,  0.0000)
  60 Na    11.964444    4.231500   15.970657    ( 0.0000,  0.0000,  0.0000)
  61 Na    14.950571    6.341594   15.969706    ( 0.0000,  0.0000,  0.0000)
  62 Na    14.986662    4.200924   19.021198    ( 0.0000,  0.0000,  0.0000)
  63 Na    11.966597    6.342814   18.976753    ( 0.0000,  0.0000,  0.0000)
  64 Na    11.964247    8.460000   10.000000    ( 0.0000,  0.0000,  0.0000)
  65 Na    14.955308   10.575000   10.000000    ( 0.0000,  0.0000,  0.0000)
  66 Na    14.955308    8.460000   12.991062    ( 0.0000,  0.0000,  0.0000)
  67 Na    17.946370   10.575000   12.991062    ( 0.0000,  0.0000,  0.0000)
  68 Na    11.964680    8.457771   15.965073    ( 0.0000,  0.0000,  0.0000)
  69 Na    14.950922   10.580425   15.974098    ( 0.0000,  0.0000,  0.0000)
  70 Na    14.956125    8.459994   18.981379    ( 0.0000,  0.0000,  0.0000)
  71 Na    11.965460   10.578559   18.977777    ( 0.0000,  0.0000,  0.0000)
  72 Na     0.997466    1.409497   21.575165    ( 0.0000,  0.0000,  0.0000)

Unit cell:
           periodic     x           y           z      points  spacing
  1. axis:    yes   17.946370    0.000000    0.000000    88     0.2039
  2. axis:    yes    0.000000   12.690000    0.000000    64     0.1983
  3. axis:    no     0.000000    0.000000   28.973185   144     0.2012

  Lengths:  17.946370  12.690000  28.973185
  Angles:   90.000000  90.000000  90.000000

Effective grid spacing dv^(1/3) = 0.2011

     iter     time        total  log10-change:
                         energy   eigst   dens
iter:   1 12:13:34   -89.353169        c
iter:   2 12:14:25   -88.522827        c -1.61
iter:   3 12:15:13   -87.970042        c -1.71
iter:   4 12:16:05   -87.875490        c -1.87
iter:   5 12:16:55   -87.857211c       c -2.05
iter:   6 12:17:39   -87.880871c       c -2.24
iter:   7 12:18:25   -87.803447c       c -2.25
iter:   8 12:19:18   -87.795064c       c -2.71
iter:   9 12:20:14   -87.786618c       c -2.87
iter:  10 12:21:12   -87.785461c       c -3.16
iter:  11 12:22:09   -87.784607c       c -3.23
iter:  12 12:23:05   -87.783784c       c -3.42
iter:  13 12:23:56   -87.783803c       c -3.58
iter:  14 12:24:48   -87.784306c       c -3.73
iter:  15 12:25:34   -87.784407c       c -3.95
iter:  16 12:26:20   -87.784365c       c -4.06c

Converged after 16 iterations.

Dipole moment: (-25.796593, -14.455645, 0.311368) |e|*Ang

Energy contributions relative to reference atoms: (reference = -322558.566329)

Kinetic:       +144.496839
Potential:     -131.531776
External:        +0.000000
XC:             -99.676573
Entropy (-ST):   -2.608245
Local:           +0.231267
SIC:             +0.000000
--------------------------
Free energy:    -89.088488
Extrapolated:   -87.784365

 Band  Eigenvalues  Occupancy
    0    -28.50172    2.00000
    1    -28.48644    2.00000
    2    -28.47956    2.00000
    3    -27.94557    2.00000
    4    -27.93942    2.00000
    5    -27.93641    2.00000
    6    -27.93641    2.00000
    7    -27.93601    2.00000
    8    -27.93413    2.00000
    9    -27.93180    2.00000
   10    -27.93082    2.00000
   11    -27.92950    2.00000
   12    -27.92728    2.00000
   13    -27.92631    2.00000
   14    -27.92415    2.00000
   15    -27.92354    2.00000
   16    -27.92339    2.00000
   17    -27.92271    2.00000
   18    -27.92189    2.00000
   19    -27.92078    2.00000
   20    -27.91948    2.00000
   21    -27.91823    2.00000
   22    -27.91807    2.00000
   23    -27.91771    2.00000
   24    -27.91712    2.00000
   25    -27.91627    2.00000
   26    -27.91583    2.00000
   27    -27.91546    2.00000
   28    -27.91527    2.00000
   29    -27.91486    2.00000
   30    -27.91370    2.00000
   31    -27.91352    2.00000
   32    -27.91344    2.00000
   33    -27.91318    2.00000
   34    -27.91241    2.00000
   35    -27.91234    2.00000
   36    -27.91226    2.00000
   37    -27.91188    2.00000
   38    -27.91147    2.00000
   39    -27.91131    2.00000
   40    -27.91055    2.00000
   41    -27.91035    2.00000
   42    -27.91002    2.00000
   43    -27.90987    2.00000
   44    -27.90970    2.00000
   45    -27.90894    2.00000
   46    -27.90887    2.00000
   47    -27.90858    2.00000
   48    -27.90848    2.00000
   49    -27.90833    2.00000
   50    -27.90831    2.00000
   51    -27.90825    2.00000
   52    -27.90726    2.00000
   53    -27.90686    2.00000
   54    -27.90679    2.00000
   55    -27.90602    2.00000
   56    -27.90509    2.00000
   57    -27.90469    2.00000
   58    -27.90396    2.00000
   59    -27.90371    2.00000
   60    -27.90282    2.00000
   61    -27.90270    2.00000
   62    -27.90206    2.00000
   63    -27.90164    2.00000
   64    -27.90139    2.00000
   65    -27.90073    2.00000
   66    -27.90054    2.00000
   67    -27.89965    2.00000
   68    -27.89909    2.00000
   69    -27.89875    2.00000
   70    -27.89782    2.00000
   71    -27.89667    2.00000
   72    -27.89648    2.00000
   73    -27.89625    2.00000
   74    -27.89560    2.00000
   75    -27.89542    2.00000
   76    -27.89450    2.00000
   77    -27.89324    2.00000
   78    -27.89317    2.00000
   79    -27.89298    2.00000
   80    -27.89275    2.00000
   81    -27.89233    2.00000
   82    -27.89172    2.00000
   83    -27.89083    2.00000
   84    -27.89058    2.00000
   85    -27.89005    2.00000
   86    -27.88979    2.00000
   87    -27.88970    2.00000
   88    -27.88959    2.00000
   89    -27.88852    2.00000
   90    -27.88762    2.00000
   91    -27.88724    2.00000
   92    -27.88694    2.00000
   93    -27.88628    2.00000
   94    -27.88544    2.00000
   95    -27.88424    2.00000
   96    -27.88190    2.00000
   97    -27.88109    2.00000
   98    -27.88020    2.00000
   99    -27.87622    2.00000
  100    -27.87520    2.00000
  101    -27.87354    2.00000
  102    -27.86790    2.00000
  103    -27.86468    2.00000
  104    -27.86192    2.00000
  105    -27.78919    2.00000
  106    -27.78016    2.00000
  107    -27.77707    2.00000
  108    -27.73584    2.00000
  109    -27.73520    2.00000
  110    -27.73425    2.00000
  111    -27.73277    2.00000
  112    -27.73223    2.00000
  113    -27.73062    2.00000
  114    -27.72938    2.00000
  115    -27.72743    2.00000
  116    -27.72591    2.00000
  117    -27.72456    2.00000
  118    -27.72396    2.00000
  119    -27.72315    2.00000
  120    -27.72231    2.00000
  121    -27.72223    2.00000
  122    -27.72180    2.00000
  123    -27.72158    2.00000
  124    -27.72131    2.00000
  125    -27.72123    2.00000
  126    -27.72079    2.00000
  127    -27.72057    2.00000
  128    -27.71990    2.00000
  129    -27.71951    2.00000
  130    -27.71916    2.00000
  131    -27.71824    2.00000
  132    -27.71741    2.00000
  133    -27.71693    2.00000
  134    -27.71669    2.00000
  135    -27.71636    2.00000
  136    -27.71608    2.00000
  137    -27.71522    2.00000
  138    -27.71514    2.00000
  139    -27.71493    2.00000
  140    -27.71487    2.00000
  141    -27.71429    2.00000
  142    -27.71382    2.00000
  143    -27.71349    2.00000
  144    -27.71330    2.00000
  145    -27.71268    2.00000
  146    -27.71249    2.00000
  147    -27.71179    2.00000
  148    -27.71173    2.00000
  149    -27.71144    2.00000
  150    -27.71110    2.00000
  151    -27.71062    2.00000
  152    -27.71018    2.00000
  153    -27.70975    2.00000
  154    -27.70956    2.00000
  155    -27.70899    2.00000
  156    -27.70870    2.00000
  157    -27.70789    2.00000
  158    -27.70758    2.00000
  159    -27.70749    2.00000
  160    -27.70734    2.00000
  161    -27.70665    2.00000
  162    -27.70635    2.00000
  163    -27.70604    2.00000
  164    -27.70574    2.00000
  165    -27.70522    2.00000
  166    -27.70505    2.00000
  167    -27.70493    2.00000
  168    -27.70424    2.00000
  169    -27.70410    2.00000
  170    -27.70377    2.00000
  171    -27.70363    2.00000
  172    -27.70333    2.00000
  173    -27.70290    2.00000
  174    -27.70219    2.00000
  175    -27.70192    2.00000
  176    -27.70173    2.00000
  177    -27.70134    2.00000
  178    -27.70085    2.00000
  179    -27.70037    2.00000
  180    -27.70022    2.00000
  181    -27.69914    2.00000
  182    -27.69889    2.00000
  183    -27.69837    2.00000
  184    -27.69814    2.00000
  185    -27.69768    2.00000
  186    -27.69750    2.00000
  187    -27.69739    2.00000
  188    -27.69689    2.00000
  189    -27.69653    2.00000
  190    -27.69624    2.00000
  191    -27.69607    2.00000
  192    -27.69573    2.00000
  193    -27.69565    2.00000
  194    -27.69530    2.00000
  195    -27.69507    2.00000
  196    -27.69467    2.00000
  197    -27.69408    2.00000
  198    -27.69400    2.00000
  199    -27.69388    2.00000
  200    -27.69270    2.00000
  201    -27.69249    2.00000
  202    -27.69215    2.00000
  203    -27.69119    2.00000
  204    -27.69105    2.00000
  205    -27.69087    2.00000
  206    -27.69029    2.00000
  207    -27.68985    2.00000
  208    -27.68966    2.00000
  209    -27.68929    2.00000
  210    -27.68892    2.00000
  211    -27.68800    2.00000
  212    -27.68749    2.00000
  213    -27.68662    2.00000
  214    -27.68524    2.00000
  215    -27.68402    2.00000
  216    -27.68319    2.00000
  217    -27.68194    2.00000
  218    -27.67859    2.00000
  219     -5.89412    2.00000
  220     -5.41232    2.00000
  221     -5.40071    2.00000
  222     -5.33649    2.00000
  223     -4.93322    2.00000
  224     -4.92761    2.00000
  225     -4.87365    2.00000
  226     -4.85390    2.00000
  227     -4.47497    1.99997
  228     -4.46241    1.99997
  229     -4.45315    1.99997
  230     -4.45112    1.99996
  231     -4.43658    1.99996
  232     -4.38779    1.99995
  233     -4.38318    1.99994
  234     -4.01536    1.99936
  235     -3.98705    1.99922
  236     -3.98244    1.99920
  237     -3.94144    1.99894
  238     -3.91737    1.99876
  239     -3.91400    1.99873
  240     -3.90816    1.99868
  241     -3.90221    1.99863
  242     -3.54424    1.98519
  243     -3.48458    1.97804
  244     -3.45023    1.97247
  245     -3.44796    1.97206
  246     -3.28647    1.92015
  247     -3.07691    1.71211
  248     -3.06853    1.69808
  249     -3.06738    1.69610
  250     -3.06626    1.69417
  251     -3.05529    1.67474
  252     -3.02660    1.61923
  253     -3.01118    1.58653
  254     -3.00380    1.57017
  255     -2.84046    1.10292
  256     -2.74069    0.77466
  257     -2.57838    0.35289
  258     -2.55760    0.31441
  259     -2.52933    0.26763
  260     -2.52853    0.26641
  261     -2.52679    0.26374
  262     -2.52241    0.25712
  263     -2.41558    0.13498
  264     -2.32123    0.07430
  265     -2.20018    0.03385
  266     -2.14449    0.02347
  267     -2.14173    0.02305
  268     -1.96299    0.00706
  269     -1.92388    0.00544
  270     -1.89787    0.00458
  271     -1.87403    0.00391
  272     -1.83991    0.00311
  273     -1.76062    0.00184
  274     -1.73608    0.00156
  275     -1.72323    0.00143
  276     -1.71488    0.00135
  277     -1.71308    0.00134
  278     -1.70933    0.00130
  279     -1.70726    0.00129
  280     -1.70328    0.00125
  281     -1.70210    0.00124
  282     -1.67580    0.00104
  283     -1.63109    0.00077
  284     -1.62885    0.00076
  285     -1.44371    0.00022
  286     -1.41513    0.00018
  287     -1.39654    0.00016
  288     -1.34678    0.00012
  289     -1.33134    0.00011
  290     -1.27909    0.00007
  291     -1.10514    0.00002
  292     -1.04284    0.00002
  293     -1.04155    0.00002
  294     -1.03062    0.00001
  295     -1.01958    0.00001
  296     -1.00618    0.00001
  297     -1.00290    0.00001
  298     -0.88388    0.00001
  299     -0.84838    0.00000
  300     -0.83695    0.00000
  301     -0.81737    0.00000
  302     -0.79576    0.00000
  303     -0.76251    0.00000
  304     -0.76080    0.00000
  305     -0.59700    0.00000
  306     -0.59095    0.00000
  307     -0.55407    0.00000
  308     -0.52320    0.00000
  309     -0.51916    0.00000
  310     -0.50584    0.00000

Fermi level: -2.80947

Gap: 0.100 eV
Transition (v -> c):
  (s=0, k=0, n=255, [0.00, 0.00, 0.00]) -> (s=0, k=0, n=256, [0.00, 0.00, 0.00])
No difference between direct/indirect transitions

Forces in eV/Ang:
  0 Na   -0.00067    0.00251   -0.00392
  1 Na    0.00024   -0.00155   -0.00627
  2 Na    0.00483   -0.00410   -0.00956
  3 Na    0.00280    0.00057    0.00127
  4 Na    0.01084    0.00784    0.00390
  5 Na   -0.01550   -0.00895    0.00840
  6 Na    0.02496   -0.01428    0.03618
  7 Na   -0.07065    0.05447   -0.09133
  8 Na   -0.00169   -0.00676   -0.00076
  9 Na    0.00881   -0.00697    0.00458
 10 Na    0.00399    0.01457   -0.01879
 11 Na    0.00398   -0.00145    0.01353
 12 Na   -0.00456   -0.01444    0.00676
 13 Na    0.01043   -0.00461    0.01199
 14 Na   -0.00849   -0.01852    0.02354
 15 Na    0.00821   -0.00379    0.00098
 16 Na   -0.00576    0.00449    0.00706
 17 Na    0.00409    0.00839    0.00080
 18 Na    0.00177   -0.01000   -0.00282
 19 Na    0.00397    0.00025    0.00583
 20 Na   -0.00647    0.00405    0.01292
 21 Na    0.00952    0.01349    0.01576
 22 Na   -0.00817   -0.00504   -0.00332
 23 Na    0.00244    0.02080    0.02168
 24 Na   -0.00060   -0.00066   -0.00474
 25 Na    0.00085    0.00164   -0.00498
 26 Na   -0.00141   -0.00100    0.00678
 27 Na    0.00247   -0.00099    0.00690
 28 Na   -0.01191   -0.00030    0.00885
 29 Na    0.00224    0.00014   -0.00085
 30 Na   -0.00252   -0.00096   -0.00220
 31 Na   -0.00110    0.00358    0.00045
 32 Na    0.00300    0.00178   -0.00593
 33 Na    0.00512    0.00481   -0.01645
 34 Na    0.00015    0.00268    0.00705
 35 Na   -0.00262    0.00007    0.01013
 36 Na    0.00584    0.00070    0.00551
 37 Na   -0.00039    0.00043   -0.00354
 38 Na   -0.00527   -0.00197   -0.00002
 39 Na   -0.00805   -0.00386   -0.00030
 40 Na    0.00980   -0.00110   -0.00488
 41 Na    0.00362   -0.00643   -0.01215
 42 Na    0.00154   -0.00160    0.00905
 43 Na   -0.00097    0.00086    0.00840
 44 Na    0.00681   -0.00086    0.00392
 45 Na    0.00161   -0.00065   -0.00297
 46 Na   -0.00611    0.00250   -0.00065
 47 Na    0.00528    0.00028   -0.00892
 48 Na   -0.00059   -0.00316   -0.00516
 49 Na    0.00053   -0.00103   -0.00608
 50 Na   -0.00625   -0.00321   -0.00197
 51 Na   -0.00241    0.00129   -0.00939
 52 Na   -0.00230    0.00007   -0.00104
 53 Na    0.01691    0.00156    0.00841
 54 Na    0.01143    0.00552    0.01642
 55 Na    0.00373   -0.00000   -0.00330
 56 Na   -0.00393    0.00605   -0.00819
 57 Na   -0.00945   -0.00196   -0.00062
 58 Na   -0.00571    0.00308    0.00012
 59 Na   -0.00052    0.01771   -0.02014
 60 Na   -0.00302    0.00028   -0.00284
 61 Na   -0.00982   -0.00015    0.01011
 62 Na   -0.00163   -0.00612    0.00120
 63 Na    0.00920   -0.00470   -0.00005
 64 Na   -0.00901   -0.00290   -0.01495
 65 Na   -0.00431    0.00287   -0.00386
 66 Na   -0.00435    0.00038    0.01474
 67 Na   -0.00163   -0.01910   -0.02929
 68 Na    0.00006   -0.00037   -0.00319
 69 Na   -0.00858   -0.00041    0.00960
 70 Na    0.00902    0.00120    0.00087
 71 Na    0.00823    0.00517   -0.00004
 72 Na    0.03179   -0.03246    0.01732

System changes: positions 

Initializing position-dependent things.

Density initialized from wave functions
         .-------------------------------------------.  
        /|                                           |  
       / |                                           |  
      /  |                                           |  
     /   |                                           |  
    /    |                                           |  
   /     |                                           |  
  /      |                                           |  
 *       |                                           |  
 |       |                                           |  
 |       |                                           |  
 |       |                                           |  
 |       |                                           |  
 |       |                                           |  
 |      Na            Na             Na              |  
 |       |    Na            Na             Na        |  
 |  Na   |          Na            Na             Na  Na 
 |       |                    Na            Na       |  
 |       | Na  Na         Na            Na           |  
 |       |       Na  Na         Na  Na            Na |  
 |Na     |  Na         Na  Na         Na  Na         |  
 |      Na        Na  Na         Na  Na              |  
 |       |                                      Na   |  
 |       |Na  Na        Na  Na         Na  Na        |  
 |   Na  |      Na  Na        Na  Na                 |  
 |       | Na  Na         Na  Na        Na  Na       |  
 |    Na |           Na             Na               |  
 |Na     |       Na             Na                   |  
 |      Na  Na         Na  Na         Na  Na         |  
 |  Na   |        Na             Na                  |  
 |       |Na            Na             Na            |  
 |       |                                           |  
 Na      |      Na            Na                     |  
 |       |                                           |  
 |       |                                           |  
 |       |                                           |  
 |       .-------------------------------------------.  
 |      /                                           /   
 |     /                                           /    
 |    /                                           /     
 |   /                                           /      
 |  /                                           /       
 | /                                           /        
 |/                                           /         
 *-------------------------------------------*          

Atomic positions and initial magnetic moments

Positions:
   0 Na     0.000000    0.000000   10.000000    ( 0.0000,  0.0000,  0.0000)
   1 Na     2.991062    2.115000   10.000000    ( 0.0000,  0.0000,  0.0000)
   2 Na     2.991062    0.000000   12.991062    ( 0.0000,  0.0000,  0.0000)
   3 Na     5.982123    2.115000   12.991062    ( 0.0000,  0.0000,  0.0000)
   4 Na    -0.006739   -0.080900   15.854545    ( 0.0000,  0.0000,  0.0000)
   5 Na     3.002324    2.159395   15.894043    ( 0.0000,  0.0000,  0.0000)
   6 Na     2.961053    0.029594   18.828124    ( 0.0000,  0.0000,  0.0000)
   7 Na     0.016165    2.098257   18.613030    ( 0.0000,  0.0000,  0.0000)
   8 Na     0.000000    4.230000   10.000000    ( 0.0000,  0.0000,  0.0000)
   9 Na     2.991062    6.345000   10.000000    ( 0.0000,  0.0000,  0.0000)
  10 Na     2.991062    4.230000   12.991062    ( 0.0000,  0.0000,  0.0000)
  11 Na     5.982123    6.345000   12.991062    ( 0.0000,  0.0000,  0.0000)
  12 Na    -0.002176    4.309836   15.866531    ( 0.0000,  0.0000,  0.0000)
  13 Na     2.996098    6.341547   15.973819    ( 0.0000,  0.0000,  0.0000)
  14 Na     2.960279    4.186019   19.039697    ( 0.0000,  0.0000,  0.0000)
  15 Na    -0.000088    6.314618   19.012502    ( 0.0000,  0.0000,  0.0000)
  16 Na     0.000000    8.460000   10.000000    ( 0.0000,  0.0000,  0.0000)
  17 Na     2.991062   10.575000   10.000000    ( 0.0000,  0.0000,  0.0000)
  18 Na     2.991062    8.460000   12.991062    ( 0.0000,  0.0000,  0.0000)
  19 Na     5.982123   10.575000   12.991062    ( 0.0000,  0.0000,  0.0000)
  20 Na    -0.002195    8.460199   15.975288    ( 0.0000,  0.0000,  0.0000)
  21 Na     2.995688   10.534156   15.913874    ( 0.0000,  0.0000,  0.0000)
  22 Na     2.990821    8.474662   18.999606    ( 0.0000,  0.0000,  0.0000)
  23 Na     0.016896   10.621835   19.035407    ( 0.0000,  0.0000,  0.0000)
  24 Na     5.982123    0.000000   10.000000    ( 0.0000,  0.0000,  0.0000)
  25 Na     8.973185    2.115000   10.000000    ( 0.0000,  0.0000,  0.0000)
  26 Na     8.973185    0.000000   12.991062    ( 0.0000,  0.0000,  0.0000)
  27 Na    11.964247    2.115000   12.991062    ( 0.0000,  0.0000,  0.0000)
  28 Na     5.988181    0.000724   15.961575    ( 0.0000,  0.0000,  0.0000)
  29 Na     8.973100    2.112807   15.972403    ( 0.0000,  0.0000,  0.0000)
  30 Na     8.973205    0.000461   18.977231    ( 0.0000,  0.0000,  0.0000)
  31 Na     5.965473    2.098005   19.001657    ( 0.0000,  0.0000,  0.0000)
  32 Na     5.982123    4.230000   10.000000    ( 0.0000,  0.0000,  0.0000)
  33 Na     8.973185    6.345000   10.000000    ( 0.0000,  0.0000,  0.0000)
  34 Na     8.973185    4.230000   12.991062    ( 0.0000,  0.0000,  0.0000)
  35 Na    11.964247    6.345000   12.991062    ( 0.0000,  0.0000,  0.0000)
  36 Na     5.984098    4.228978   15.973660    ( 0.0000,  0.0000,  0.0000)
  37 Na     8.973001    6.346196   15.963423    ( 0.0000,  0.0000,  0.0000)
  38 Na     8.972593    4.229370   18.978277    ( 0.0000,  0.0000,  0.0000)
  39 Na     5.979901    6.342775   18.978919    ( 0.0000,  0.0000,  0.0000)
  40 Na     5.982123    8.460000   10.000000    ( 0.0000,  0.0000,  0.0000)
  41 Na     8.973185   10.575000   10.000000    ( 0.0000,  0.0000,  0.0000)
  42 Na     8.973185    8.460000   12.991062    ( 0.0000,  0.0000,  0.0000)
  43 Na    11.964247   10.575000   12.991062    ( 0.0000,  0.0000,  0.0000)
  44 Na     5.983872    8.460293   15.968060    ( 0.0000,  0.0000,  0.0000)
  45 Na     8.973094   10.576007   15.967343    ( 0.0000,  0.0000,  0.0000)
  46 Na     8.972584    8.460157   18.977666    ( 0.0000,  0.0000,  0.0000)
  47 Na     5.964283   10.594245   19.001186    ( 0.0000,  0.0000,  0.0000)
  48 Na    11.964247    0.000000   10.000000    ( 0.0000,  0.0000,  0.0000)
  49 Na    14.955308    2.115000   10.000000    ( 0.0000,  0.0000,  0.0000)
  50 Na    14.955308    0.000000   12.991062    ( 0.0000,  0.0000,  0.0000)
  51 Na    17.946370    2.115000   12.991062    ( 0.0000,  0.0000,  0.0000)
  52 Na    11.964784    0.000727   15.972067    ( 0.0000,  0.0000,  0.0000)
  53 Na    14.944205    2.113096   15.954425    ( 0.0000,  0.0000,  0.0000)
  54 Na    14.985574    0.029792   19.021402    ( 0.0000,  0.0000,  0.0000)
  55 Na    11.964243    2.113652   18.978121    ( 0.0000,  0.0000,  0.0000)
  56 Na    11.964247    4.230000   10.000000    ( 0.0000,  0.0000,  0.0000)
  57 Na    14.955308    6.345000   10.000000    ( 0.0000,  0.0000,  0.0000)
  58 Na    14.955308    4.230000   12.991062    ( 0.0000,  0.0000,  0.0000)
  59 Na    17.946370    6.345000   12.991062    ( 0.0000,  0.0000,  0.0000)
  60 Na    11.964414    4.231503   15.970629    ( 0.0000,  0.0000,  0.0000)
  61 Na    14.950472    6.341592   15.969808    ( 0.0000,  0.0000,  0.0000)
  62 Na    14.986648    4.200861   19.021213    ( 0.0000,  0.0000,  0.0000)
  63 Na    11.966689    6.342767   18.976752    ( 0.0000,  0.0000,  0.0000)
  64 Na    11.964247    8.460000   10.000000    ( 0.0000,  0.0000,  0.0000)
  65 Na    14.955308   10.575000   10.000000    ( 0.0000,  0.0000,  0.0000)
  66 Na    14.955308    8.460000   12.991062    ( 0.0000,  0.0000,  0.0000)
  67 Na    17.946370   10.575000   12.991062    ( 0.0000,  0.0000,  0.0000)
  68 Na    11.964681    8.457768   15.965041    ( 0.0000,  0.0000,  0.0000)
  69 Na    14.950836   10.580422   15.974194    ( 0.0000,  0.0000,  0.0000)
  70 Na    14.956215    8.460006   18.981388    ( 0.0000,  0.0000,  0.0000)
  71 Na    11.965542   10.578611   18.977777    ( 0.0000,  0.0000,  0.0000)
  72 Na     0.997640    1.409274   21.575337    ( 0.0000,  0.0000,  0.0000)

Unit cell:
           periodic     x           y           z      points  spacing
  1. axis:    yes   17.946370    0.000000    0.000000    88     0.2039
  2. axis:    yes    0.000000   12.690000    0.000000    64     0.1983
  3. axis:    no     0.000000    0.000000   28.973185   144     0.2012

  Lengths:  17.946370  12.690000  28.973185
  Angles:   90.000000  90.000000  90.000000

Effective grid spacing dv^(1/3) = 0.2011

     iter     time        total  log10-change:
                         energy   eigst   dens
iter:   1 13:00:22   -87.785484        c
iter:   2 13:01:06   -87.784980        c -3.57
iter:   3 13:01:51   -87.784920c       c -4.12c

Converged after 3 iterations.

Dipole moment: (-25.776111, -14.456995, 0.312805) |e|*Ang

Energy contributions relative to reference atoms: (reference = -322558.566329)

Kinetic:       +143.654532
Potential:     -130.789900
External:        +0.000000
XC:             -99.583231
Entropy (-ST):   -2.607664
Local:           +0.237510
SIC:             +0.000000
--------------------------
Free energy:    -89.088752
Extrapolated:   -87.784920

 Band  Eigenvalues  Occupancy
    0    -28.49853    2.00000
    1    -28.48322    2.00000
    2    -28.47631    2.00000
    3    -27.94410    2.00000
    4    -27.93983    2.00000
    5    -27.93667    2.00000
    6    -27.93592    2.00000
    7    -27.93496    2.00000
    8    -27.93287    2.00000
    9    -27.93223    2.00000
   10    -27.92963    2.00000
   11    -27.92937    2.00000
   12    -27.92738    2.00000
   13    -27.92571    2.00000
   14    -27.92404    2.00000
   15    -27.92267    2.00000
   16    -27.92218    2.00000
   17    -27.92188    2.00000
   18    -27.92180    2.00000
   19    -27.92002    2.00000
   20    -27.91836    2.00000
   21    -27.91831    2.00000
   22    -27.91686    2.00000
   23    -27.91656    2.00000
   24    -27.91644    2.00000
   25    -27.91622    2.00000
   26    -27.91566    2.00000
   27    -27.91465    2.00000
   28    -27.91413    2.00000
   29    -27.91411    2.00000
   30    -27.91394    2.00000
   31    -27.91318    2.00000
   32    -27.91280    2.00000
   33    -27.91252    2.00000
   34    -27.91197    2.00000
   35    -27.91197    2.00000
   36    -27.91152    2.00000
   37    -27.91114    2.00000
   38    -27.91091    2.00000
   39    -27.91046    2.00000
   40    -27.91039    2.00000
   41    -27.90978    2.00000
   42    -27.90977    2.00000
   43    -27.90964    2.00000
   44    -27.90953    2.00000
   45    -27.90906    2.00000
   46    -27.90882    2.00000
   47    -27.90827    2.00000
   48    -27.90814    2.00000
   49    -27.90784    2.00000
   50    -27.90781    2.00000
   51    -27.90692    2.00000
   52    -27.90686    2.00000
   53    -27.90639    2.00000
   54    -27.90634    2.00000
   55    -27.90556    2.00000
   56    -27.90486    2.00000
   57    -27.90474    2.00000
   58    -27.90358    2.00000
   59    -27.90316    2.00000
   60    -27.90278    2.00000
   61    -27.90239    2.00000
   62    -27.90172    2.00000
   63    -27.90097    2.00000
   64    -27.90090    2.00000
   65    -27.90025    2.00000
   66    -27.90004    2.00000
   67    -27.89918    2.00000
   68    -27.89837    2.00000
   69    -27.89795    2.00000
   70    -27.89753    2.00000
   71    -27.89633    2.00000
   72    -27.89629    2.00000
   73    -27.89625    2.00000
   74    -27.89491    2.00000
   75    -27.89415    2.00000
   76    -27.89414    2.00000
   77    -27.89339    2.00000
   78    -27.89293    2.00000
   79    -27.89248    2.00000
   80    -27.89232    2.00000
   81    -27.89180    2.00000
   82    -27.89147    2.00000
   83    -27.89120    2.00000
   84    -27.89064    2.00000
   85    -27.89045    2.00000
   86    -27.88991    2.00000
   87    -27.88945    2.00000
   88    -27.88852    2.00000
   89    -27.88830    2.00000
   90    -27.88689    2.00000
   91    -27.88667    2.00000
   92    -27.88627    2.00000
   93    -27.88585    2.00000
   94    -27.88581    2.00000
   95    -27.88413    2.00000
   96    -27.88320    2.00000
   97    -27.88125    2.00000
   98    -27.88069    2.00000
   99    -27.87657    2.00000
  100    -27.87634    2.00000
  101    -27.87385    2.00000
  102    -27.86822    2.00000
  103    -27.86508    2.00000
  104    -27.86234    2.00000
  105    -27.79050    2.00000
  106    -27.78148    2.00000
  107    -27.77831    2.00000
  108    -27.73696    2.00000
  109    -27.73597    2.00000
  110    -27.73519    2.00000
  111    -27.73366    2.00000
  112    -27.73194    2.00000
  113    -27.73061    2.00000
  114    -27.73032    2.00000
  115    -27.72799    2.00000
  116    -27.72675    2.00000
  117    -27.72466    2.00000
  118    -27.72408    2.00000
  119    -27.72323    2.00000
  120    -27.72284    2.00000
  121    -27.72250    2.00000
  122    -27.72199    2.00000
  123    -27.72190    2.00000
  124    -27.72173    2.00000
  125    -27.72147    2.00000
  126    -27.72134    2.00000
  127    -27.72073    2.00000
  128    -27.71990    2.00000
  129    -27.71964    2.00000
  130    -27.71953    2.00000
  131    -27.71852    2.00000
  132    -27.71803    2.00000
  133    -27.71764    2.00000
  134    -27.71711    2.00000
  135    -27.71667    2.00000
  136    -27.71627    2.00000
  137    -27.71574    2.00000
  138    -27.71554    2.00000
  139    -27.71537    2.00000
  140    -27.71507    2.00000
  141    -27.71456    2.00000
  142    -27.71412    2.00000
  143    -27.71380    2.00000
  144    -27.71357    2.00000
  145    -27.71298    2.00000
  146    -27.71281    2.00000
  147    -27.71219    2.00000
  148    -27.71214    2.00000
  149    -27.71157    2.00000
  150    -27.71142    2.00000
  151    -27.71117    2.00000
  152    -27.71058    2.00000
  153    -27.70996    2.00000
  154    -27.70985    2.00000
  155    -27.70925    2.00000
  156    -27.70886    2.00000
  157    -27.70823    2.00000
  158    -27.70810    2.00000
  159    -27.70784    2.00000
  160    -27.70745    2.00000
  161    -27.70709    2.00000
  162    -27.70661    2.00000
  163    -27.70636    2.00000
  164    -27.70616    2.00000
  165    -27.70555    2.00000
  166    -27.70530    2.00000
  167    -27.70510    2.00000
  168    -27.70457    2.00000
  169    -27.70455    2.00000
  170    -27.70420    2.00000
  171    -27.70373    2.00000
  172    -27.70370    2.00000
  173    -27.70313    2.00000
  174    -27.70271    2.00000
  175    -27.70239    2.00000
  176    -27.70220    2.00000
  177    -27.70168    2.00000
  178    -27.70124    2.00000
  179    -27.70075    2.00000
  180    -27.70049    2.00000
  181    -27.69955    2.00000
  182    -27.69924    2.00000
  183    -27.69871    2.00000
  184    -27.69839    2.00000
  185    -27.69827    2.00000
  186    -27.69775    2.00000
  187    -27.69761    2.00000
  188    -27.69738    2.00000
  189    -27.69728    2.00000
  190    -27.69698    2.00000
  191    -27.69681    2.00000
  192    -27.69667    2.00000
  193    -27.69644    2.00000
  194    -27.69593    2.00000
  195    -27.69554    2.00000
  196    -27.69520    2.00000
  197    -27.69463    2.00000
  198    -27.69448    2.00000
  199    -27.69415    2.00000
  200    -27.69361    2.00000
  201    -27.69357    2.00000
  202    -27.69314    2.00000
  203    -27.69206    2.00000
  204    -27.69192    2.00000
  205    -27.69175    2.00000
  206    -27.69094    2.00000
  207    -27.69077    2.00000
  208    -27.69021    2.00000
  209    -27.69013    2.00000
  210    -27.68996    2.00000
  211    -27.68970    2.00000
  212    -27.68830    2.00000
  213    -27.68764    2.00000
  214    -27.68724    2.00000
  215    -27.68598    2.00000
  216    -27.68512    2.00000
  217    -27.68383    2.00000
  218    -27.68068    2.00000
  219     -5.89355    2.00000
  220     -5.41182    2.00000
  221     -5.40012    2.00000
  222     -5.33562    2.00000
  223     -4.93265    2.00000
  224     -4.92704    2.00000
  225     -4.87274    2.00000
  226     -4.85308    2.00000
  227     -4.47441    1.99997
  228     -4.46183    1.99997
  229     -4.45256    1.99997
  230     -4.45053    1.99996
  231     -4.43577    1.99996
  232     -4.38700    1.99995
  233     -4.38239    1.99994
  234     -4.01467    1.99935
  235     -3.98649    1.99922
  236     -3.98181    1.99920
  237     -3.94099    1.99895
  238     -3.91657    1.99876
  239     -3.91315    1.99873
  240     -3.90732    1.99868
  241     -3.90141    1.99863
  242     -3.54337    1.98517
  243     -3.48407    1.97806
  244     -3.44945    1.97244
  245     -3.44716    1.97202
  246     -3.28588    1.92016
  247     -3.07634    1.71218
  248     -3.06795    1.69812
  249     -3.06680    1.69616
  250     -3.06568    1.69423
  251     -3.05472    1.67481
  252     -3.02608    1.61941
  253     -3.01069    1.58679
  254     -3.00337    1.57057
  255     -2.83990    1.10310
  256     -2.74015    0.77490
  257     -2.57759    0.35255
  258     -2.55696    0.31437
  259     -2.52850    0.26731
  260     -2.52775    0.26615
  261     -2.52601    0.26348
  262     -2.52163    0.25686
  263     -2.41491    0.13493
  264     -2.32065    0.07431
  265     -2.19958    0.03385
  266     -2.14394    0.02348
  267     -2.14117    0.02306
  268     -1.96241    0.00706
  269     -1.92333    0.00544
  270     -1.89727    0.00458
  271     -1.87354    0.00391
  272     -1.83939    0.00311
  273     -1.75998    0.00184
  274     -1.73540    0.00156
  275     -1.72265    0.00143
  276     -1.71438    0.00135
  277     -1.71252    0.00134
  278     -1.70884    0.00131
  279     -1.70678    0.00129
  280     -1.70261    0.00125
  281     -1.70149    0.00124
  282     -1.67534    0.00104
  283     -1.63026    0.00077
  284     -1.62806    0.00076
  285     -1.44277    0.00022
  286     -1.41429    0.00018
  287     -1.39587    0.00016
  288     -1.34626    0.00012
  289     -1.33072    0.00011
  290     -1.27857    0.00007
  291     -1.10437    0.00002
  292     -1.04227    0.00002
  293     -1.04099    0.00002
  294     -1.02978    0.00001
  295     -1.01878    0.00001
  296     -1.00543    0.00001
  297     -1.00216    0.00001
  298     -0.88324    0.00001
  299     -0.84782    0.00000
  300     -0.83624    0.00000
  301     -0.81688    0.00000
  302     -0.79512    0.00000
  303     -0.76200    0.00000
  304     -0.76031    0.00000
  305     -0.59641    0.00000
  306     -0.59038    0.00000
  307     -0.55330    0.00000
  308     -0.52242    0.00000
  309     -0.51847    0.00000
  310     -0.50526    0.00000

Fermi level: -2.80886

Gap: 0.100 eV
Transition (v -> c):
  (s=0, k=0, n=255, [0.00, 0.00, 0.00]) -> (s=0, k=0, n=256, [0.00, 0.00, 0.00])
No difference between direct/indirect transitions

Forces in eV/Ang:
  0 Na   -0.00057    0.00190   -0.00404
  1 Na    0.00011   -0.00123   -0.00639
  2 Na    0.00426   -0.00406   -0.01032
  3 Na    0.00217    0.00056   -0.00014
  4 Na    0.00968    0.00605    0.00205
  5 Na   -0.01365   -0.00803    0.00696
  6 Na    0.02345   -0.01332    0.03911
  7 Na   -0.06887    0.05339   -0.08558
  8 Na   -0.00152   -0.00593   -0.00095
  9 Na    0.00843   -0.00660    0.00415
 10 Na    0.00329    0.01415   -0.01981
 11 Na    0.00404   -0.00170    0.01142
 12 Na   -0.00537   -0.01178    0.00591
 13 Na    0.01064   -0.00339    0.01417
 14 Na   -0.00912   -0.01864    0.02468
 15 Na    0.00810   -0.00282   -0.00025
 16 Na   -0.00556    0.00428    0.00656
 17 Na    0.00375    0.00770    0.00053
 18 Na    0.00116   -0.00962   -0.00466
 19 Na    0.00371    0.00050    0.00413
 20 Na   -0.00654    0.00315    0.01525
 21 Na    0.01049    0.01141    0.01617
 22 Na   -0.00778   -0.00572   -0.00508
 23 Na    0.00285    0.02042    0.02247
 24 Na   -0.00057   -0.00073   -0.00463
 25 Na    0.00114    0.00142   -0.00454
 26 Na   -0.00149   -0.00132    0.00376
 27 Na    0.00276   -0.00084    0.00416
 28 Na   -0.01094   -0.00088    0.01076
 29 Na    0.00151    0.00030    0.00338
 30 Na   -0.00223   -0.00111   -0.00362
 31 Na    0.00062    0.00363   -0.00014
 32 Na    0.00265    0.00194   -0.00578
 33 Na    0.00491    0.00454   -0.01545
 34 Na    0.00020    0.00312    0.00439
 35 Na   -0.00300    0.00016    0.00793
 36 Na    0.00629    0.00127    0.00798
 37 Na   -0.00066    0.00059   -0.00006
 38 Na   -0.00511   -0.00187   -0.00143
 39 Na   -0.00706   -0.00301   -0.00239
 40 Na    0.00887   -0.00119   -0.00476
 41 Na    0.00361   -0.00593   -0.01135
 42 Na    0.00188   -0.00171    0.00684
 43 Na   -0.00109    0.00063    0.00608
 44 Na    0.00645   -0.00085    0.00794
 45 Na    0.00107   -0.00098    0.00087
 46 Na   -0.00646    0.00256   -0.00209
 47 Na    0.00679   -0.00069   -0.01057
 48 Na   -0.00094   -0.00286   -0.00472
 49 Na    0.00058   -0.00091   -0.00602
 50 Na   -0.00554   -0.00309   -0.00303
 51 Na   -0.00215    0.00136   -0.00997
 52 Na   -0.00160   -0.00019    0.00276
 53 Na    0.01517    0.00209    0.00913
 54 Na    0.01049    0.00559    0.01647
 55 Na    0.00283    0.00012   -0.00482
 56 Na   -0.00400    0.00565   -0.00757
 57 Na   -0.00858   -0.00171   -0.00067
 58 Na   -0.00506    0.00278   -0.00114
 59 Na   -0.00014    0.01703   -0.02171
 60 Na   -0.00232    0.00062    0.00094
 61 Na   -0.00972    0.00014    0.01344
 62 Na   -0.00286   -0.00540    0.00026
 63 Na    0.00929   -0.00460   -0.00171
 64 Na   -0.00856   -0.00279   -0.01410
 65 Na   -0.00371    0.00250   -0.00386
 66 Na   -0.00414    0.00058    0.01262
 67 Na   -0.00123   -0.01848   -0.03044
 68 Na    0.00040   -0.00045    0.00038
 69 Na   -0.00920   -0.00123    0.01164
 70 Na    0.00807    0.00051   -0.00134
 71 Na    0.00780    0.00495   -0.00160
 72 Na    0.03164   -0.03221    0.01206

System changes: positions 

Initializing position-dependent things.

Density initialized from wave functions
         .-------------------------------------------.  
        /|                                           |  
       / |                                           |  
      /  |                                           |  
     /   |                                           |  
    /    |                                           |  
   /     |                                           |  
  /      |                                           |  
 *       |                                           |  
 |       |                                           |  
 |       |                                           |  
 |       |                                           |  
 |       |                                           |  
 |       |                                           |  
 |      Na            Na             Na              |  
 |       |    Na            Na             Na        |  
 |  Naa  |          Na            Na                 Na 
 |       |                    Na            Na       |  
 |       | Na  Na         Na            Na           |  
 |       |       Na  Na         Na  Na            Na |  
 |Na     |  Na         Na  Na         Na  Na         |  
 |      Na        Na  Na         Na  Na              |  
 |       |                                      Na   |  
 |       |Na  Na        Na  Na         Na  Na        |  
 |   Na  |      Na  Na        Na  Na                 |  
 |       | Na  Na         Na  Na        Na  Na       |  
 |    Na |           Na             Na               |  
 |Na     |       Na             Na                   |  
 |      Na  Na         Na  Na         Na  Na         |  
 |  Na   |        Na             Na                  |  
 |       |Na            Na             Na            |  
 |       |                                           |  
 Na      |      Na            Na                     |  
 |       |                                           |  
 |       |                                           |  
 |       |                                           |  
 |       .-------------------------------------------.  
 |      /                                           /   
 |     /                                           /    
 |    /                                           /     
 |   /                                           /      
 |  /                                           /       
 | /                                           /        
 |/                                           /         
 *-------------------------------------------*          

Atomic positions and initial magnetic moments

Positions:
   0 Na     0.000000    0.000000   10.000000    ( 0.0000,  0.0000,  0.0000)
   1 Na     2.991062    2.115000   10.000000    ( 0.0000,  0.0000,  0.0000)
   2 Na     2.991062    0.000000   12.991062    ( 0.0000,  0.0000,  0.0000)
   3 Na     5.982123    2.115000   12.991062    ( 0.0000,  0.0000,  0.0000)
   4 Na    -0.006533   -0.080775   15.854591    ( 0.0000,  0.0000,  0.0000)
   5 Na     3.002036    2.159213   15.894210    ( 0.0000,  0.0000,  0.0000)
   6 Na     2.961531    0.029323   18.828943    ( 0.0000,  0.0000,  0.0000)
   7 Na     0.014765    2.099341   18.611201    ( 0.0000,  0.0000,  0.0000)
   8 Na     0.000000    4.230000   10.000000    ( 0.0000,  0.0000,  0.0000)
   9 Na     2.991062    6.345000   10.000000    ( 0.0000,  0.0000,  0.0000)
  10 Na     2.991062    4.230000   12.991062    ( 0.0000,  0.0000,  0.0000)
  11 Na     5.982123    6.345000   12.991062    ( 0.0000,  0.0000,  0.0000)
  12 Na    -0.002275    4.309588   15.866642    ( 0.0000,  0.0000,  0.0000)
  13 Na     2.996310    6.341468   15.974083    ( 0.0000,  0.0000,  0.0000)
  14 Na     2.960097    4.185647   19.040182    ( 0.0000,  0.0000,  0.0000)
  15 Na     0.000075    6.314549   19.012512    ( 0.0000,  0.0000,  0.0000)
  16 Na     0.000000    8.460000   10.000000    ( 0.0000,  0.0000,  0.0000)
  17 Na     2.991062   10.575000   10.000000    ( 0.0000,  0.0000,  0.0000)
  18 Na     2.991062    8.460000   12.991062    ( 0.0000,  0.0000,  0.0000)
  19 Na     5.982123   10.575000   12.991062    ( 0.0000,  0.0000,  0.0000)
  20 Na    -0.002325    8.460269   15.975573    ( 0.0000,  0.0000,  0.0000)
  21 Na     2.995890   10.534417   15.914212    ( 0.0000,  0.0000,  0.0000)
  22 Na     2.990662    8.474549   18.999515    ( 0.0000,  0.0000,  0.0000)
  23 Na     0.016944   10.622247   19.035847    ( 0.0000,  0.0000,  0.0000)
  24 Na     5.982123    0.000000   10.000000    ( 0.0000,  0.0000,  0.0000)
  25 Na     8.973185    2.115000   10.000000    ( 0.0000,  0.0000,  0.0000)
  26 Na     8.973185    0.000000   12.991062    ( 0.0000,  0.0000,  0.0000)
  27 Na    11.964247    2.115000   12.991062    ( 0.0000,  0.0000,  0.0000)
  28 Na     5.987951    0.000711   15.961776    ( 0.0000,  0.0000,  0.0000)
  29 Na     8.973137    2.112812   15.972433    ( 0.0000,  0.0000,  0.0000)
  30 Na     8.973158    0.000441   18.977171    ( 0.0000,  0.0000,  0.0000)
  31 Na     5.965475    2.098082   19.001652    ( 0.0000,  0.0000,  0.0000)
  32 Na     5.982123    4.230000   10.000000    ( 0.0000,  0.0000,  0.0000)
  33 Na     8.973185    6.345000   10.000000    ( 0.0000,  0.0000,  0.0000)
  34 Na     8.973185    4.230000   12.991062    ( 0.0000,  0.0000,  0.0000)
  35 Na    11.964247    6.345000   12.991062    ( 0.0000,  0.0000,  0.0000)
  36 Na     5.984219    4.228998   15.973798    ( 0.0000,  0.0000,  0.0000)
  37 Na     8.972990    6.346206   15.963391    ( 0.0000,  0.0000,  0.0000)
  38 Na     8.972489    4.229332   18.978261    ( 0.0000,  0.0000,  0.0000)
  39 Na     5.979750    6.342707   18.978890    ( 0.0000,  0.0000,  0.0000)
  40 Na     5.982123    8.460000   10.000000    ( 0.0000,  0.0000,  0.0000)
  41 Na     8.973185   10.575000   10.000000    ( 0.0000,  0.0000,  0.0000)
  42 Na     8.973185    8.460000   12.991062    ( 0.0000,  0.0000,  0.0000)
  43 Na    11.964247   10.575000   12.991062    ( 0.0000,  0.0000,  0.0000)
  44 Na     5.984004    8.460275   15.968182    ( 0.0000,  0.0000,  0.0000)
  45 Na     8.973120   10.575990   15.967325    ( 0.0000,  0.0000,  0.0000)
  46 Na     8.972458    8.460207   18.977637    ( 0.0000,  0.0000,  0.0000)
  47 Na     5.964410   10.594236   19.000982    ( 0.0000,  0.0000,  0.0000)
  48 Na    11.964247    0.000000   10.000000    ( 0.0000,  0.0000,  0.0000)
  49 Na    14.955308    2.115000   10.000000    ( 0.0000,  0.0000,  0.0000)
  50 Na    14.955308    0.000000   12.991062    ( 0.0000,  0.0000,  0.0000)
  51 Na    17.946370    2.115000   12.991062    ( 0.0000,  0.0000,  0.0000)
  52 Na    11.964746    0.000726   15.972088    ( 0.0000,  0.0000,  0.0000)
  53 Na    14.944523    2.113133   15.954598    ( 0.0000,  0.0000,  0.0000)
  54 Na    14.985797    0.029908   19.021738    ( 0.0000,  0.0000,  0.0000)
  55 Na    11.964308    2.113654   18.978038    ( 0.0000,  0.0000,  0.0000)
  56 Na    11.964247    4.230000   10.000000    ( 0.0000,  0.0000,  0.0000)
  57 Na    14.955308    6.345000   10.000000    ( 0.0000,  0.0000,  0.0000)
  58 Na    14.955308    4.230000   12.991062    ( 0.0000,  0.0000,  0.0000)
  59 Na    17.946370    6.345000   12.991062    ( 0.0000,  0.0000,  0.0000)
  60 Na    11.964361    4.231512   15.970615    ( 0.0000,  0.0000,  0.0000)
  61 Na    14.950276    6.341592   15.970048    ( 0.0000,  0.0000,  0.0000)
  62 Na    14.986606    4.200743   19.021234    ( 0.0000,  0.0000,  0.0000)
  63 Na    11.966874    6.342673   18.976733    ( 0.0000,  0.0000,  0.0000)
  64 Na    11.964247    8.460000   10.000000    ( 0.0000,  0.0000,  0.0000)
  65 Na    14.955308   10.575000   10.000000    ( 0.0000,  0.0000,  0.0000)
  66 Na    14.955308    8.460000   12.991062    ( 0.0000,  0.0000,  0.0000)
  67 Na    17.946370   10.575000   12.991062    ( 0.0000,  0.0000,  0.0000)
  68 Na    11.964686    8.457760   15.965017    ( 0.0000,  0.0000,  0.0000)
  69 Na    14.950656   10.580405   15.974409    ( 0.0000,  0.0000,  0.0000)
  70 Na    14.956385    8.460022   18.981382    ( 0.0000,  0.0000,  0.0000)
  71 Na    11.965702   10.578712   18.977758    ( 0.0000,  0.0000,  0.0000)
  72 Na     0.997986    1.408831   21.575625    ( 0.0000,  0.0000,  0.0000)

Unit cell:
           periodic     x           y           z      points  spacing
  1. axis:    yes   17.946370    0.000000    0.000000    88     0.2039
  2. axis:    yes    0.000000   12.690000    0.000000    64     0.1983
  3. axis:    no     0.000000    0.000000   28.973185   144     0.2012

  Lengths:  17.946370  12.690000  28.973185
  Angles:   90.000000  90.000000  90.000000

Effective grid spacing dv^(1/3) = 0.2011

     iter     time        total  log10-change:
                         energy   eigst   dens
iter:   1 13:28:06   -87.784490        c
iter:   2 13:29:06   -87.784740        c -3.80
iter:   3 13:30:05   -87.785124c       c -4.02c

Converged after 3 iterations.

Dipole moment: (-25.737973, -14.455228, 0.313099) |e|*Ang

Energy contributions relative to reference atoms: (reference = -322558.566329)

Kinetic:       +143.948394
Potential:     -131.050870
External:        +0.000000
XC:             -99.616073
Entropy (-ST):   -2.608269
Local:           +0.237560
SIC:             +0.000000
--------------------------
Free energy:    -89.089258
Extrapolated:   -87.785124

 Band  Eigenvalues  Occupancy
    0    -28.50281    2.00000
    1    -28.48761    2.00000
    2    -28.48069    2.00000
    3    -27.94571    2.00000
    4    -27.93992    2.00000
    5    -27.93678    2.00000
    6    -27.93650    2.00000
    7    -27.93631    2.00000
    8    -27.93426    2.00000
    9    -27.93194    2.00000
   10    -27.93090    2.00000
   11    -27.92986    2.00000
   12    -27.92752    2.00000
   13    -27.92630    2.00000
   14    -27.92435    2.00000
   15    -27.92370    2.00000
   16    -27.92348    2.00000
   17    -27.92283    2.00000
   18    -27.92205    2.00000
   19    -27.92095    2.00000
   20    -27.91955    2.00000
   21    -27.91834    2.00000
   22    -27.91816    2.00000
   23    -27.91784    2.00000
   24    -27.91723    2.00000
   25    -27.91627    2.00000
   26    -27.91584    2.00000
   27    -27.91553    2.00000
   28    -27.91537    2.00000
   29    -27.91497    2.00000
   30    -27.91383    2.00000
   31    -27.91367    2.00000
   32    -27.91355    2.00000
   33    -27.91327    2.00000
   34    -27.91252    2.00000
   35    -27.91243    2.00000
   36    -27.91240    2.00000
   37    -27.91183    2.00000
   38    -27.91161    2.00000
   39    -27.91148    2.00000
   40    -27.91081    2.00000
   41    -27.91050    2.00000
   42    -27.91012    2.00000
   43    -27.91004    2.00000
   44    -27.90996    2.00000
   45    -27.90921    2.00000
   46    -27.90906    2.00000
   47    -27.90881    2.00000
   48    -27.90873    2.00000
   49    -27.90853    2.00000
   50    -27.90840    2.00000
   51    -27.90831    2.00000
   52    -27.90730    2.00000
   53    -27.90700    2.00000
   54    -27.90689    2.00000
   55    -27.90595    2.00000
   56    -27.90536    2.00000
   57    -27.90525    2.00000
   58    -27.90409    2.00000
   59    -27.90379    2.00000
   60    -27.90300    2.00000
   61    -27.90286    2.00000
   62    -27.90227    2.00000
   63    -27.90173    2.00000
   64    -27.90157    2.00000
   65    -27.90085    2.00000
   66    -27.90063    2.00000
   67    -27.89973    2.00000
   68    -27.89913    2.00000
   69    -27.89883    2.00000
   70    -27.89800    2.00000
   71    -27.89682    2.00000
   72    -27.89662    2.00000
   73    -27.89636    2.00000
   74    -27.89603    2.00000
   75    -27.89540    2.00000
   76    -27.89462    2.00000
   77    -27.89353    2.00000
   78    -27.89339    2.00000
   79    -27.89303    2.00000
   80    -27.89292    2.00000
   81    -27.89232    2.00000
   82    -27.89189    2.00000
   83    -27.89125    2.00000
   84    -27.89100    2.00000
   85    -27.89025    2.00000
   86    -27.89024    2.00000
   87    -27.88984    2.00000
   88    -27.88972    2.00000
   89    -27.88865    2.00000
   90    -27.88763    2.00000
   91    -27.88753    2.00000
   92    -27.88689    2.00000
   93    -27.88651    2.00000
   94    -27.88562    2.00000
   95    -27.88450    2.00000
   96    -27.88256    2.00000
   97    -27.88135    2.00000
   98    -27.88046    2.00000
   99    -27.87650    2.00000
  100    -27.87588    2.00000
  101    -27.87374    2.00000
  102    -27.86807    2.00000
  103    -27.86490    2.00000
  104    -27.86213    2.00000
  105    -27.78967    2.00000
  106    -27.78071    2.00000
  107    -27.77755    2.00000
  108    -27.73660    2.00000
  109    -27.73547    2.00000
  110    -27.73474    2.00000
  111    -27.73337    2.00000
  112    -27.73294    2.00000
  113    -27.73132    2.00000
  114    -27.72986    2.00000
  115    -27.72816    2.00000
  116    -27.72656    2.00000
  117    -27.72527    2.00000
  118    -27.72449    2.00000
  119    -27.72377    2.00000
  120    -27.72281    2.00000
  121    -27.72249    2.00000
  122    -27.72225    2.00000
  123    -27.72200    2.00000
  124    -27.72170    2.00000
  125    -27.72156    2.00000
  126    -27.72122    2.00000
  127    -27.72097    2.00000
  128    -27.72037    2.00000
  129    -27.72000    2.00000
  130    -27.71970    2.00000
  131    -27.71871    2.00000
  132    -27.71788    2.00000
  133    -27.71739    2.00000
  134    -27.71715    2.00000
  135    -27.71684    2.00000
  136    -27.71659    2.00000
  137    -27.71588    2.00000
  138    -27.71566    2.00000
  139    -27.71546    2.00000
  140    -27.71540    2.00000
  141    -27.71484    2.00000
  142    -27.71427    2.00000
  143    -27.71403    2.00000
  144    -27.71378    2.00000
  145    -27.71319    2.00000
  146    -27.71304    2.00000
  147    -27.71234    2.00000
  148    -27.71219    2.00000
  149    -27.71199    2.00000
  150    -27.71154    2.00000
  151    -27.71112    2.00000
  152    -27.71067    2.00000
  153    -27.71022    2.00000
  154    -27.71000    2.00000
  155    -27.70941    2.00000
  156    -27.70923    2.00000
  157    -27.70838    2.00000
  158    -27.70804    2.00000
  159    -27.70792    2.00000
  160    -27.70784    2.00000
  161    -27.70715    2.00000
  162    -27.70688    2.00000
  163    -27.70651    2.00000
  164    -27.70625    2.00000
  165    -27.70569    2.00000
  166    -27.70549    2.00000
  167    -27.70544    2.00000
  168    -27.70472    2.00000
  169    -27.70458    2.00000
  170    -27.70427    2.00000
  171    -27.70415    2.00000
  172    -27.70379    2.00000
  173    -27.70337    2.00000
  174    -27.70272    2.00000
  175    -27.70235    2.00000
  176    -27.70216    2.00000
  177    -27.70173    2.00000
  178    -27.70123    2.00000
  179    -27.70086    2.00000
  180    -27.70073    2.00000
  181    -27.69964    2.00000
  182    -27.69927    2.00000
  183    -27.69884    2.00000
  184    -27.69860    2.00000
  185    -27.69814    2.00000
  186    -27.69797    2.00000
  187    -27.69770    2.00000
  188    -27.69734    2.00000
  189    -27.69702    2.00000
  190    -27.69669    2.00000
  191    -27.69645    2.00000
  192    -27.69612    2.00000
  193    -27.69602    2.00000
  194    -27.69571    2.00000
  195    -27.69545    2.00000
  196    -27.69504    2.00000
  197    -27.69457    2.00000
  198    -27.69450    2.00000
  199    -27.69425    2.00000
  200    -27.69328    2.00000
  201    -27.69286    2.00000
  202    -27.69252    2.00000
  203    -27.69140    2.00000
  204    -27.69120    2.00000
  205    -27.69107    2.00000
  206    -27.69046    2.00000
  207    -27.69005    2.00000
  208    -27.68988    2.00000
  209    -27.68940    2.00000
  210    -27.68910    2.00000
  211    -27.68827    2.00000
  212    -27.68747    2.00000
  213    -27.68667    2.00000
  214    -27.68553    2.00000
  215    -27.68425    2.00000
  216    -27.68341    2.00000
  217    -27.68214    2.00000
  218    -27.67879    2.00000
  219     -5.89399    2.00000
  220     -5.41218    2.00000
  221     -5.40059    2.00000
  222     -5.33635    2.00000
  223     -4.93309    2.00000
  224     -4.92749    2.00000
  225     -4.87343    2.00000
  226     -4.85381    2.00000
  227     -4.47471    1.99997
  228     -4.46225    1.99997
  229     -4.45306    1.99997
  230     -4.45099    1.99996
  231     -4.43641    1.99996
  232     -4.38766    1.99995
  233     -4.38309    1.99994
  234     -4.01501    1.99935
  235     -3.98695    1.99922
  236     -3.98227    1.99920
  237     -3.94132    1.99894
  238     -3.91721    1.99876
  239     -3.91385    1.99873
  240     -3.90809    1.99868
  241     -3.90212    1.99863
  242     -3.54396    1.98518
  243     -3.48444    1.97804
  244     -3.45013    1.97248
  245     -3.44786    1.97206
  246     -3.28634    1.92016
  247     -3.07674    1.71207
  248     -3.06841    1.69810
  249     -3.06727    1.69615
  250     -3.06613    1.69419
  251     -3.05507    1.67460
  252     -3.02642    1.61916
  253     -3.01105    1.58656
  254     -3.00371    1.57028
  255     -2.84029    1.10285
  256     -2.74056    0.77472
  257     -2.57817    0.35277
  258     -2.55741    0.31433
  259     -2.52917    0.26761
  260     -2.52841    0.26643
  261     -2.52668    0.26379
  262     -2.52235    0.25725
  263     -2.41544    0.13498
  264     -2.32113    0.07432
  265     -2.20003    0.03385
  266     -2.14437    0.02348
  267     -2.14161    0.02305
  268     -1.96275    0.00705
  269     -1.92374    0.00544
  270     -1.89773    0.00458
  271     -1.87397    0.00391
  272     -1.83980    0.00311
  273     -1.76046    0.00184
  274     -1.73586    0.00156
  275     -1.72305    0.00143
  276     -1.71473    0.00135
  277     -1.71294    0.00134
  278     -1.70919    0.00130
  279     -1.70716    0.00129
  280     -1.70321    0.00125
  281     -1.70201    0.00124
  282     -1.67571    0.00104
  283     -1.63097    0.00077
  284     -1.62876    0.00076
  285     -1.44344    0.00022
  286     -1.41495    0.00018
  287     -1.39647    0.00016
  288     -1.34665    0.00012
  289     -1.33116    0.00011
  290     -1.27914    0.00007
  291     -1.10481    0.00002
  292     -1.04269    0.00002
  293     -1.04144    0.00002
  294     -1.03041    0.00001
  295     -1.01941    0.00001
  296     -1.00610    0.00001
  297     -1.00275    0.00001
  298     -0.88375    0.00001
  299     -0.84830    0.00000
  300     -0.83685    0.00000
  301     -0.81726    0.00000
  302     -0.79565    0.00000
  303     -0.76236    0.00000
  304     -0.76068    0.00000
  305     -0.59689    0.00000
  306     -0.59082    0.00000
  307     -0.55384    0.00000
  308     -0.52315    0.00000
  309     -0.51904    0.00000
  310     -0.50568    0.00000

Fermi level: -2.80933

Gap: 0.100 eV
Transition (v -> c):
  (s=0, k=0, n=255, [0.00, 0.00, 0.00]) -> (s=0, k=0, n=256, [0.00, 0.00, 0.00])
No difference between direct/indirect transitions

Forces in eV/Ang:
  0 Na   -0.00069    0.00251   -0.00500
  1 Na    0.00023   -0.00156   -0.00732
  2 Na    0.00471   -0.00417   -0.00932
  3 Na    0.00301    0.00065    0.00073
  4 Na    0.01051    0.00712    0.00345
  5 Na   -0.01494   -0.00877    0.00837
  6 Na    0.02376   -0.01320    0.03656
  7 Na   -0.06797    0.05248   -0.08719
  8 Na   -0.00176   -0.00672   -0.00164
  9 Na    0.00892   -0.00691    0.00413
 10 Na    0.00397    0.01459   -0.01894
 11 Na    0.00430   -0.00127    0.01241
 12 Na   -0.00453   -0.01341    0.00598
 13 Na    0.01028   -0.00492    0.01270
 14 Na   -0.00853   -0.01881    0.02408
 15 Na    0.00801   -0.00360    0.00152
 16 Na   -0.00586    0.00445    0.00658
 17 Na    0.00417    0.00833    0.00014
 18 Na    0.00199   -0.00995   -0.00391
 19 Na    0.00423   -0.00003    0.00493
 20 Na   -0.00630    0.00425    0.01380
 21 Na    0.00956    0.01336    0.01586
 22 Na   -0.00806   -0.00494   -0.00258
 23 Na    0.00258    0.02064    0.02224
 24 Na   -0.00073   -0.00071   -0.00524
 25 Na    0.00083    0.00166   -0.00519
 26 Na   -0.00116   -0.00113    0.00581
 27 Na    0.00208   -0.00092    0.00594
 28 Na   -0.01178   -0.00015    0.00944
 29 Na    0.00197    0.00018   -0.00002
 30 Na   -0.00250   -0.00091   -0.00140
 31 Na   -0.00068    0.00356    0.00107
 32 Na    0.00288    0.00188   -0.00631
 33 Na    0.00504    0.00491   -0.01645
 34 Na    0.00033    0.00291    0.00618
 35 Na   -0.00285    0.00026    0.00916
 36 Na    0.00573    0.00044    0.00615
 37 Na   -0.00022    0.00040   -0.00309
 38 Na   -0.00522   -0.00193    0.00081
 39 Na   -0.00787   -0.00398    0.00046
 40 Na    0.00968   -0.00116   -0.00499
 41 Na    0.00356   -0.00654   -0.01221
 42 Na    0.00166   -0.00170    0.00816
 43 Na   -0.00122    0.00060    0.00754
 44 Na    0.00682   -0.00073    0.00461
 45 Na    0.00162   -0.00068   -0.00234
 46 Na   -0.00591    0.00244    0.00030
 47 Na    0.00549    0.00021   -0.00823
 48 Na   -0.00051   -0.00318   -0.00542
 49 Na    0.00062   -0.00100   -0.00681
 50 Na   -0.00635   -0.00337   -0.00234
 51 Na   -0.00226    0.00128   -0.00881
 52 Na   -0.00203    0.00004   -0.00019
 53 Na    0.01642    0.00143    0.00882
 54 Na    0.01090    0.00551    0.01696
 55 Na    0.00366   -0.00005   -0.00263
 56 Na   -0.00382    0.00616   -0.00837
 57 Na   -0.00942   -0.00187   -0.00090
 58 Na   -0.00588    0.00333   -0.00058
 59 Na   -0.00059    0.01765   -0.02113
 60 Na   -0.00297    0.00026   -0.00205
 61 Na   -0.00974   -0.00043    0.01082
 62 Na   -0.00223   -0.00582    0.00177
 63 Na    0.00903   -0.00466    0.00085
 64 Na   -0.00884   -0.00298   -0.01498
 65 Na   -0.00426    0.00276   -0.00431
 66 Na   -0.00471    0.00032    0.01353
 67 Na   -0.00163   -0.01905   -0.02963
 68 Na   -0.00020   -0.00031   -0.00269
 69 Na   -0.00852   -0.00007    0.01018
 70 Na    0.00879    0.00128    0.00166
 71 Na    0.00821    0.00517    0.00077
 72 Na    0.03092   -0.03191    0.01215

System changes: positions 

Initializing position-dependent things.

Density initialized from wave functions
         .-------------------------------------------.  
        /|                                           |  
       / |                                           |  
      /  |                                           |  
     /   |                                           |  
    /    |                                           |  
   /     |                                           |  
  /      |                                           |  
 *       |                                           |  
 |       |                                           |  
 |       |                                           |  
 |       |                                           |  
 |       |                                           |  
 |       |                                           |  
 |      Na            Na             Na              |  
 |       |    Na            Na             Na        |  
 |  Naa  |          Na            Na                 Na 
 |       |                    Na            Na       |  
 |       | Na  Na         Na            Na           |  
 |       |       Na  Na         Na  Na            Na |  
 |Na     |  Na         Na  Na         Na  Na         |  
 |      Na        Na  Na         Na  Na              |  
 |       |                                      Na   |  
 |       |Na  Na        Na  Na         Na  Na        |  
 |   Na  |      Na  Na        Na  Na                 |  
 |       | Na  Na         Na  Na        Na  Na       |  
 |    Na |           Na             Na               |  
 |Na     |       Na             Na                   |  
 |      Na  Na         Na  Na         Na  Na         |  
 |  Na   |        Na             Na                  |  
 |       |Na            Na             Na            |  
 |       |                                           |  
 Na      |      Na            Na                     |  
 |       |                                           |  
 |       |                                           |  
 |       |                                           |  
 |       .-------------------------------------------.  
 |      /                                           /   
 |     /                                           /    
 |    /                                           /     
 |   /                                           /      
 |  /                                           /       
 | /                                           /        
 |/                                           /         
 *-------------------------------------------*          

Atomic positions and initial magnetic moments

Positions:
   0 Na     0.000000    0.000000   10.000000    ( 0.0000,  0.0000,  0.0000)
   1 Na     2.991062    2.115000   10.000000    ( 0.0000,  0.0000,  0.0000)
   2 Na     2.991062    0.000000   12.991062    ( 0.0000,  0.0000,  0.0000)
   3 Na     5.982123    2.115000   12.991062    ( 0.0000,  0.0000,  0.0000)
   4 Na    -0.006219   -0.080583   15.854666    ( 0.0000,  0.0000,  0.0000)
   5 Na     3.001597    2.158936   15.894470    ( 0.0000,  0.0000,  0.0000)
   6 Na     2.962245    0.028923   18.830157    ( 0.0000,  0.0000,  0.0000)
   7 Na     0.012684    2.100950   18.608469    ( 0.0000,  0.0000,  0.0000)
   8 Na     0.000000    4.230000   10.000000    ( 0.0000,  0.0000,  0.0000)
   9 Na     2.991062    6.345000   10.000000    ( 0.0000,  0.0000,  0.0000)
  10 Na     2.991062    4.230000   12.991062    ( 0.0000,  0.0000,  0.0000)
  11 Na     5.982123    6.345000   12.991062    ( 0.0000,  0.0000,  0.0000)
  12 Na    -0.002419    4.309211   15.866804    ( 0.0000,  0.0000,  0.0000)
  13 Na     2.996624    6.341337   15.974474    ( 0.0000,  0.0000,  0.0000)
  14 Na     2.959829    4.185086   19.040908    ( 0.0000,  0.0000,  0.0000)
  15 Na     0.000318    6.314440   19.012543    ( 0.0000,  0.0000,  0.0000)
  16 Na     0.000000    8.460000   10.000000    ( 0.0000,  0.0000,  0.0000)
  17 Na     2.991062   10.575000   10.000000    ( 0.0000,  0.0000,  0.0000)
  18 Na     2.991062    8.460000   12.991062    ( 0.0000,  0.0000,  0.0000)
  19 Na     5.982123   10.575000   12.991062    ( 0.0000,  0.0000,  0.0000)
  20 Na    -0.002517    8.460384   15.975996    ( 0.0000,  0.0000,  0.0000)
  21 Na     2.996187   10.534821   15.914717    ( 0.0000,  0.0000,  0.0000)
  22 Na     2.990421    8.474385   18.999400    ( 0.0000,  0.0000,  0.0000)
  23 Na     0.017016   10.622866   19.036510    ( 0.0000,  0.0000,  0.0000)
  24 Na     5.982123    0.000000   10.000000    ( 0.0000,  0.0000,  0.0000)
  25 Na     8.973185    2.115000   10.000000    ( 0.0000,  0.0000,  0.0000)
  26 Na     8.973185    0.000000   12.991062    ( 0.0000,  0.0000,  0.0000)
  27 Na    11.964247    2.115000   12.991062    ( 0.0000,  0.0000,  0.0000)
  28 Na     5.987601    0.000698   15.962073    ( 0.0000,  0.0000,  0.0000)
  29 Na     8.973194    2.112818   15.972460    ( 0.0000,  0.0000,  0.0000)
  30 Na     8.973085    0.000411   18.977100    ( 0.0000,  0.0000,  0.0000)
  31 Na     5.965471    2.098197   19.001657    ( 0.0000,  0.0000,  0.0000)
  32 Na     5.982123    4.230000   10.000000    ( 0.0000,  0.0000,  0.0000)
  33 Na     8.973185    6.345000   10.000000    ( 0.0000,  0.0000,  0.0000)
  34 Na     8.973185    4.230000   12.991062    ( 0.0000,  0.0000,  0.0000)
  35 Na    11.964247    6.345000   12.991062    ( 0.0000,  0.0000,  0.0000)
  36 Na     5.984397    4.229023   15.973996    ( 0.0000,  0.0000,  0.0000)
  37 Na     8.972978    6.346221   15.963325    ( 0.0000,  0.0000,  0.0000)
  38 Na     8.972333    4.229274   18.978257    ( 0.0000,  0.0000,  0.0000)
  39 Na     5.979520    6.342597   18.978868    ( 0.0000,  0.0000,  0.0000)
  40 Na     5.982123    8.460000   10.000000    ( 0.0000,  0.0000,  0.0000)
  41 Na     8.973185   10.575000   10.000000    ( 0.0000,  0.0000,  0.0000)
  42 Na     8.973185    8.460000   12.991062    ( 0.0000,  0.0000,  0.0000)
  43 Na    11.964247   10.575000   12.991062    ( 0.0000,  0.0000,  0.0000)
  44 Na     5.984204    8.460250   15.968347    ( 0.0000,  0.0000,  0.0000)
  45 Na     8.973163   10.575966   15.967280    ( 0.0000,  0.0000,  0.0000)
  46 Na     8.972274    8.460282   18.977615    ( 0.0000,  0.0000,  0.0000)
  47 Na     5.964593   10.594228   19.000696    ( 0.0000,  0.0000,  0.0000)
  48 Na    11.964247    0.000000   10.000000    ( 0.0000,  0.0000,  0.0000)
  49 Na    14.955308    2.115000   10.000000    ( 0.0000,  0.0000,  0.0000)
  50 Na    14.955308    0.000000   12.991062    ( 0.0000,  0.0000,  0.0000)
  51 Na    17.946370    2.115000   12.991062    ( 0.0000,  0.0000,  0.0000)
  52 Na    11.964687    0.000725   15.972105    ( 0.0000,  0.0000,  0.0000)
  53 Na    14.945005    2.113184   15.954859    ( 0.0000,  0.0000,  0.0000)
  54 Na    14.986131    0.030081   19.022248    ( 0.0000,  0.0000,  0.0000)
  55 Na    11.964410    2.113654   18.977931    ( 0.0000,  0.0000,  0.0000)
  56 Na    11.964247    4.230000   10.000000    ( 0.0000,  0.0000,  0.0000)
  57 Na    14.955308    6.345000   10.000000    ( 0.0000,  0.0000,  0.0000)
  58 Na    14.955308    4.230000   12.991062    ( 0.0000,  0.0000,  0.0000)
  59 Na    17.946370    6.345000   12.991062    ( 0.0000,  0.0000,  0.0000)
  60 Na    11.964278    4.231523   15.970578    ( 0.0000,  0.0000,  0.0000)
  61 Na    14.949982    6.341586   15.970395    ( 0.0000,  0.0000,  0.0000)
  62 Na    14.986544    4.200564   19.021277    ( 0.0000,  0.0000,  0.0000)
  63 Na    11.967150    6.342533   18.976726    ( 0.0000,  0.0000,  0.0000)
  64 Na    11.964247    8.460000   10.000000    ( 0.0000,  0.0000,  0.0000)
  65 Na    14.955308   10.575000   10.000000    ( 0.0000,  0.0000,  0.0000)
  66 Na    14.955308    8.460000   12.991062    ( 0.0000,  0.0000,  0.0000)
  67 Na    17.946370   10.575000   12.991062    ( 0.0000,  0.0000,  0.0000)
  68 Na    11.964688    8.457749   15.964962    ( 0.0000,  0.0000,  0.0000)
  69 Na    14.950392   10.580389   15.974725    ( 0.0000,  0.0000,  0.0000)
  70 Na    14.956644    8.460052   18.981396    ( 0.0000,  0.0000,  0.0000)
  71 Na    11.965946   10.578866   18.977751    ( 0.0000,  0.0000,  0.0000)
  72 Na     0.998500    1.408168   21.576029    ( 0.0000,  0.0000,  0.0000)

Unit cell:
           periodic     x           y           z      points  spacing
  1. axis:    yes   17.946370    0.000000    0.000000    88     0.2039
  2. axis:    yes    0.000000   12.690000    0.000000    64     0.1983
  3. axis:    no     0.000000    0.000000   28.973185   144     0.2012

  Lengths:  17.946370  12.690000  28.973185
  Angles:   90.000000  90.000000  90.000000

Effective grid spacing dv^(1/3) = 0.2011

     iter     time        total  log10-change:
                         energy   eigst   dens
iter:   1 13:55:07   -87.786409        c
[...]
  61 Na    14.948556    6.341536   15.972189    ( 0.0000,  0.0000,  0.0000)
  62 Na    14.986191    4.199751   19.021457    ( 0.0000,  0.0000,  0.0000)
  63 Na    11.968527    6.341842   18.976605    ( 0.0000,  0.0000,  0.0000)
  64 Na    11.964247    8.460000   10.000000    ( 0.0000,  0.0000,  0.0000)
  65 Na    14.955308   10.575000   10.000000    ( 0.0000,  0.0000,  0.0000)
  66 Na    14.955308    8.460000   12.991062    ( 0.0000,  0.0000,  0.0000)
  67 Na    17.946370   10.575000   12.991062    ( 0.0000,  0.0000,  0.0000)
  68 Na    11.964708    8.457689   15.964789    ( 0.0000,  0.0000,  0.0000)
  69 Na    14.949085   10.580305   15.976345    ( 0.0000,  0.0000,  0.0000)
  70 Na    14.957958    8.460176   18.981407    ( 0.0000,  0.0000,  0.0000)
  71 Na    11.967151   10.579620   18.977642    ( 0.0000,  0.0000,  0.0000)
  72 Na     1.000957    1.404905   21.577469    ( 0.0000,  0.0000,  0.0000)

Unit cell:
           periodic     x           y           z      points  spacing
  1. axis:    yes   17.946370    0.000000    0.000000    88     0.2039
  2. axis:    yes    0.000000   12.690000    0.000000    64     0.1983
  3. axis:    no     0.000000    0.000000   28.973185   144     0.2012

  Lengths:  17.946370  12.690000  28.973185
  Angles:   90.000000  90.000000  90.000000

Effective grid spacing dv^(1/3) = 0.2011

     iter     time        total  log10-change:
                         energy   eigst   dens
iter:   1 15:18:13   -87.789142        c
iter:   2 15:19:10   -87.788706        c -3.55
iter:   3 15:20:04   -87.788704c       c -3.87
iter:   4 15:21:01   -87.788727c       c -4.06c

Converged after 4 iterations.

Dipole moment: (-25.374491, -14.437906, 0.310944) |e|*Ang

Energy contributions relative to reference atoms: (reference = -322558.566329)

Kinetic:       +143.819897
Potential:     -130.945345
External:        +0.000000
XC:             -99.596291
Entropy (-ST):   -2.608977
Local:           +0.237500
SIC:             +0.000000
--------------------------
Free energy:    -89.093216
Extrapolated:   -87.788727

 Band  Eigenvalues  Occupancy
    0    -28.50020    2.00000
    1    -28.48619    2.00000
    2    -28.47920    2.00000
    3    -27.94561    2.00000
    4    -27.93984    2.00000
    5    -27.93648    2.00000
    6    -27.93642    2.00000
    7    -27.93572    2.00000
    8    -27.93430    2.00000
    9    -27.93132    2.00000
   10    -27.93083    2.00000
   11    -27.92956    2.00000
   12    -27.92701    2.00000
   13    -27.92568    2.00000
   14    -27.92391    2.00000
   15    -27.92374    2.00000
   16    -27.92352    2.00000
   17    -27.92214    2.00000
   18    -27.92162    2.00000
   19    -27.92106    2.00000
   20    -27.91910    2.00000
   21    -27.91821    2.00000
   22    -27.91778    2.00000
   23    -27.91756    2.00000
   24    -27.91676    2.00000
   25    -27.91592    2.00000
   26    -27.91520    2.00000
   27    -27.91502    2.00000
   28    -27.91489    2.00000
   29    -27.91475    2.00000
   30    -27.91399    2.00000
   31    -27.91369    2.00000
   32    -27.91367    2.00000
   33    -27.91289    2.00000
   34    -27.91282    2.00000
   35    -27.91210    2.00000
   36    -27.91196    2.00000
   37    -27.91182    2.00000
   38    -27.91118    2.00000
   39    -27.91105    2.00000
   40    -27.91079    2.00000
   41    -27.91076    2.00000
   42    -27.91045    2.00000
   43    -27.91029    2.00000
   44    -27.90947    2.00000
   45    -27.90944    2.00000
   46    -27.90907    2.00000
   47    -27.90898    2.00000
   48    -27.90894    2.00000
   49    -27.90877    2.00000
   50    -27.90794    2.00000
   51    -27.90791    2.00000
   52    -27.90716    2.00000
   53    -27.90708    2.00000
   54    -27.90656    2.00000
   55    -27.90568    2.00000
   56    -27.90535    2.00000
   57    -27.90520    2.00000
   58    -27.90432    2.00000
   59    -27.90332    2.00000
   60    -27.90288    2.00000
   61    -27.90248    2.00000
   62    -27.90229    2.00000
   63    -27.90181    2.00000
   64    -27.90126    2.00000
   65    -27.90094    2.00000
   66    -27.90031    2.00000
   67    -27.89970    2.00000
   68    -27.89861    2.00000
   69    -27.89835    2.00000
   70    -27.89827    2.00000
   71    -27.89698    2.00000
   72    -27.89676    2.00000
   73    -27.89634    2.00000
   74    -27.89577    2.00000
   75    -27.89480    2.00000
   76    -27.89472    2.00000
   77    -27.89375    2.00000
   78    -27.89357    2.00000
   79    -27.89317    2.00000
   80    -27.89266    2.00000
   81    -27.89205    2.00000
   82    -27.89172    2.00000
   83    -27.89155    2.00000
   84    -27.89133    2.00000
   85    -27.89056    2.00000
   86    -27.89050    2.00000
   87    -27.89006    2.00000
   88    -27.88929    2.00000
   89    -27.88893    2.00000
   90    -27.88778    2.00000
   91    -27.88709    2.00000
   92    -27.88658    2.00000
   93    -27.88624    2.00000
   94    -27.88564    2.00000
   95    -27.88446    2.00000
   96    -27.88288    2.00000
   97    -27.88153    2.00000
   98    -27.88056    2.00000
   99    -27.87668    2.00000
  100    -27.87617    2.00000
  101    -27.87383    2.00000
  102    -27.86813    2.00000
  103    -27.86497    2.00000
  104    -27.86223    2.00000
  105    -27.78998    2.00000
  106    -27.78116    2.00000
  107    -27.77775    2.00000
  108    -27.73737    2.00000
  109    -27.73599    2.00000
  110    -27.73467    2.00000
  111    -27.73367    2.00000
  112    -27.73323    2.00000
  113    -27.73189    2.00000
  114    -27.73033    2.00000
  115    -27.72877    2.00000
  116    -27.72720    2.00000
  117    -27.72592    2.00000
  118    -27.72494    2.00000
  119    -27.72432    2.00000
  120    -27.72326    2.00000
  121    -27.72277    2.00000
  122    -27.72250    2.00000
  123    -27.72218    2.00000
  124    -27.72178    2.00000
  125    -27.72151    2.00000
  126    -27.72132    2.00000
  127    -27.72063    2.00000
  128    -27.72035    2.00000
  129    -27.72016    2.00000
  130    -27.71986    2.00000
  131    -27.71906    2.00000
  132    -27.71809    2.00000
  133    -27.71763    2.00000
  134    -27.71737    2.00000
  135    -27.71720    2.00000
  136    -27.71695    2.00000
  137    -27.71643    2.00000
  138    -27.71596    2.00000
  139    -27.71578    2.00000
  140    -27.71561    2.00000
  141    -27.71522    2.00000
  142    -27.71447    2.00000
  143    -27.71432    2.00000
  144    -27.71396    2.00000
  145    -27.71343    2.00000
  146    -27.71328    2.00000
  147    -27.71277    2.00000
  148    -27.71229    2.00000
  149    -27.71222    2.00000
  150    -27.71171    2.00000
  151    -27.71130    2.00000
  152    -27.71090    2.00000
  153    -27.71038    2.00000
  154    -27.71020    2.00000
  155    -27.70965    2.00000
  156    -27.70955    2.00000
  157    -27.70875    2.00000
  158    -27.70833    2.00000
  159    -27.70812    2.00000
  160    -27.70799    2.00000
  161    -27.70765    2.00000
  162    -27.70714    2.00000
  163    -27.70683    2.00000
  164    -27.70652    2.00000
  165    -27.70590    2.00000
  166    -27.70583    2.00000
  167    -27.70557    2.00000
  168    -27.70493    2.00000
  169    -27.70474    2.00000
  170    -27.70456    2.00000
  171    -27.70434    2.00000
  172    -27.70394    2.00000
  173    -27.70355    2.00000
  174    -27.70297    2.00000
  175    -27.70247    2.00000
  176    -27.70222    2.00000
  177    -27.70182    2.00000
  178    -27.70134    2.00000
  179    -27.70099    2.00000
  180    -27.70094    2.00000
  181    -27.69985    2.00000
  182    -27.69940    2.00000
  183    -27.69896    2.00000
  184    -27.69877    2.00000
  185    -27.69823    2.00000
  186    -27.69813    2.00000
  187    -27.69769    2.00000
  188    -27.69747    2.00000
  189    -27.69716    2.00000
  190    -27.69683    2.00000
  191    -27.69646    2.00000
  192    -27.69615    2.00000
  193    -27.69604    2.00000
  194    -27.69568    2.00000
  195    -27.69540    2.00000
  196    -27.69511    2.00000
  197    -27.69470    2.00000
  198    -27.69467    2.00000
  199    -27.69452    2.00000
  200    -27.69358    2.00000
  201    -27.69281    2.00000
  202    -27.69244    2.00000
  203    -27.69171    2.00000
  204    -27.69083    2.00000
  205    -27.69080    2.00000
  206    -27.69035    2.00000
  207    -27.68976    2.00000
  208    -27.68968    2.00000
  209    -27.68900    2.00000
  210    -27.68874    2.00000
  211    -27.68866    2.00000
  212    -27.68692    2.00000
  213    -27.68618    2.00000
  214    -27.68615    2.00000
  215    -27.68430    2.00000
  216    -27.68351    2.00000
  217    -27.68230    2.00000
  218    -27.67896    2.00000
  219     -5.89385    2.00000
  220     -5.41203    2.00000
  221     -5.40046    2.00000
  222     -5.33646    2.00000
  223     -4.93290    2.00000
  224     -4.92738    2.00000
  225     -4.87306    2.00000
  226     -4.85427    2.00000
  227     -4.47374    1.99997
  228     -4.46197    1.99997
  229     -4.45317    1.99997
  230     -4.45085    1.99996
  231     -4.43636    1.99996
  232     -4.38759    1.99995
  233     -4.38340    1.99994
  234     -4.01403    1.99935
  235     -3.98698    1.99922
  236     -3.98191    1.99920
  237     -3.94136    1.99895
  238     -3.91699    1.99876
  239     -3.91382    1.99873
  240     -3.90859    1.99869
  241     -3.90254    1.99863
  242     -3.54297    1.98509
  243     -3.48434    1.97804
  244     -3.45041    1.97254
  245     -3.44813    1.97212
  246     -3.28633    1.92019
  247     -3.07651    1.71181
  248     -3.06827    1.69798
  249     -3.06721    1.69618
  250     -3.06595    1.69400
  251     -3.05446    1.67362
  252     -3.02611    1.61868
  253     -3.01099    1.58658
  254     -3.00382    1.57070
  255     -2.84015    1.10261
  256     -2.74083    0.77578
  257     -2.57794    0.35245
  258     -2.55721    0.31411
  259     -2.52905    0.26753
  260     -2.52836    0.26647
  261     -2.52680    0.26408
  262     -2.52285    0.25809
  263     -2.41538    0.13498
  264     -2.32135    0.07446
  265     -2.20002    0.03386
  266     -2.14423    0.02347
  267     -2.14148    0.02305
  268     -1.96246    0.00704
  269     -1.92355    0.00544
  270     -1.89760    0.00458
  271     -1.87436    0.00392
  272     -1.84015    0.00312
  273     -1.76053    0.00184
  274     -1.73517    0.00155
  275     -1.72267    0.00143
  276     -1.71448    0.00135
  277     -1.71282    0.00134
  278     -1.70900    0.00130
  279     -1.70702    0.00129
  280     -1.70347    0.00126
  281     -1.70219    0.00125
  282     -1.67592    0.00105
  283     -1.63107    0.00078
  284     -1.62902    0.00077
  285     -1.44331    0.00022
  286     -1.41485    0.00018
  287     -1.39687    0.00016
  288     -1.34652    0.00012
  289     -1.33134    0.00011
  290     -1.27969    0.00007
  291     -1.10509    0.00002
  292     -1.04238    0.00002
  293     -1.04138    0.00002
  294     -1.03013    0.00001
  295     -1.01929    0.00001
  296     -1.00671    0.00001
  297     -1.00292    0.00001
  298     -0.88361    0.00001
  299     -0.84836    0.00000
  300     -0.83699    0.00000
  301     -0.81731    0.00000
  302     -0.79575    0.00000
  303     -0.76244    0.00000
  304     -0.76077    0.00000
  305     -0.59675    0.00000
  306     -0.59065    0.00000
  307     -0.55355    0.00000
  308     -0.52372    0.00000
  309     -0.51899    0.00000
  310     -0.50589    0.00000

Fermi level: -2.80926

Gap: 0.099 eV
Transition (v -> c):
  (s=0, k=0, n=255, [0.00, 0.00, 0.00]) -> (s=0, k=0, n=256, [0.00, 0.00, 0.00])
No difference between direct/indirect transitions

Forces in eV/Ang:
  0 Na   -0.00070    0.00243   -0.00494
  1 Na    0.00019   -0.00144   -0.00716
  2 Na    0.00492   -0.00427   -0.00892
  3 Na    0.00295    0.00058    0.00136
  4 Na    0.00986    0.00339    0.00198
  5 Na   -0.01280   -0.00794    0.00877
  6 Na    0.01855   -0.00944    0.03402
  7 Na   -0.05458    0.04213   -0.06447
  8 Na   -0.00192   -0.00639   -0.00157
  9 Na    0.00900   -0.00673    0.00441
 10 Na    0.00418    0.01437   -0.01806
 11 Na    0.00470   -0.00130    0.01210
 12 Na   -0.00314   -0.00716    0.00043
 13 Na    0.00883   -0.00563    0.01229
 14 Na   -0.00835   -0.01906    0.02294
 15 Na    0.00716   -0.00314    0.00150
 16 Na   -0.00592    0.00420    0.00652
 17 Na    0.00435    0.00802    0.00033
 18 Na    0.00220   -0.00956   -0.00287
 19 Na    0.00450    0.00000    0.00490
 20 Na   -0.00499    0.00476    0.01357
 21 Na    0.00826    0.01172    0.01459
 22 Na   -0.00781   -0.00407   -0.00182
 23 Na    0.00298    0.01944    0.02098
 24 Na   -0.00072   -0.00098   -0.00460
 25 Na    0.00104    0.00168   -0.00416
 26 Na   -0.00105   -0.00126    0.00517
 27 Na    0.00197   -0.00081    0.00551
 28 Na   -0.01030    0.00108    0.00800
 29 Na    0.00131    0.00003    0.00012
 30 Na   -0.00158   -0.00049   -0.00085
 31 Na   -0.00007    0.00386    0.00155
 32 Na    0.00282    0.00222   -0.00563
 33 Na    0.00506    0.00503   -0.01504
 34 Na    0.00057    0.00315    0.00551
 35 Na   -0.00328    0.00030    0.00827
 36 Na    0.00468   -0.00056    0.00547
 37 Na    0.00020    0.00012   -0.00269
 38 Na   -0.00422   -0.00144    0.00116
 39 Na   -0.00780   -0.00438    0.00099
 40 Na    0.00956   -0.00122   -0.00411
 41 Na    0.00351   -0.00668   -0.01088
 42 Na    0.00193   -0.00181    0.00718
 43 Na   -0.00159    0.00040    0.00704
 44 Na    0.00606   -0.00085    0.00390
 45 Na    0.00163   -0.00025   -0.00230
 46 Na   -0.00412    0.00163    0.00077
 47 Na    0.00525   -0.00059   -0.00702
 48 Na   -0.00058   -0.00313   -0.00444
 49 Na    0.00051   -0.00071   -0.00644
 50 Na   -0.00663   -0.00337   -0.00192
 51 Na   -0.00213    0.00123   -0.00852
 52 Na   -0.00137    0.00049   -0.00024
 53 Na    0.01284    0.00033    0.00705
 54 Na    0.00878    0.00431    0.01693
 55 Na    0.00285   -0.00025   -0.00218
 56 Na   -0.00366    0.00634   -0.00727
 57 Na   -0.00946   -0.00189   -0.00042
 58 Na   -0.00634    0.00345   -0.00069
 59 Na   -0.00052    0.01752   -0.02079
 60 Na   -0.00285   -0.00026   -0.00201
 61 Na   -0.00878   -0.00070    0.01007
 62 Na   -0.00476   -0.00321    0.00296
 63 Na    0.00761   -0.00385    0.00126
 64 Na   -0.00870   -0.00320   -0.01370
 65 Na   -0.00433    0.00247   -0.00392
 66 Na   -0.00525    0.00032    0.01354
 67 Na   -0.00152   -0.01895   -0.02911
 68 Na   -0.00060   -0.00017   -0.00212
 69 Na   -0.00744    0.00080    0.00999
 70 Na    0.00846    0.00173    0.00248
 71 Na    0.00781    0.00455    0.00119
 72 Na    0.02605   -0.02904   -0.00256

Timing:                                       incl.     excl.
--------------------------------------------------------------------
Basic WFS set positions:                      0.282     0.036   0.0% |
 Redistribute:                                0.246     0.246   0.0% |
Basis functions set positions:               12.477    12.477   0.1% |
Forces:                                     952.384     8.832   0.1% |
 LCAO forces:                               943.552     0.882   0.0% |
  Atomic Hamiltonian force:                   5.948     5.948   0.0% |
  Initial:                                    0.213     0.000   0.0% |
   Get density matrix:                        0.213     0.213   0.0% |
  Paw correction:                             7.526     7.526   0.0% |
  Potential:                                904.772   904.772   5.6% |-|
  TCI derivative:                            24.207    24.207   0.1% |
  Wait for sum:                               0.003     0.003   0.0% |
LCAO WFS Initialize:                        226.990     0.577   0.0% |
 Density initialized from wave functions:   195.025    22.038   0.1% |
  Calculate density matrix:                   2.450     2.450   0.0% |
  Construct density:                        170.532   170.532   1.1% |
  Symmetrize density:                         0.005     0.005   0.0% |
 Hamiltonian:                                31.388     0.014   0.0% |
  Atomic:                                     6.389     0.078   0.0% |
   XC Correction:                             6.311     6.311   0.0% |
  Calculate atomic Hamiltonians:              0.762     0.762   0.0% |
  Communicate:                                0.001     0.001   0.0% |
  Hartree integrate/restrict:                 1.384     1.384   0.0% |
  Initialize Hamiltonian:                     0.000     0.000   0.0% |
  Poisson:                                   13.465     9.439   0.1% |
   Communicate from 1D:                       0.457     0.457   0.0% |
   Communicate from 2D:                       0.377     0.377   0.0% |
   Communicate to 1D:                         0.276     0.276   0.0% |
   Communicate to 2D:                         0.826     0.826   0.0% |
   FFT 1D:                                    0.903     0.903   0.0% |
   FFT 2D:                                    1.187     1.187   0.0% |
  XC 3D grid:                                 6.961     6.961   0.0% |
  vbar:                                       2.412     2.412   0.0% |
P tci:                                       13.122    13.122   0.1% |
Redistribute:                                 0.010     0.010   0.0% |
SCF-cycle:                                 1696.922     0.125   0.0% |
 Density:                                   666.660     0.003   0.0% |
  Atomic density matrices:                    0.189     0.189   0.0% |
  Mix:                                        8.139     8.139   0.1% |
  Multipole moments:                          0.036     0.036   0.0% |
  Normalize:                                  0.014     0.014   0.0% |
  Pseudo density:                           658.279     0.340   0.0% |
   Calculate density matrix:                  0.625     0.625   0.0% |
   Construct density:                       657.306   657.306   4.1% |-|
   Symmetrize density:                        0.009     0.009   0.0% |
 Hamiltonian:                                74.005     0.005   0.0% |
  Atomic:                                    26.191     0.115   0.0% |
   XC Correction:                            26.076    26.076   0.2% |
  Calculate atomic Hamiltonians:              1.464     1.464   0.0% |
  Communicate:                                0.000     0.000   0.0% |
  Hartree integrate/restrict:                 0.694     0.694   0.0% |
  Poisson:                                   18.340     2.146   0.0% |
   Communicate from 1D:                       1.608     1.608   0.0% |
   Communicate from 2D:                       1.449     1.449   0.0% |
   Communicate to 1D:                         1.060     1.060   0.0% |
   Communicate to 2D:                         2.832     2.832   0.0% |
   FFT 1D:                                    3.412     3.412   0.0% |
   FFT 2D:                                    5.833     5.833   0.0% |
  XC 3D grid:                                25.999    25.999   0.2% |
  vbar:                                       1.312     1.312   0.0% |
 LCAO eigensolver:                          956.131     0.333   0.0% |
  Calculate projections:                      0.454     0.454   0.0% |
  DenseAtomicCorrection:                      6.456     6.456   0.0% |
  Distribute overlap matrix:                  0.007     0.007   0.0% |
  Orbital Layouts:                           14.666    14.666   0.1% |
  Potential matrix:                         934.215   934.215   5.8% |-|
ST tci:                                       9.979     9.979   0.1% |
Set symmetry:                                 0.001     0.001   0.0% |
TCI: Evaluate splines:                        0.039     0.039   0.0% |
mktci:                                        1.490     1.490   0.0% |
Other:                                    13255.977 13255.977  82.0% |--------------------------------|
--------------------------------------------------------------------
Total:                                              16169.673 100.0%

Memory usage: 3.67 GiB
Date: Wed Nov 26 15:55:26 2025
