
  ___ ___ ___ _ _ _  
 |   |   |_  | | | | 
 | | | | | . | | | | 
 |__ |  _|___|_____|  25.7.0
 |___|_|             

User:   tew@Mathuss-MacBook-Air-357.local
Date:   Wed Nov 26 11:25:56 2025
Arch:   arm64
Pid:    88448
CWD:    /Users/tew/Documents/Project/GitHub/chem-com
Python: 3.13.5
gpaw:   /Users/tew/Documents/Project/GitHub/chem-com/.venv/lib/python3.13/site-packages/gpaw
_gpaw:  /Users/tew/Documents/Project/GitHub/chem-com/.venv/lib/python3.13/site-packages/
        _gpaw.cpython-313-darwin.so
ase:    /Users/tew/Documents/Project/GitHub/chem-com/.venv/lib/python3.13/site-packages/ase (version 3.26.0)
numpy:  /Users/tew/Documents/Project/GitHub/chem-com/.venv/lib/python3.13/site-packages/numpy (version 2.3.5)
scipy:  /Users/tew/Documents/Project/GitHub/chem-com/.venv/lib/python3.13/site-packages/scipy (version 1.16.3)
libxc:  2.x.y
units:  Angstrom and eV
cores: 1
OpenMP: False
OMP_NUM_THREADS: 1

Input parameters:
  basis: dzp
  convergence: {density: 0.0001,
                eigenstates: 5e-06}
  kpts: [1 1 1]
  mode: {interpolation: 3,
         name: lcao}
  occupations: {fixmagmom: False,
                name: fermi-dirac,
                width: 0.15}
  xc: PBE

System changes: positions, numbers, cell, pbc, initial_charges, initial_magmoms 

Initialize ...

species:
  Na:
    name: Sodium
    id: d7ecbc49209718622bcbe287195dca2a
    Z: 11.0
    valence: 7
    core: 4
    charge: 0.0
    file: /Users/tew/Documents/Project/GitHub/chem-com/.venv/lib/python3.13/site-packages/gpaw_data/setups/Na.PBE.gz
    compensation charges: {type: gauss,
                           rc: 0.37,
                           lmax: 2}
    cutoffs: {filter: 2.17,
              core: 2.59}
    projectors:
      #              energy  rcut
      - 3s(1.00)    -2.744   1.201
      - 2p(6.00)   -28.672   1.217
      - 3p(0.00)    -0.743   1.217
      -  s          24.468   1.201
      -  d           0.000   1.238
  
    # LCAO basis set for Na:
    #   Name: dzp
    #   File: /Users/tew/Documents/Project/GitHub/chem-com/.venv/lib/python3.13/site-packages/gpaw_data/setups/Na.dzp.basis.gz
    #   Number of radial functions: 7
    #   Number of spherical harmonics: 17
    #     l=0, rc=11.4062 Bohr: 3s-sz confined orbital
    #     l=1, rc=3.6719 Bohr: 2p-sz confined orbital
    #     l=1, rc=15.9375 Bohr: 3p-sz confined orbital
    #     l=0, rc=6.9531 Bohr: 3s-dz split-valence wave
    #     l=1, rc=2.4219 Bohr: 2p-dz split-valence wave
    #     l=1, rc=10.0469 Bohr: 3p-dz split-valence wave
    #     l=1, rc=11.4062 Bohr: p-type Gaussian polarization
    #   Number of RI-basis functions 0

Reference energy: -322558.566329  # eV

Spin-paired calculation

Convergence criteria:
 Maximum [total energy] change in last 3 cyles: 0.0005 eV / valence electron
 Maximum integral of absolute [dens]ity change: 0.0001 electrons / valence electron
 Maximum integral of absolute [eigenst]ate change: 5e-06 eV^2 / valence electron
 Maximum number of scf [iter]ations: 333
 (Square brackets indicate name in SCF output, whereas a 'c' in
 the SCF output indicates the quantity has converged.)

Symmetries present (total): 1

  ( 1  0  0)
  ( 0  1  0)
  ( 0  0  1)

1 k-point (Gamma)
1 k-point in the irreducible part of the Brillouin zone
       k-points in crystal coordinates                weights
   0:     0.00000000    0.00000000    0.00000000          1/1

Wave functions: LCAO
  Diagonalizer: Serial LAPACK
  Atomic Correction: dense with blas
  Data-type: float
 

Occupation numbers: Fermi-Dirac:
  width: 0.1500  # eV
 

Eigensolver
   LCAO using direct dense diagonalizer 

Densities:
  Coarse grid: 88*64*144 grid
  Fine grid: 176*128*288 grid
  Total Charge: 0.000000 

Density mixing:
  Method: separate
  Backend: pulay
  Linear mixing parameter: 0.05
  old densities: 5
  Damping of long wavelength oscillations: 50 

Hamiltonian:
  XC and Coulomb potentials evaluated on a 176*128*288 grid
  Using the PBE Exchange-Correlation functional
  Interpolation: tri-quintic (5. degree polynomial)
  Poisson solver: FastPoissonSolver using
    Stencil: 6*3+1=19 point O(h^6) finite-difference Laplacian
    FFT axes: [np.int64(0), np.int64(1)]
    FST axes: [np.int64(2)]
 

XC parameters: PBE with 2 nearest neighbor stencil

Memory estimate:
  Process memory now: 3762.67 MiB
  Calculator: 1616.02 MiB
    Density: 540.29 MiB
      Arrays: 160.27 MiB
      Localized functions: 318.57 MiB
      Mixer: 61.45 MiB
    Hamiltonian: 128.23 MiB
      Arrays: 104.80 MiB
      XC: 0.00 MiB
      Poisson: 0.00 MiB
      vbar: 23.43 MiB
    Wavefunctions: 947.50 MiB
      C [qnM]: 2.94 MiB
      S, T [2 x qmm]: 23.50 MiB
      P [aqMi]: 1.12 MiB
      BasisFunctions: 919.93 MiB
      Eigensolver: 0.00 MiB

Total number of cores used: 1

Number of atoms: 73
Number of atomic orbitals: 1241
Number of bands in calculation: 311
Number of valence electrons: 511
Bands to converge: occupied

... initialized

Initializing position-dependent things.

Density initialized from atomic densities
         .-------------------------------------------.  
        /|                                           |  
       / |                                           |  
      /  |                                           |  
     /   |                                           |  
    /    |                                           |  
   /     |                                           |  
  /      |                                           |  
 *       |                                           |  
 |       |                                           |  
 |       |                                           |  
 |       |                                           |  
 |       |                                           |  
 |       |                                           |  
 |      Na            Na             Na              |  
 |       |    Na            Na             Na        |  
 |       |          Na            Na             Na  Na 
 |     Na|                    Na            Na       |  
 |       | Na  Na         Na            Na           |  
 |Na     |       Na  Na         Na  Na            Na |  
 |       |  Na         Na  Na         Na  Na         |  
 |      Na        Na  Na         Na  Na              |  
 |       |                                      Na   |  
 |       |Na  Na        Na  Na         Na  Na        |  
 |   Na  |      Na  Na        Na  Na                 |  
 |       | Na  Na         Na  Na        Na  Na       |  
 |    Na |           Na             Na               |  
 |Na     |       Na             Na                   |  
 |      Na  Na         Na  Na         Na  Na         |  
 |  Na   |        Na             Na                  |  
 |       |Na            Na             Na            |  
 |       |                                           |  
 Na      |      Na            Na                     |  
 |       |                                           |  
 |       |                                           |  
 |       |                                           |  
 |       .-------------------------------------------.  
 |      /                                           /   
 |     /                                           /    
 |    /                                           /     
 |   /                                           /      
 |  /                                           /       
 | /                                           /        
 |/                                           /         
 *-------------------------------------------*          

Atomic positions and initial magnetic moments

Positions:
   0 Na     0.000000    0.000000   10.000000    ( 0.0000,  0.0000,  0.0000)
   1 Na     2.991062    2.115000   10.000000    ( 0.0000,  0.0000,  0.0000)
   2 Na     2.991062    0.000000   12.991062    ( 0.0000,  0.0000,  0.0000)
   3 Na     5.982123    2.115000   12.991062    ( 0.0000,  0.0000,  0.0000)
   4 Na    -0.017120   -0.020243   15.917706    ( 0.0000,  0.0000,  0.0000)
   5 Na     2.994088    2.228309   15.817368    ( 0.0000,  0.0000,  0.0000)
   6 Na     2.984044    0.007434   18.504789    ( 0.0000,  0.0000,  0.0000)
   7 Na     0.042184    2.074114   18.940485    ( 0.0000,  0.0000,  0.0000)
   8 Na     0.000000    4.230000   10.000000    ( 0.0000,  0.0000,  0.0000)
   9 Na     2.991062    6.345000   10.000000    ( 0.0000,  0.0000,  0.0000)
  10 Na     2.991062    4.230000   12.991062    ( 0.0000,  0.0000,  0.0000)
  11 Na     5.982123    6.345000   12.991062    ( 0.0000,  0.0000,  0.0000)
  12 Na    -0.005326    4.247082   15.945709    ( 0.0000,  0.0000,  0.0000)
  13 Na     2.992722    6.344148   15.974348    ( 0.0000,  0.0000,  0.0000)
  14 Na     2.983539    4.184322   19.034262    ( 0.0000,  0.0000,  0.0000)
  15 Na    -0.000426    6.337415   18.990433    ( 0.0000,  0.0000,  0.0000)
  16 Na     0.000000    8.460000   10.000000    ( 0.0000,  0.0000,  0.0000)
  17 Na     2.991062   10.575000   10.000000    ( 0.0000,  0.0000,  0.0000)
  18 Na     2.991062    8.460000   12.991062    ( 0.0000,  0.0000,  0.0000)
  19 Na     5.982123   10.575000   12.991062    ( 0.0000,  0.0000,  0.0000)
  20 Na    -0.005326    8.462951   15.972881    ( 0.0000,  0.0000,  0.0000)
  21 Na     2.992367   10.462568   15.822307    ( 0.0000,  0.0000,  0.0000)
  22 Na     2.991173    8.498407   19.024308    ( 0.0000,  0.0000,  0.0000)
  23 Na     0.042184   10.623221   19.045789    ( 0.0000,  0.0000,  0.0000)
  24 Na     5.982123    0.000000   10.000000    ( 0.0000,  0.0000,  0.0000)
  25 Na     8.973185    2.115000   10.000000    ( 0.0000,  0.0000,  0.0000)
  26 Na     8.973185    0.000000   12.991062    ( 0.0000,  0.0000,  0.0000)
  27 Na    11.964247    2.115000   12.991062    ( 0.0000,  0.0000,  0.0000)
  28 Na     5.998476    0.000182   15.944701    ( 0.0000,  0.0000,  0.0000)
  29 Na     8.972916    2.112066   15.972217    ( 0.0000,  0.0000,  0.0000)
  30 Na     8.973298    0.000118   18.977240    ( 0.0000,  0.0000,  0.0000)
  31 Na     5.940538    2.073992   19.037440    ( 0.0000,  0.0000,  0.0000)
  32 Na     5.982123    4.230000   10.000000    ( 0.0000,  0.0000,  0.0000)
  33 Na     8.973185    6.345000   10.000000    ( 0.0000,  0.0000,  0.0000)
  34 Na     8.973185    4.230000   12.991062    ( 0.0000,  0.0000,  0.0000)
  35 Na    11.964247    6.345000   12.991062    ( 0.0000,  0.0000,  0.0000)
  36 Na     5.987287    4.226785   15.973055    ( 0.0000,  0.0000,  0.0000)
  37 Na     8.972734    6.345298   15.962537    ( 0.0000,  0.0000,  0.0000)
  38 Na     8.971836    4.228137   18.978023    ( 0.0000,  0.0000,  0.0000)
  39 Na     5.981258    6.344454   18.982392    ( 0.0000,  0.0000,  0.0000)
  40 Na     5.982123    8.460000   10.000000    ( 0.0000,  0.0000,  0.0000)
  41 Na     8.973185   10.575000   10.000000    ( 0.0000,  0.0000,  0.0000)
  42 Na     8.973185    8.460000   12.991062    ( 0.0000,  0.0000,  0.0000)
  43 Na    11.964247   10.575000   12.991062    ( 0.0000,  0.0000,  0.0000)
  44 Na     5.987228    8.463033   15.971659    ( 0.0000,  0.0000,  0.0000)
  45 Na     8.972916   10.577638   15.970958    ( 0.0000,  0.0000,  0.0000)
  46 Na     8.971836    8.461743   18.977872    ( 0.0000,  0.0000,  0.0000)
  47 Na     5.940224   10.616561   19.037346    ( 0.0000,  0.0000,  0.0000)
  48 Na    11.964247    0.000000   10.000000    ( 0.0000,  0.0000,  0.0000)
  49 Na    14.955308    2.115000   10.000000    ( 0.0000,  0.0000,  0.0000)
  50 Na    14.955308    0.000000   12.991062    ( 0.0000,  0.0000,  0.0000)
  51 Na    17.946370    2.115000   12.991062    ( 0.0000,  0.0000,  0.0000)
  52 Na    11.964740    0.000182   15.971184    ( 0.0000,  0.0000,  0.0000)
  53 Na    14.952644    2.112281   15.968344    ( 0.0000,  0.0000,  0.0000)
  54 Na    14.962057    0.007434   18.988547    ( 0.0000,  0.0000,  0.0000)
  55 Na    11.964125    2.113206   18.978686    ( 0.0000,  0.0000,  0.0000)
  56 Na    11.964247    4.230000   10.000000    ( 0.0000,  0.0000,  0.0000)
  57 Na    14.955308    6.345000   10.000000    ( 0.0000,  0.0000,  0.0000)
  58 Na    14.955308    4.230000   12.991062    ( 0.0000,  0.0000,  0.0000)
  59 Na    17.946370    6.345000   12.991062    ( 0.0000,  0.0000,  0.0000)
  60 Na    11.964369    4.233110   15.965685    ( 0.0000,  0.0000,  0.0000)
  61 Na    14.954134    6.344148   15.964366    ( 0.0000,  0.0000,  0.0000)
  62 Na    14.964477    4.221124   18.988606    ( 0.0000,  0.0000,  0.0000)
  63 Na    11.965632    6.344454   18.976967    ( 0.0000,  0.0000,  0.0000)
  64 Na    11.964247    8.460000   10.000000    ( 0.0000,  0.0000,  0.0000)
  65 Na    14.955308   10.575000   10.000000    ( 0.0000,  0.0000,  0.0000)
  66 Na    14.955308    8.460000   12.991062    ( 0.0000,  0.0000,  0.0000)
  67 Na    17.946370   10.575000   12.991062    ( 0.0000,  0.0000,  0.0000)
  68 Na    11.964428    8.456708   15.964289    ( 0.0000,  0.0000,  0.0000)
  69 Na    14.954365   10.578596   15.973283    ( 0.0000,  0.0000,  0.0000)
  70 Na    14.956843    8.461605   18.978651    ( 0.0000,  0.0000,  0.0000)
  71 Na    11.964439   10.577347   18.978592    ( 0.0000,  0.0000,  0.0000)
  72 Na     2.493665    0.352374   21.581797    ( 0.0000,  0.0000,  0.0000)

Unit cell:
           periodic     x           y           z      points  spacing
  1. axis:    yes   17.946370    0.000000    0.000000    88     0.2039
  2. axis:    yes    0.000000   12.690000    0.000000    64     0.1983
  3. axis:    no     0.000000    0.000000   28.973185   144     0.2012

  Lengths:  17.946370  12.690000  28.973185
  Angles:   90.000000  90.000000  90.000000

Effective grid spacing dv^(1/3) = 0.2011

     iter     time        total  log10-change:
                         energy   eigst   dens
iter:   1 11:26:49   -89.350112        c
iter:   2 11:27:38   -88.515729        c -1.60
iter:   3 11:28:23   -87.962368        c -1.70
iter:   4 11:29:10   -87.862180        c -1.87
iter:   5 11:30:00   -87.848912c       c -2.04
iter:   6 11:30:52   -87.873950c       c -2.25
iter:   7 11:31:44   -87.796050c       c -2.25
iter:   8 11:32:38   -87.787539c       c -2.71
iter:   9 11:33:28   -87.778562c       c -2.87
iter:  10 11:34:18   -87.777374c       c -3.16
iter:  11 11:35:09   -87.776487c       c -3.23
iter:  12 11:35:59   -87.775771c       c -3.42
iter:  13 11:36:45   -87.775838c       c -3.58
iter:  14 11:37:34   -87.776319c       c -3.72
iter:  15 11:38:26   -87.776417c       c -3.94
iter:  16 11:39:17   -87.776389c       c -4.05c

Converged after 16 iterations.

Dipole moment: (-23.238523, -19.025067, 0.306734) |e|*Ang

Energy contributions relative to reference atoms: (reference = -322558.566329)

Kinetic:       +144.136423
Potential:     -131.243095
External:        +0.000000
XC:             -99.597424
Entropy (-ST):   -2.607347
Local:           +0.231380
SIC:             +0.000000
--------------------------
Free energy:    -89.080063
Extrapolated:   -87.776389

 Band  Eigenvalues  Occupancy
    0    -28.53359    2.00000
    1    -28.51150    2.00000
    2    -28.50900    2.00000
    3    -27.95033    2.00000
    4    -27.94039    2.00000
    5    -27.93737    2.00000
    6    -27.93512    2.00000
    7    -27.93473    2.00000
    8    -27.93203    2.00000
    9    -27.92889    2.00000
   10    -27.92779    2.00000
   11    -27.92553    2.00000
   12    -27.92529    2.00000
   13    -27.92455    2.00000
   14    -27.92443    2.00000
   15    -27.92235    2.00000
   16    -27.92107    2.00000
   17    -27.92062    2.00000
   18    -27.92010    2.00000
   19    -27.91993    2.00000
   20    -27.91938    2.00000
   21    -27.91934    2.00000
   22    -27.91884    2.00000
   23    -27.91799    2.00000
   24    -27.91798    2.00000
   25    -27.91744    2.00000
   26    -27.91711    2.00000
   27    -27.91612    2.00000
   28    -27.91601    2.00000
   29    -27.91554    2.00000
   30    -27.91523    2.00000
   31    -27.91507    2.00000
   32    -27.91449    2.00000
   33    -27.91390    2.00000
   34    -27.91359    2.00000
   35    -27.91352    2.00000
   36    -27.91240    2.00000
   37    -27.91206    2.00000
   38    -27.91203    2.00000
   39    -27.91190    2.00000
   40    -27.91170    2.00000
   41    -27.91155    2.00000
   42    -27.91125    2.00000
   43    -27.91073    2.00000
   44    -27.91048    2.00000
   45    -27.91027    2.00000
   46    -27.91017    2.00000
   47    -27.90967    2.00000
   48    -27.90950    2.00000
   49    -27.90920    2.00000
   50    -27.90909    2.00000
   51    -27.90865    2.00000
   52    -27.90822    2.00000
   53    -27.90742    2.00000
   54    -27.90726    2.00000
   55    -27.90719    2.00000
   56    -27.90662    2.00000
   57    -27.90634    2.00000
   58    -27.90590    2.00000
   59    -27.90477    2.00000
   60    -27.90437    2.00000
   61    -27.90361    2.00000
   62    -27.90311    2.00000
   63    -27.90274    2.00000
   64    -27.90249    2.00000
   65    -27.90194    2.00000
   66    -27.90137    2.00000
   67    -27.90086    2.00000
   68    -27.90085    2.00000
   69    -27.89942    2.00000
   70    -27.89940    2.00000
   71    -27.89902    2.00000
   72    -27.89846    2.00000
   73    -27.89844    2.00000
   74    -27.89729    2.00000
   75    -27.89687    2.00000
   76    -27.89586    2.00000
   77    -27.89551    2.00000
   78    -27.89440    2.00000
   79    -27.89380    2.00000
   80    -27.89300    2.00000
   81    -27.89260    2.00000
   82    -27.89188    2.00000
   83    -27.89188    2.00000
   84    -27.89157    2.00000
   85    -27.89144    2.00000
   86    -27.89102    2.00000
   87    -27.89037    2.00000
   88    -27.89024    2.00000
   89    -27.88931    2.00000
   90    -27.88869    2.00000
   91    -27.88854    2.00000
   92    -27.88831    2.00000
   93    -27.88765    2.00000
   94    -27.88747    2.00000
   95    -27.88635    2.00000
   96    -27.88388    2.00000
   97    -27.88203    2.00000
   98    -27.88156    2.00000
   99    -27.87827    2.00000
  100    -27.87741    2.00000
  101    -27.87207    2.00000
  102    -27.86959    2.00000
  103    -27.86648    2.00000
  104    -27.86381    2.00000
  105    -27.84417    2.00000
  106    -27.83478    2.00000
  107    -27.82919    2.00000
  108    -27.73832    2.00000
  109    -27.73711    2.00000
  110    -27.73577    2.00000
  111    -27.73505    2.00000
  112    -27.73317    2.00000
  113    -27.73269    2.00000
  114    -27.73102    2.00000
  115    -27.72998    2.00000
  116    -27.72757    2.00000
  117    -27.72664    2.00000
  118    -27.72450    2.00000
  119    -27.72424    2.00000
  120    -27.72368    2.00000
  121    -27.72336    2.00000
  122    -27.72335    2.00000
  123    -27.72279    2.00000
  124    -27.72264    2.00000
  125    -27.72202    2.00000
  126    -27.72177    2.00000
  127    -27.72100    2.00000
  128    -27.72075    2.00000
  129    -27.72051    2.00000
  130    -27.71976    2.00000
  131    -27.71959    2.00000
  132    -27.71889    2.00000
  133    -27.71816    2.00000
  134    -27.71732    2.00000
  135    -27.71702    2.00000
  136    -27.71638    2.00000
  137    -27.71598    2.00000
  138    -27.71575    2.00000
  139    -27.71534    2.00000
  140    -27.71517    2.00000
  141    -27.71515    2.00000
  142    -27.71479    2.00000
  143    -27.71424    2.00000
  144    -27.71368    2.00000
  145    -27.71357    2.00000
  146    -27.71341    2.00000
  147    -27.71305    2.00000
  148    -27.71245    2.00000
  149    -27.71228    2.00000
  150    -27.71202    2.00000
  151    -27.71137    2.00000
  152    -27.71122    2.00000
  153    -27.71091    2.00000
  154    -27.71066    2.00000
  155    -27.71059    2.00000
  156    -27.71011    2.00000
  157    -27.70983    2.00000
  158    -27.70913    2.00000
  159    -27.70889    2.00000
  160    -27.70880    2.00000
  161    -27.70862    2.00000
  162    -27.70804    2.00000
  163    -27.70769    2.00000
  164    -27.70732    2.00000
  165    -27.70712    2.00000
  166    -27.70687    2.00000
  167    -27.70584    2.00000
  168    -27.70564    2.00000
  169    -27.70523    2.00000
  170    -27.70511    2.00000
  171    -27.70468    2.00000
  172    -27.70372    2.00000
  173    -27.70354    2.00000
  174    -27.70279    2.00000
  175    -27.70251    2.00000
  176    -27.70245    2.00000
  177    -27.70192    2.00000
  178    -27.70139    2.00000
  179    -27.70113    2.00000
  180    -27.70051    2.00000
  181    -27.69991    2.00000
  182    -27.69962    2.00000
  183    -27.69885    2.00000
  184    -27.69844    2.00000
  185    -27.69813    2.00000
  186    -27.69778    2.00000
  187    -27.69759    2.00000
  188    -27.69727    2.00000
  189    -27.69683    2.00000
  190    -27.69667    2.00000
  191    -27.69632    2.00000
  192    -27.69612    2.00000
  193    -27.69602    2.00000
  194    -27.69568    2.00000
  195    -27.69556    2.00000
  196    -27.69512    2.00000
  197    -27.69483    2.00000
  198    -27.69380    2.00000
  199    -27.69376    2.00000
  200    -27.69354    2.00000
  201    -27.69327    2.00000
  202    -27.69318    2.00000
  203    -27.69302    2.00000
  204    -27.69240    2.00000
  205    -27.69129    2.00000
  206    -27.69121    2.00000
  207    -27.69077    2.00000
  208    -27.69052    2.00000
  209    -27.69005    2.00000
  210    -27.68917    2.00000
  211    -27.68859    2.00000
  212    -27.68838    2.00000
  213    -27.68748    2.00000
  214    -27.68708    2.00000
  215    -27.68611    2.00000
  216    -27.68505    2.00000
  217    -27.68468    2.00000
  218    -27.68186    2.00000
  219     -5.89520    2.00000
  220     -5.41458    2.00000
  221     -5.40046    2.00000
  222     -5.33613    2.00000
  223     -4.93345    2.00000
  224     -4.92941    2.00000
  225     -4.87352    2.00000
  226     -4.85353    2.00000
  227     -4.47342    1.99997
  228     -4.46629    1.99997
  229     -4.45500    1.99997
  230     -4.44953    1.99996
  231     -4.43780    1.99996
  232     -4.38855    1.99995
  233     -4.38268    1.99994
  234     -4.01141    1.99933
  235     -3.98834    1.99922
  236     -3.98548    1.99921
  237     -3.94266    1.99895
  238     -3.91733    1.99875
  239     -3.91478    1.99873
  240     -3.91045    1.99869
  241     -3.90007    1.99860
  242     -3.54145    1.98480
  243     -3.48722    1.97826
  244     -3.45137    1.97247
  245     -3.44755    1.97177
  246     -3.28736    1.92002
  247     -3.07526    1.70751
  248     -3.07010    1.69880
  249     -3.06872    1.69644
  250     -3.06748    1.69431
  251     -3.05677    1.67536
  252     -3.02956    1.62296
  253     -3.01468    1.59167
  254     -3.00375    1.56748
  255     -2.84140    1.10226
  256     -2.74255    0.77695
  257     -2.57706    0.34815
  258     -2.56141    0.31916
  259     -2.52975    0.26652
  260     -2.52820    0.26415
  261     -2.52761    0.26324
  262     -2.52263    0.25576
  263     -2.41675    0.13500
  264     -2.32387    0.07502
  265     -2.20132    0.03385
  266     -2.14650    0.02361
  267     -2.14210    0.02293
  268     -1.96220    0.00697
  269     -1.92627    0.00549
  270     -1.90081    0.00463
  271     -1.87847    0.00399
  272     -1.83950    0.00308
  273     -1.76186    0.00184
  274     -1.73618    0.00155
  275     -1.72892    0.00148
  276     -1.71698    0.00136
  277     -1.71452    0.00134
  278     -1.71011    0.00130
  279     -1.70914    0.00129
  280     -1.70316    0.00124
  281     -1.70172    0.00123
  282     -1.67809    0.00105
  283     -1.63151    0.00077
  284     -1.62812    0.00075
  285     -1.44492    0.00022
  286     -1.42088    0.00019
  287     -1.39267    0.00016
  288     -1.34874    0.00012
  289     -1.33607    0.00011
  290     -1.27946    0.00007
  291     -1.10862    0.00002
  292     -1.04407    0.00002
  293     -1.04283    0.00002
  294     -1.02727    0.00001
  295     -1.01621    0.00001
  296     -1.00849    0.00001
  297     -1.00333    0.00001
  298     -0.88567    0.00001
  299     -0.85046    0.00000
  300     -0.83150    0.00000
  301     -0.81843    0.00000
  302     -0.80751    0.00000
  303     -0.76314    0.00000
  304     -0.76002    0.00000
  305     -0.59606    0.00000
  306     -0.59328    0.00000
  307     -0.56923    0.00000
  308     -0.52168    0.00000
  309     -0.52037    0.00000
  310     -0.50860    0.00000

Fermi level: -2.81061

Gap: 0.099 eV
Transition (v -> c):
  (s=0, k=0, n=255, [0.00, 0.00, 0.00]) -> (s=0, k=0, n=256, [0.00, 0.00, 0.00])
No difference between direct/indirect transitions

Forces in eV/Ang:
  0 Na    0.00012    0.00029   -0.00570
  1 Na    0.00040   -0.00449   -0.00366
  2 Na    0.00157   -0.00135   -0.00999
  3 Na    0.00657    0.00363   -0.00560
  4 Na    0.02366    0.00294    0.00720
  5 Na   -0.00474   -0.01824    0.01789
  6 Na    0.04277   -0.03156   -0.12404
  7 Na   -0.00048   -0.00526    0.04612
  8 Na   -0.00552   -0.00620    0.00061
  9 Na    0.00404   -0.00282    0.00843
 10 Na    0.00103    0.03051   -0.04316
 11 Na    0.00286   -0.00089    0.01626
 12 Na   -0.01275   -0.00783    0.01577
 13 Na    0.00287   -0.00256    0.01458
 14 Na   -0.00028   -0.02075    0.01553
 15 Na    0.01052    0.00241   -0.00072
 16 Na   -0.00769    0.00599    0.00193
 17 Na    0.00065    0.00715   -0.00133
 18 Na    0.00052   -0.02951   -0.03905
 19 Na    0.00624   -0.00270   -0.00412
 20 Na   -0.01335    0.00327    0.01471
 21 Na    0.00187    0.02139    0.02002
 22 Na   -0.00518    0.00967    0.00243
 23 Na    0.00796    0.01546    0.02218
 24 Na   -0.00145    0.00022   -0.00578
 25 Na    0.00184    0.00273   -0.00611
 26 Na   -0.00158    0.00008    0.00729
 27 Na    0.00078    0.00013    0.00509
 28 Na   -0.02372   -0.00049    0.00980
 29 Na    0.00296    0.00074   -0.00003
 30 Na   -0.00572    0.00010   -0.00303
 31 Na   -0.01071   -0.00860    0.01925
 32 Na    0.00564   -0.00300   -0.00207
 33 Na    0.00986    0.00083   -0.01178
 34 Na    0.00215    0.00126    0.00995
 35 Na   -0.00030    0.00019    0.00818
 36 Na    0.01234   -0.00047    0.01380
 37 Na   -0.00020    0.00046   -0.00253
 38 Na   -0.01043   -0.00571   -0.00091
 39 Na   -0.01006   -0.00091    0.00174
 40 Na    0.00786    0.00288   -0.00027
 41 Na    0.00317   -0.00355   -0.00697
 42 Na    0.00328   -0.00118    0.01050
 43 Na    0.00027   -0.00048    0.00529
 44 Na    0.01303    0.00096    0.01476
 45 Na    0.00321   -0.00106   -0.00124
 46 Na   -0.01079    0.00548   -0.00112
 47 Na   -0.00428    0.01062    0.01132
 48 Na    0.00044   -0.00123   -0.00367
 49 Na   -0.00112    0.00087   -0.00553
 50 Na   -0.00170   -0.00085    0.00447
 51 Na   -0.00581    0.00377   -0.00860
 52 Na   -0.00100    0.00013   -0.00124
 53 Na    0.00371    0.00082    0.00479
 54 Na    0.00331   -0.00220   -0.00133
 55 Na    0.00114    0.00094   -0.00147
 56 Na   -0.00228    0.00793   -0.01425
 57 Na   -0.01097    0.00047   -0.00668
 58 Na   -0.00384    0.00127    0.00848
 59 Na   -0.00190    0.00367    0.00882
 60 Na   -0.00086   -0.00035   -0.00235
 61 Na   -0.00346    0.00063    0.00042
 62 Na    0.00242   -0.00274   -0.00630
 63 Na    0.00300   -0.00143   -0.00053
 64 Na   -0.00261   -0.00675   -0.01723
 65 Na   -0.00249   -0.00135   -0.00613
 66 Na   -0.00421   -0.00007    0.01157
 67 Na   -0.00562   -0.00756   -0.01185
 68 Na   -0.00011    0.00026   -0.00270
 69 Na   -0.00393   -0.00095    0.00276
 70 Na    0.00957    0.00556   -0.00122
 71 Na    0.00244    0.00095   -0.00023
 72 Na   -0.02341    0.02644    0.01330

System changes: positions 

Initializing position-dependent things.

Density initialized from wave functions
         .-------------------------------------------.  
        /|                                           |  
       / |                                           |  
      /  |                                           |  
     /   |                                           |  
    /    |                                           |  
   /     |                                           |  
  /      |                                           |  
 *       |                                           |  
 |       |                                           |  
 |       |                                           |  
 |       |                                           |  
 |       |                                           |  
 |       |                                           |  
 |      Na            Na             Na              |  
 |       |    Na            Na             Na        |  
 |       |          Na            Na             Na  Na 
 |     Na|                    Na            Na       |  
 |       | Na  Na         Na            Na           |  
 |Na     |       Na  Na         Na  Na            Na |  
 |       |  Na         Na  Na         Na  Na         |  
 |      Na        Na  Na         Na  Na              |  
 |       |                                      Na   |  
 |       |Na  Na        Na  Na         Na  Na        |  
 |   Na  |      Na  Na        Na  Na                 |  
 |       | Na  Na         Na  Na        Na  Na       |  
 |    Na |           Na             Na               |  
 |Na     |       Na             Na                   |  
 |      Na  Na         Na  Na         Na  Na         |  
 |  Na   |        Na             Na                  |  
 |       |Na            Na             Na            |  
 |       |                                           |  
 Na      |      Na            Na                     |  
 |       |                                           |  
 |       |                                           |  
 |       |                                           |  
 |       .-------------------------------------------.  
 |      /                                           /   
 |     /                                           /    
 |    /                                           /     
 |   /                                           /      
 |  /                                           /       
 | /                                           /        
 |/                                           /         
 *-------------------------------------------*          

Atomic positions and initial magnetic moments

Positions:
   0 Na     0.000000    0.000000   10.000000    ( 0.0000,  0.0000,  0.0000)
   1 Na     2.991062    2.115000   10.000000    ( 0.0000,  0.0000,  0.0000)
   2 Na     2.991062    0.000000   12.991062    ( 0.0000,  0.0000,  0.0000)
   3 Na     5.982123    2.115000   12.991062    ( 0.0000,  0.0000,  0.0000)
   4 Na    -0.016884   -0.020213   15.917779    ( 0.0000,  0.0000,  0.0000)
   5 Na     2.994041    2.228128   15.817545    ( 0.0000,  0.0000,  0.0000)
   6 Na     2.984472    0.007118   18.503542    ( 0.0000,  0.0000,  0.0000)
   7 Na     0.042180    2.074061   18.940952    ( 0.0000,  0.0000,  0.0000)
   8 Na     0.000000    4.230000   10.000000    ( 0.0000,  0.0000,  0.0000)
   9 Na     2.991062    6.345000   10.000000    ( 0.0000,  0.0000,  0.0000)
  10 Na     2.991062    4.230000   12.991062    ( 0.0000,  0.0000,  0.0000)
  11 Na     5.982123    6.345000   12.991062    ( 0.0000,  0.0000,  0.0000)
  12 Na    -0.005454    4.247003   15.945869    ( 0.0000,  0.0000,  0.0000)
  13 Na     2.992750    6.344123   15.974494    ( 0.0000,  0.0000,  0.0000)
  14 Na     2.983536    4.184115   19.034418    ( 0.0000,  0.0000,  0.0000)
  15 Na    -0.000321    6.337439   18.990426    ( 0.0000,  0.0000,  0.0000)
  16 Na     0.000000    8.460000   10.000000    ( 0.0000,  0.0000,  0.0000)
  17 Na     2.991062   10.575000   10.000000    ( 0.0000,  0.0000,  0.0000)
  18 Na     2.991062    8.460000   12.991062    ( 0.0000,  0.0000,  0.0000)
  19 Na     5.982123   10.575000   12.991062    ( 0.0000,  0.0000,  0.0000)
  20 Na    -0.005460    8.462984   15.973028    ( 0.0000,  0.0000,  0.0000)
  21 Na     2.992386   10.462780   15.822505    ( 0.0000,  0.0000,  0.0000)
  22 Na     2.991121    8.498505   19.024332    ( 0.0000,  0.0000,  0.0000)
  23 Na     0.042264   10.623375   19.046011    ( 0.0000,  0.0000,  0.0000)
  24 Na     5.982123    0.000000   10.000000    ( 0.0000,  0.0000,  0.0000)
  25 Na     8.973185    2.115000   10.000000    ( 0.0000,  0.0000,  0.0000)
  26 Na     8.973185    0.000000   12.991062    ( 0.0000,  0.0000,  0.0000)
  27 Na    11.964247    2.115000   12.991062    ( 0.0000,  0.0000,  0.0000)
  28 Na     5.998239    0.000177   15.944799    ( 0.0000,  0.0000,  0.0000)
  29 Na     8.972945    2.112074   15.972217    ( 0.0000,  0.0000,  0.0000)
  30 Na     8.973241    0.000119   18.977209    ( 0.0000,  0.0000,  0.0000)
  31 Na     5.940430    2.073905   19.037634    ( 0.0000,  0.0000,  0.0000)
  32 Na     5.982123    4.230000   10.000000    ( 0.0000,  0.0000,  0.0000)
  33 Na     8.973185    6.345000   10.000000    ( 0.0000,  0.0000,  0.0000)
  34 Na     8.973185    4.230000   12.991062    ( 0.0000,  0.0000,  0.0000)
  35 Na    11.964247    6.345000   12.991062    ( 0.0000,  0.0000,  0.0000)
  36 Na     5.987410    4.226780   15.973193    ( 0.0000,  0.0000,  0.0000)
  37 Na     8.972732    6.345302   15.962512    ( 0.0000,  0.0000,  0.0000)
  38 Na     8.971731    4.228080   18.978014    ( 0.0000,  0.0000,  0.0000)
  39 Na     5.981157    6.344444   18.982409    ( 0.0000,  0.0000,  0.0000)
  40 Na     5.982123    8.460000   10.000000    ( 0.0000,  0.0000,  0.0000)
  41 Na     8.973185   10.575000   10.000000    ( 0.0000,  0.0000,  0.0000)
  42 Na     8.973185    8.460000   12.991062    ( 0.0000,  0.0000,  0.0000)
  43 Na    11.964247   10.575000   12.991062    ( 0.0000,  0.0000,  0.0000)
  44 Na     5.987358    8.463043   15.971807    ( 0.0000,  0.0000,  0.0000)
  45 Na     8.972948   10.577628   15.970945    ( 0.0000,  0.0000,  0.0000)
  46 Na     8.971728    8.461798   18.977860    ( 0.0000,  0.0000,  0.0000)
  47 Na     5.940181   10.616668   19.037460    ( 0.0000,  0.0000,  0.0000)
  48 Na    11.964247    0.000000   10.000000    ( 0.0000,  0.0000,  0.0000)
  49 Na    14.955308    2.115000   10.000000    ( 0.0000,  0.0000,  0.0000)
  50 Na    14.955308    0.000000   12.991062    ( 0.0000,  0.0000,  0.0000)
  51 Na    17.946370    2.115000   12.991062    ( 0.0000,  0.0000,  0.0000)
  52 Na    11.964730    0.000183   15.971171    ( 0.0000,  0.0000,  0.0000)
  53 Na    14.952681    2.112289   15.968392    ( 0.0000,  0.0000,  0.0000)
  54 Na    14.962090    0.007411   18.988533    ( 0.0000,  0.0000,  0.0000)
  55 Na    11.964137    2.113215   18.978671    ( 0.0000,  0.0000,  0.0000)
  56 Na    11.964247    4.230000   10.000000    ( 0.0000,  0.0000,  0.0000)
  57 Na    14.955308    6.345000   10.000000    ( 0.0000,  0.0000,  0.0000)
  58 Na    14.955308    4.230000   12.991062    ( 0.0000,  0.0000,  0.0000)
  59 Na    17.946370    6.345000   12.991062    ( 0.0000,  0.0000,  0.0000)
  60 Na    11.964360    4.233106   15.965661    ( 0.0000,  0.0000,  0.0000)
  61 Na    14.954099    6.344155   15.964370    ( 0.0000,  0.0000,  0.0000)
  62 Na    14.964501    4.221097   18.988543    ( 0.0000,  0.0000,  0.0000)
  63 Na    11.965662    6.344439   18.976962    ( 0.0000,  0.0000,  0.0000)
  64 Na    11.964247    8.460000   10.000000    ( 0.0000,  0.0000,  0.0000)
  65 Na    14.955308   10.575000   10.000000    ( 0.0000,  0.0000,  0.0000)
  66 Na    14.955308    8.460000   12.991062    ( 0.0000,  0.0000,  0.0000)
  67 Na    17.946370   10.575000   12.991062    ( 0.0000,  0.0000,  0.0000)
  68 Na    11.964427    8.456711   15.964262    ( 0.0000,  0.0000,  0.0000)
  69 Na    14.954326   10.578586   15.973310    ( 0.0000,  0.0000,  0.0000)
  70 Na    14.956938    8.461661   18.978639    ( 0.0000,  0.0000,  0.0000)
  71 Na    11.964463   10.577357   18.978590    ( 0.0000,  0.0000,  0.0000)
  72 Na     2.493460    0.352618   21.581930    ( 0.0000,  0.0000,  0.0000)

Unit cell:
           periodic     x           y           z      points  spacing
  1. axis:    yes   17.946370    0.000000    0.000000    88     0.2039
  2. axis:    yes    0.000000   12.690000    0.000000    64     0.1983
  3. axis:    no     0.000000    0.000000   28.973185   144     0.2012

  Lengths:  17.946370  12.690000  28.973185
  Angles:   90.000000  90.000000  90.000000

Effective grid spacing dv^(1/3) = 0.2011

     iter     time        total  log10-change:
                         energy   eigst   dens
iter:   1 12:45:21   -87.777719        c
iter:   2 12:46:15   -87.777125        c -3.56
iter:   3 12:47:09   -87.777039c       c -4.10c

Converged after 3 iterations.

Dipole moment: (-23.243152, -19.018558, 0.308349) |e|*Ang

Energy contributions relative to reference atoms: (reference = -322558.566329)

Kinetic:       +143.278739
Potential:     -130.487581
External:        +0.000000
XC:             -99.502393
Entropy (-ST):   -2.606636
Local:           +0.237514
SIC:             +0.000000
--------------------------
Free energy:    -89.080358
Extrapolated:   -87.777039

 Band  Eigenvalues  Occupancy
    0    -28.53046    2.00000
    1    -28.50834    2.00000
    2    -28.50582    2.00000
    3    -27.94867    2.00000
    4    -27.93874    2.00000
    5    -27.93810    2.00000
    6    -27.93573    2.00000
    7    -27.93306    2.00000
    8    -27.93168    2.00000
    9    -27.92822    2.00000
   10    -27.92767    2.00000
   11    -27.92630    2.00000
   12    -27.92461    2.00000
   13    -27.92443    2.00000
   14    -27.92353    2.00000
   15    -27.92130    2.00000
   16    -27.92062    2.00000
   17    -27.92021    2.00000
   18    -27.91935    2.00000
   19    -27.91885    2.00000
   20    -27.91880    2.00000
   21    -27.91853    2.00000
   22    -27.91822    2.00000
   23    -27.91747    2.00000
   24    -27.91729    2.00000
   25    -27.91705    2.00000
   26    -27.91600    2.00000
   27    -27.91522    2.00000
   28    -27.91513    2.00000
   29    -27.91464    2.00000
   30    -27.91452    2.00000
   31    -27.91428    2.00000
   32    -27.91416    2.00000
   33    -27.91369    2.00000
   34    -27.91336    2.00000
   35    -27.91262    2.00000
   36    -27.91206    2.00000
   37    -27.91173    2.00000
   38    -27.91162    2.00000
   39    -27.91112    2.00000
   40    -27.91105    2.00000
   41    -27.91073    2.00000
   42    -27.91055    2.00000
   43    -27.91018    2.00000
   44    -27.90999    2.00000
   45    -27.90945    2.00000
   46    -27.90941    2.00000
   47    -27.90914    2.00000
   48    -27.90911    2.00000
   49    -27.90903    2.00000
   50    -27.90887    2.00000
   51    -27.90808    2.00000
   52    -27.90783    2.00000
   53    -27.90719    2.00000
   54    -27.90707    2.00000
   55    -27.90669    2.00000
   56    -27.90606    2.00000
   57    -27.90574    2.00000
   58    -27.90557    2.00000
   59    -27.90424    2.00000
   60    -27.90354    2.00000
   61    -27.90287    2.00000
   62    -27.90247    2.00000
   63    -27.90196    2.00000
   64    -27.90196    2.00000
   65    -27.90130    2.00000
   66    -27.90062    2.00000
   67    -27.90037    2.00000
   68    -27.90031    2.00000
   69    -27.89889    2.00000
   70    -27.89885    2.00000
   71    -27.89858    2.00000
   72    -27.89811    2.00000
   73    -27.89770    2.00000
   74    -27.89631    2.00000
   75    -27.89595    2.00000
   76    -27.89507    2.00000
   77    -27.89506    2.00000
   78    -27.89478    2.00000
   79    -27.89413    2.00000
   80    -27.89237    2.00000
   81    -27.89196    2.00000
   82    -27.89164    2.00000
   83    -27.89155    2.00000
   84    -27.89152    2.00000
   85    -27.89078    2.00000
   86    -27.89059    2.00000
   87    -27.89012    2.00000
   88    -27.88998    2.00000
   89    -27.88918    2.00000
   90    -27.88877    2.00000
   91    -27.88794    2.00000
   92    -27.88760    2.00000
   93    -27.88736    2.00000
   94    -27.88659    2.00000
   95    -27.88606    2.00000
   96    -27.88484    2.00000
   97    -27.88213    2.00000
   98    -27.88192    2.00000
   99    -27.87939    2.00000
  100    -27.87752    2.00000
  101    -27.87219    2.00000
  102    -27.86974    2.00000
  103    -27.86676    2.00000
  104    -27.86412    2.00000
  105    -27.84545    2.00000
  106    -27.83605    2.00000
  107    -27.83038    2.00000
  108    -27.73978    2.00000
  109    -27.73848    2.00000
  110    -27.73721    2.00000
  111    -27.73640    2.00000
  112    -27.73326    2.00000
  113    -27.73236    2.00000
  114    -27.73141    2.00000
  115    -27.73080    2.00000
  116    -27.72841    2.00000
  117    -27.72731    2.00000
  118    -27.72437    2.00000
  119    -27.72409    2.00000
  120    -27.72367    2.00000
  121    -27.72339    2.00000
  122    -27.72332    2.00000
  123    -27.72288    2.00000
  124    -27.72275    2.00000
  125    -27.72210    2.00000
  126    -27.72179    2.00000
  127    -27.72122    2.00000
  128    -27.72093    2.00000
  129    -27.72068    2.00000
  130    -27.72020    2.00000
  131    -27.71961    2.00000
  132    -27.71898    2.00000
  133    -27.71828    2.00000
  134    -27.71809    2.00000
  135    -27.71729    2.00000
  136    -27.71707    2.00000
  137    -27.71663    2.00000
  138    -27.71627    2.00000
  139    -27.71586    2.00000
  140    -27.71572    2.00000
  141    -27.71550    2.00000
  142    -27.71536    2.00000
  143    -27.71460    2.00000
  144    -27.71424    2.00000
  145    -27.71397    2.00000
  146    -27.71379    2.00000
  147    -27.71348    2.00000
  148    -27.71311    2.00000
  149    -27.71280    2.00000
  150    -27.71217    2.00000
  151    -27.71164    2.00000
  152    -27.71149    2.00000
  153    -27.71122    2.00000
  154    -27.71101    2.00000
  155    -27.71087    2.00000
  156    -27.71032    2.00000
  157    -27.70990    2.00000
  158    -27.70938    2.00000
  159    -27.70931    2.00000
  160    -27.70910    2.00000
  161    -27.70887    2.00000
  162    -27.70824    2.00000
  163    -27.70810    2.00000
  164    -27.70780    2.00000
  165    -27.70768    2.00000
  166    -27.70754    2.00000
  167    -27.70631    2.00000
  168    -27.70619    2.00000
  169    -27.70591    2.00000
  170    -27.70554    2.00000
  171    -27.70540    2.00000
  172    -27.70444    2.00000
  173    -27.70410    2.00000
  174    -27.70356    2.00000
  175    -27.70331    2.00000
  176    -27.70317    2.00000
  177    -27.70267    2.00000
  178    -27.70186    2.00000
  179    -27.70167    2.00000
  180    -27.70091    2.00000
  181    -27.70049    2.00000
  182    -27.70041    2.00000
  183    -27.69956    2.00000
  184    -27.69923    2.00000
  185    -27.69873    2.00000
  186    -27.69846    2.00000
  187    -27.69830    2.00000
  188    -27.69788    2.00000
  189    -27.69776    2.00000
  190    -27.69753    2.00000
  191    -27.69720    2.00000
  192    -27.69693    2.00000
  193    -27.69678    2.00000
  194    -27.69651    2.00000
  195    -27.69620    2.00000
  196    -27.69599    2.00000
  197    -27.69574    2.00000
  198    -27.69479    2.00000
  199    -27.69470    2.00000
  200    -27.69459    2.00000
  201    -27.69454    2.00000
  202    -27.69415    2.00000
  203    -27.69387    2.00000
  204    -27.69313    2.00000
  205    -27.69252    2.00000
  206    -27.69234    2.00000
  207    -27.69212    2.00000
  208    -27.69131    2.00000
  209    -27.69110    2.00000
  210    -27.69025    2.00000
  211    -27.69009    2.00000
  212    -27.68932    2.00000
  213    -27.68838    2.00000
  214    -27.68818    2.00000
  215    -27.68755    2.00000
  216    -27.68674    2.00000
  217    -27.68631    2.00000
  218    -27.68362    2.00000
  219     -5.89466    2.00000
  220     -5.41409    2.00000
  221     -5.39989    2.00000
  222     -5.33520    2.00000
  223     -4.93291    2.00000
  224     -4.92885    2.00000
  225     -4.87256    2.00000
  226     -4.85265    2.00000
  227     -4.47289    1.99997
  228     -4.46571    1.99997
  229     -4.45442    1.99997
  230     -4.44898    1.99996
  231     -4.43696    1.99996
  232     -4.38773    1.99995
  233     -4.38182    1.99994
  234     -4.01070    1.99933
  235     -3.98778    1.99922
  236     -3.98489    1.99921
  237     -3.94218    1.99895
  238     -3.91649    1.99875
  239     -3.91387    1.99873
  240     -3.90954    1.99869
  241     -3.89921    1.99860
  242     -3.54056    1.98478
  243     -3.48669    1.97827
  244     -3.45048    1.97242
  245     -3.44672    1.97173
  246     -3.28674    1.92003
  247     -3.07471    1.70764
  248     -3.06948    1.69883
  249     -3.06818    1.69661
  250     -3.06692    1.69443
  251     -3.05621    1.67549
  252     -3.02902    1.62315
  253     -3.01415    1.59190
  254     -3.00331    1.56792
  255     -2.84082    1.10243
  256     -2.74200    0.77720
  257     -2.57624    0.34779
  258     -2.56070    0.31903
  259     -2.52894    0.26625
  260     -2.52735    0.26382
  261     -2.52675    0.26290
  262     -2.52178    0.25542
  263     -2.41606    0.13495
  264     -2.32324    0.07502
  265     -2.20069    0.03385
  266     -2.14598    0.02363
  267     -2.14156    0.02295
  268     -1.96162    0.00697
  269     -1.92574    0.00549
  270     -1.90015    0.00463
  271     -1.87792    0.00400
  272     -1.83898    0.00308
  273     -1.76117    0.00184
  274     -1.73544    0.00155
  275     -1.72835    0.00148
  276     -1.71639    0.00136
  277     -1.71403    0.00134
  278     -1.70961    0.00130
  279     -1.70868    0.00129
  280     -1.70256    0.00124
  281     -1.70107    0.00123
  282     -1.67761    0.00105
  283     -1.63061    0.00077
  284     -1.62731    0.00075
  285     -1.44393    0.00022
  286     -1.41999    0.00019
  287     -1.39200    0.00016
  288     -1.34820    0.00012
  289     -1.33548    0.00011
  290     -1.27892    0.00007
  291     -1.10784    0.00002
  292     -1.04355    0.00002
  293     -1.04229    0.00002
  294     -1.02634    0.00001
  295     -1.01540    0.00001
  296     -1.00768    0.00001
  297     -1.00255    0.00001
  298     -0.88500    0.00001
  299     -0.84987    0.00000
  300     -0.83079    0.00000
  301     -0.81793    0.00000
  302     -0.80679    0.00000
  303     -0.76267    0.00000
  304     -0.75946    0.00000
  305     -0.59549    0.00000
  306     -0.59272    0.00000
  307     -0.56842    0.00000
  308     -0.52089    0.00000
  309     -0.51955    0.00000
  310     -0.50801    0.00000

Fermi level: -2.80998

Gap: 0.099 eV
Transition (v -> c):
  (s=0, k=0, n=255, [0.00, 0.00, 0.00]) -> (s=0, k=0, n=256, [0.00, 0.00, 0.00])
No difference between direct/indirect transitions

Forces in eV/Ang:
  0 Na    0.00031    0.00014   -0.00580
  1 Na    0.00032   -0.00375   -0.00378
  2 Na    0.00143   -0.00140   -0.01068
  3 Na    0.00578    0.00350   -0.00679
  4 Na    0.02159    0.00247    0.00635
  5 Na   -0.00415   -0.01598    0.01612
  6 Na    0.04174   -0.03090   -0.11724
  7 Na    0.00064   -0.00606    0.04804
  8 Na   -0.00504   -0.00562    0.00034
  9 Na    0.00393   -0.00271    0.00788
 10 Na    0.00081    0.02974   -0.04453
 11 Na    0.00251   -0.00100    0.01402
 12 Na   -0.01354   -0.00618    0.01707
 13 Na    0.00290   -0.00207    0.01707
 14 Na   -0.00043   -0.02038    0.01593
 15 Na    0.00989    0.00279   -0.00276
 16 Na   -0.00717    0.00556    0.00160
 17 Na    0.00056    0.00629   -0.00149
 18 Na    0.00031   -0.02870   -0.04064
 19 Na    0.00546   -0.00246   -0.00540
 20 Na   -0.01370    0.00204    0.01690
 21 Na    0.00232    0.01865    0.01876
 22 Na   -0.00521    0.00883    0.00164
 23 Na    0.00859    0.01585    0.02325
 24 Na   -0.00160    0.00013   -0.00578
 25 Na    0.00206    0.00252   -0.00569
 26 Na   -0.00199    0.00002    0.00463
 27 Na    0.00079    0.00057    0.00187
 28 Na   -0.02171   -0.00081    0.01011
 29 Na    0.00251    0.00109    0.00369
 30 Na   -0.00440    0.00004   -0.00450
 31 Na   -0.01052   -0.00882    0.01966
 32 Na    0.00497   -0.00256   -0.00217
 33 Na    0.00923    0.00080   -0.01108
 34 Na    0.00229    0.00141    0.00760
 35 Na   -0.00050    0.00027    0.00581
 36 Na    0.01292    0.00056    0.01592
 37 Na   -0.00056    0.00051    0.00140
 38 Na   -0.00979   -0.00531   -0.00262
 39 Na   -0.00913   -0.00055   -0.00053
 40 Na    0.00709    0.00253   -0.00041
 41 Na    0.00323   -0.00331   -0.00645
 42 Na    0.00357   -0.00126    0.00817
 43 Na    0.00026   -0.00100    0.00229
 44 Na    0.01322    0.00026    0.01762
 45 Na    0.00271   -0.00145    0.00254
 46 Na   -0.01046    0.00514   -0.00293
 47 Na   -0.00370    0.01042    0.01107
 48 Na    0.00029   -0.00110   -0.00322
 49 Na   -0.00114    0.00089   -0.00531
 50 Na   -0.00111   -0.00089    0.00254
 51 Na   -0.00506    0.00367   -0.00963
 52 Na   -0.00057    0.00003    0.00336
 53 Na    0.00329    0.00133    0.00756
 54 Na    0.00153   -0.00226   -0.00229
 55 Na    0.00102    0.00107   -0.00287
 56 Na   -0.00225    0.00750   -0.01333
 57 Na   -0.01007    0.00050   -0.00637
 58 Na   -0.00378    0.00116    0.00637
 59 Na   -0.00130    0.00350    0.00670
 60 Na   -0.00060    0.00002    0.00162
 61 Na   -0.00309    0.00061    0.00464
 62 Na    0.00113   -0.00192   -0.00813
 63 Na    0.00320   -0.00149   -0.00193
 64 Na   -0.00252   -0.00644   -0.01619
 65 Na   -0.00231   -0.00139   -0.00586
 66 Na   -0.00432    0.00007    0.00931
 67 Na   -0.00482   -0.00729   -0.01302
 68 Na    0.00004   -0.00000    0.00102
 69 Na   -0.00412   -0.00144    0.00574
 70 Na    0.00861    0.00481   -0.00322
 71 Na    0.00233    0.00088   -0.00163
 72 Na   -0.02345    0.02633    0.00743

System changes: positions 

Initializing position-dependent things.

Density initialized from wave functions
         .-------------------------------------------.  
        /|                                           |  
       / |                                           |  
      /  |                                           |  
     /   |                                           |  
    /    |                                           |  
   /     |                                           |  
  /      |                                           |  
 *       |                                           |  
 |       |                                           |  
 |       |                                           |  
 |       |                                           |  
 |       |                                           |  
 |       |                                           |  
 |      Na            Na             Na              |  
 |       |    Na            Na             Na        |  
 |       |          Na            Na             Na  Na 
 |     Na|                    Na            Na       |  
 |       | Na  Na         Na            Na           |  
 |Na     |       Na  Na         Na  Na            Na |  
 |       |  Na         Na  Na         Na  Na         |  
 |      Na        Na  Na         Na  Na              |  
 |       |                                      Na   |  
 |       |Na  Na        Na  Na         Na  Na        |  
 |   Na  |      Na  Na        Na  Na                 |  
 |       | Na  Na         Na  Na        Na  Na       |  
 |    Na |           Na             Na               |  
 |Na     |       Na             Na                   |  
 |      Na  Na         Na  Na         Na  Na         |  
 |  Na   |        Na             Na                  |  
 |       |Na            Na             Na            |  
 |       |                                           |  
 Na      |      Na            Na                     |  
 |       |                                           |  
 |       |                                           |  
 |       |                                           |  
 |       .-------------------------------------------.  
 |      /                                           /   
 |     /                                           /    
 |    /                                           /     
 |   /                                           /      
 |  /                                           /       
 | /                                           /        
 |/                                           /         
 *-------------------------------------------*          

Atomic positions and initial magnetic moments

Positions:
   0 Na     0.000000    0.000000   10.000000    ( 0.0000,  0.0000,  0.0000)
   1 Na     2.991062    2.115000   10.000000    ( 0.0000,  0.0000,  0.0000)
   2 Na     2.991062    0.000000   12.991062    ( 0.0000,  0.0000,  0.0000)
   3 Na     5.982123    2.115000   12.991062    ( 0.0000,  0.0000,  0.0000)
   4 Na    -0.016433   -0.020156   15.917917    ( 0.0000,  0.0000,  0.0000)
   5 Na     2.993952    2.227790   15.817881    ( 0.0000,  0.0000,  0.0000)
   6 Na     2.985318    0.006492   18.501120    ( 0.0000,  0.0000,  0.0000)
   7 Na     0.042184    2.073946   18.941911    ( 0.0000,  0.0000,  0.0000)
   8 Na     0.000000    4.230000   10.000000    ( 0.0000,  0.0000,  0.0000)
   9 Na     2.991062    6.345000   10.000000    ( 0.0000,  0.0000,  0.0000)
  10 Na     2.991062    4.230000   12.991062    ( 0.0000,  0.0000,  0.0000)
  11 Na     5.982123    6.345000   12.991062    ( 0.0000,  0.0000,  0.0000)
  12 Na    -0.005718    4.246861   15.946202    ( 0.0000,  0.0000,  0.0000)
  13 Na     2.992808    6.344077   15.974814    ( 0.0000,  0.0000,  0.0000)
  14 Na     2.983530    4.183703   19.034733    ( 0.0000,  0.0000,  0.0000)
  15 Na    -0.000117    6.337493   18.990388    ( 0.0000,  0.0000,  0.0000)
  16 Na     0.000000    8.460000   10.000000    ( 0.0000,  0.0000,  0.0000)
  17 Na     2.991062   10.575000   10.000000    ( 0.0000,  0.0000,  0.0000)
  18 Na     2.991062    8.460000   12.991062    ( 0.0000,  0.0000,  0.0000)
  19 Na     5.982123   10.575000   12.991062    ( 0.0000,  0.0000,  0.0000)
  20 Na    -0.005731    8.463036   15.973347    ( 0.0000,  0.0000,  0.0000)
  21 Na     2.992428   10.463176   15.822889    ( 0.0000,  0.0000,  0.0000)
  22 Na     2.991017    8.498690   19.024373    ( 0.0000,  0.0000,  0.0000)
  23 Na     0.042432   10.623689   19.046467    ( 0.0000,  0.0000,  0.0000)
  24 Na     5.982123    0.000000   10.000000    ( 0.0000,  0.0000,  0.0000)
  25 Na     8.973185    2.115000   10.000000    ( 0.0000,  0.0000,  0.0000)
  26 Na     8.973185    0.000000   12.991062    ( 0.0000,  0.0000,  0.0000)
  27 Na    11.964247    2.115000   12.991062    ( 0.0000,  0.0000,  0.0000)
  28 Na     5.997786    0.000163   15.944998    ( 0.0000,  0.0000,  0.0000)
  29 Na     8.973000    2.112093   15.972257    ( 0.0000,  0.0000,  0.0000)
  30 Na     8.973141    0.000120   18.977132    ( 0.0000,  0.0000,  0.0000)
  31 Na     5.940217    2.073730   19.038025    ( 0.0000,  0.0000,  0.0000)
  32 Na     5.982123    4.230000   10.000000    ( 0.0000,  0.0000,  0.0000)
  33 Na     8.973185    6.345000   10.000000    ( 0.0000,  0.0000,  0.0000)
  34 Na     8.973185    4.230000   12.991062    ( 0.0000,  0.0000,  0.0000)
  35 Na    11.964247    6.345000   12.991062    ( 0.0000,  0.0000,  0.0000)
  36 Na     5.987664    4.226782   15.973493    ( 0.0000,  0.0000,  0.0000)
  37 Na     8.972724    6.345312   15.962504    ( 0.0000,  0.0000,  0.0000)
  38 Na     8.971530    4.227970   18.977976    ( 0.0000,  0.0000,  0.0000)
  39 Na     5.980966    6.344430   18.982419    ( 0.0000,  0.0000,  0.0000)
  40 Na     5.982123    8.460000   10.000000    ( 0.0000,  0.0000,  0.0000)
  41 Na     8.973185   10.575000   10.000000    ( 0.0000,  0.0000,  0.0000)
  42 Na     8.973185    8.460000   12.991062    ( 0.0000,  0.0000,  0.0000)
  43 Na    11.964247   10.575000   12.991062    ( 0.0000,  0.0000,  0.0000)
  44 Na     5.987621    8.463054   15.972134    ( 0.0000,  0.0000,  0.0000)
  45 Na     8.973007   10.577602   15.970962    ( 0.0000,  0.0000,  0.0000)
  46 Na     8.971515    8.461904   18.977818    ( 0.0000,  0.0000,  0.0000)
  47 Na     5.940101   10.616879   19.037686    ( 0.0000,  0.0000,  0.0000)
  48 Na    11.964247    0.000000   10.000000    ( 0.0000,  0.0000,  0.0000)
  49 Na    14.955308    2.115000   10.000000    ( 0.0000,  0.0000,  0.0000)
  50 Na    14.955308    0.000000   12.991062    ( 0.0000,  0.0000,  0.0000)
  51 Na    17.946370    2.115000   12.991062    ( 0.0000,  0.0000,  0.0000)
  52 Na    11.964714    0.000184   15.971197    ( 0.0000,  0.0000,  0.0000)
  53 Na    14.952751    2.112311   15.968519    ( 0.0000,  0.0000,  0.0000)
  54 Na    14.962136    0.007365   18.988495    ( 0.0000,  0.0000,  0.0000)
  55 Na    11.964158    2.113236   18.978626    ( 0.0000,  0.0000,  0.0000)
  56 Na    11.964247    4.230000   10.000000    ( 0.0000,  0.0000,  0.0000)
  57 Na    14.955308    6.345000   10.000000    ( 0.0000,  0.0000,  0.0000)
  58 Na    14.955308    4.230000   12.991062    ( 0.0000,  0.0000,  0.0000)
  59 Na    17.946370    6.345000   12.991062    ( 0.0000,  0.0000,  0.0000)
  60 Na    11.964346    4.233103   15.965658    ( 0.0000,  0.0000,  0.0000)
  61 Na    14.954034    6.344167   15.964425    ( 0.0000,  0.0000,  0.0000)
  62 Na    14.964534    4.221052   18.988395    ( 0.0000,  0.0000,  0.0000)
  63 Na    11.965724    6.344410   18.976936    ( 0.0000,  0.0000,  0.0000)
  64 Na    11.964247    8.460000   10.000000    ( 0.0000,  0.0000,  0.0000)
  65 Na    14.955308   10.575000   10.000000    ( 0.0000,  0.0000,  0.0000)
  66 Na    14.955308    8.460000   12.991062    ( 0.0000,  0.0000,  0.0000)
  67 Na    17.946370   10.575000   12.991062    ( 0.0000,  0.0000,  0.0000)
  68 Na    11.964426    8.456713   15.964249    ( 0.0000,  0.0000,  0.0000)
  69 Na    14.954245   10.578562   15.973399    ( 0.0000,  0.0000,  0.0000)
  70 Na    14.957120    8.461764   18.978593    ( 0.0000,  0.0000,  0.0000)
  71 Na    11.964511   10.577375   18.978569    ( 0.0000,  0.0000,  0.0000)
  72 Na     2.493052    0.353103   21.582132    ( 0.0000,  0.0000,  0.0000)

Unit cell:
           periodic     x           y           z      points  spacing
  1. axis:    yes   17.946370    0.000000    0.000000    88     0.2039
  2. axis:    yes    0.000000   12.690000    0.000000    64     0.1983
  3. axis:    no     0.000000    0.000000   28.973185   144     0.2012

  Lengths:  17.946370  12.690000  28.973185
  Angles:   90.000000  90.000000  90.000000

Effective grid spacing dv^(1/3) = 0.2011

     iter     time        total  log10-change:
                         energy   eigst   dens
iter:   1 13:09:46   -87.776302        c
iter:   2 13:10:34   -87.776688        c -3.76
iter:   3 13:11:24   -87.777242c       c -3.99
iter:   4 13:12:15   -87.777280c       c -4.51c

Converged after 4 iterations.

Dipole moment: (-23.256784, -19.003815, 0.307581) |e|*Ang

Energy contributions relative to reference atoms: (reference = -322558.566329)

Kinetic:       +143.571443
Potential:     -130.747754
External:        +0.000000
XC:             -99.534895
Entropy (-ST):   -2.607276
Local:           +0.237563
SIC:             +0.000000
--------------------------
Free energy:    -89.080918
Extrapolated:   -87.777280

 Band  Eigenvalues  Occupancy
    0    -28.53405    2.00000
    1    -28.51206    2.00000
    2    -28.50953    2.00000
    3    -27.95044    2.00000
    4    -27.94046    2.00000
    5    -27.93787    2.00000
    6    -27.93553    2.00000
    7    -27.93479    2.00000
    8    -27.93205    2.00000
    9    -27.92907    2.00000
   10    -27.92812    2.00000
   11    -27.92583    2.00000
   12    -27.92520    2.00000
   13    -27.92476    2.00000
   14    -27.92462    2.00000
   15    -27.92211    2.00000
   16    -27.92124    2.00000
   17    -27.92072    2.00000
   18    -27.92009    2.00000
   19    -27.91988    2.00000
   20    -27.91959    2.00000
   21    -27.91938    2.00000
   22    -27.91864    2.00000
   23    -27.91837    2.00000
   24    -27.91823    2.00000
   25    -27.91727    2.00000
   26    -27.91716    2.00000
   27    -27.91632    2.00000
   28    -27.91572    2.00000
   29    -27.91558    2.00000
   30    -27.91542    2.00000
   31    -27.91531    2.00000
   32    -27.91444    2.00000
   33    -27.91406    2.00000
   34    -27.91374    2.00000
   35    -27.91345    2.00000
   36    -27.91304    2.00000
   37    -27.91219    2.00000
   38    -27.91206    2.00000
   39    -27.91205    2.00000
   40    -27.91177    2.00000
   41    -27.91167    2.00000
   42    -27.91142    2.00000
   43    -27.91081    2.00000
   44    -27.91049    2.00000
   45    -27.91047    2.00000
   46    -27.91042    2.00000
   47    -27.91010    2.00000
   48    -27.91002    2.00000
   49    -27.90977    2.00000
   50    -27.90908    2.00000
   51    -27.90892    2.00000
   52    -27.90818    2.00000
   53    -27.90783    2.00000
   54    -27.90755    2.00000
   55    -27.90748    2.00000
   56    -27.90662    2.00000
   57    -27.90644    2.00000
   58    -27.90598    2.00000
   59    -27.90477    2.00000
   60    -27.90427    2.00000
   61    -27.90394    2.00000
   62    -27.90312    2.00000
   63    -27.90287    2.00000
   64    -27.90286    2.00000
   65    -27.90220    2.00000
   66    -27.90122    2.00000
   67    -27.90120    2.00000
   68    -27.90082    2.00000
   69    -27.89974    2.00000
   70    -27.89943    2.00000
   71    -27.89929    2.00000
   72    -27.89884    2.00000
   73    -27.89831    2.00000
   74    -27.89704    2.00000
   75    -27.89674    2.00000
   76    -27.89587    2.00000
   77    -27.89584    2.00000
   78    -27.89486    2.00000
   79    -27.89432    2.00000
   80    -27.89308    2.00000
   81    -27.89275    2.00000
   82    -27.89223    2.00000
   83    -27.89195    2.00000
   84    -27.89181    2.00000
   85    -27.89160    2.00000
   86    -27.89140    2.00000
   87    -27.89074    2.00000
   88    -27.89061    2.00000
   89    -27.88974    2.00000
   90    -27.88928    2.00000
   91    -27.88888    2.00000
   92    -27.88845    2.00000
   93    -27.88822    2.00000
   94    -27.88727    2.00000
   95    -27.88672    2.00000
   96    -27.88438    2.00000
   97    -27.88256    2.00000
   98    -27.88226    2.00000
   99    -27.87881    2.00000
  100    -27.87793    2.00000
  101    -27.87272    2.00000
  102    -27.87022    2.00000
  103    -27.86713    2.00000
  104    -27.86447    2.00000
  105    -27.84480    2.00000
  106    -27.83544    2.00000
  107    -27.82979    2.00000
  108    -27.73914    2.00000
  109    -27.73793    2.00000
  110    -27.73651    2.00000
  111    -27.73576    2.00000
  112    -27.73382    2.00000
  113    -27.73332    2.00000
  114    -27.73123    2.00000
  115    -27.73068    2.00000
  116    -27.72823    2.00000
  117    -27.72739    2.00000
  118    -27.72512    2.00000
  119    -27.72476    2.00000
  120    -27.72426    2.00000
  121    -27.72391    2.00000
  122    -27.72384    2.00000
  123    -27.72332    2.00000
  124    -27.72321    2.00000
  125    -27.72255    2.00000
  126    -27.72232    2.00000
  127    -27.72160    2.00000
  128    -27.72142    2.00000
  129    -27.72120    2.00000
  130    -27.72050    2.00000
  131    -27.72018    2.00000
  132    -27.71938    2.00000
  133    -27.71878    2.00000
  134    -27.71799    2.00000
  135    -27.71760    2.00000
  136    -27.71704    2.00000
  137    -27.71661    2.00000
  138    -27.71634    2.00000
  139    -27.71605    2.00000
  140    -27.71588    2.00000
  141    -27.71582    2.00000
  142    -27.71535    2.00000
  143    -27.71479    2.00000
  144    -27.71419    2.00000
  145    -27.71402    2.00000
  146    -27.71363    2.00000
  147    -27.71362    2.00000
  148    -27.71309    2.00000
  149    -27.71283    2.00000
  150    -27.71267    2.00000
  151    -27.71193    2.00000
  152    -27.71176    2.00000
  153    -27.71147    2.00000
  154    -27.71127    2.00000
  155    -27.71119    2.00000
  156    -27.71065    2.00000
  157    -27.71041    2.00000
  158    -27.70975    2.00000
  159    -27.70950    2.00000
  160    -27.70934    2.00000
  161    -27.70915    2.00000
  162    -27.70861    2.00000
  163    -27.70830    2.00000
  164    -27.70799    2.00000
  165    -27.70775    2.00000
  166    -27.70756    2.00000
  167    -27.70647    2.00000
  168    -27.70621    2.00000
  169    -27.70588    2.00000
  170    -27.70573    2.00000
  171    -27.70531    2.00000
  172    -27.70444    2.00000
  173    -27.70411    2.00000
  174    -27.70344    2.00000
  175    -27.70314    2.00000
  176    -27.70307    2.00000
  177    -27.70255    2.00000
  178    -27.70201    2.00000
  179    -27.70168    2.00000
  180    -27.70110    2.00000
  181    -27.70062    2.00000
  182    -27.70031    2.00000
  183    -27.69959    2.00000
  184    -27.69922    2.00000
  185    -27.69863    2.00000
  186    -27.69852    2.00000
  187    -27.69835    2.00000
  188    -27.69800    2.00000
  189    -27.69744    2.00000
  190    -27.69739    2.00000
  191    -27.69700    2.00000
  192    -27.69674    2.00000
  193    -27.69662    2.00000
  194    -27.69628    2.00000
  195    -27.69611    2.00000
  196    -27.69583    2.00000
  197    -27.69566    2.00000
  198    -27.69435    2.00000
  199    -27.69428    2.00000
  200    -27.69417    2.00000
  201    -27.69392    2.00000
  202    -27.69373    2.00000
  203    -27.69363    2.00000
  204    -27.69300    2.00000
  205    -27.69186    2.00000
  206    -27.69169    2.00000
  207    -27.69128    2.00000
  208    -27.69109    2.00000
  209    -27.69051    2.00000
  210    -27.68954    2.00000
  211    -27.68902    2.00000
  212    -27.68887    2.00000
  213    -27.68785    2.00000
  214    -27.68753    2.00000
  215    -27.68653    2.00000
  216    -27.68551    2.00000
  217    -27.68512    2.00000
  218    -27.68229    2.00000
  219     -5.89518    2.00000
  220     -5.41460    2.00000
  221     -5.40040    2.00000
  222     -5.33605    2.00000
  223     -4.93347    2.00000
  224     -4.92936    2.00000
  225     -4.87341    2.00000
  226     -4.85345    2.00000
  227     -4.47336    1.99997
  228     -4.46623    1.99997
  229     -4.45495    1.99997
  230     -4.44948    1.99996
  231     -4.43767    1.99996
  232     -4.38847    1.99995
  233     -4.38262    1.99994
  234     -4.01120    1.99933
  235     -3.98832    1.99922
  236     -3.98542    1.99921
  237     -3.94258    1.99895
  238     -3.91725    1.99875
  239     -3.91473    1.99873
  240     -3.91036    1.99869
  241     -3.89999    1.99860
  242     -3.54119    1.98479
  243     -3.48711    1.97825
  244     -3.45131    1.97247
  245     -3.44750    1.97177
  246     -3.28732    1.92004
  247     -3.07522    1.70756
  248     -3.07001    1.69880
  249     -3.06873    1.69660
  250     -3.06741    1.69433
  251     -3.05666    1.67531
  252     -3.02944    1.62289
  253     -3.01456    1.59159
  254     -3.00371    1.56756
  255     -2.84133    1.10232
  256     -2.74248    0.77696
  257     -2.57687    0.34795
  258     -2.56127    0.31905
  259     -2.52965    0.26650
  260     -2.52811    0.26413
  261     -2.52754    0.26326
  262     -2.52259    0.25581
  263     -2.41671    0.13504
  264     -2.32380    0.07502
  265     -2.20122    0.03384
  266     -2.14647    0.02362
  267     -2.14209    0.02294
  268     -1.96205    0.00696
  269     -1.92622    0.00549
  270     -1.90070    0.00463
  271     -1.87846    0.00400
  272     -1.83945    0.00308
  273     -1.76174    0.00184
  274     -1.73595    0.00155
  275     -1.72882    0.00148
  276     -1.71696    0.00136
  277     -1.71455    0.00134
  278     -1.71010    0.00130
  279     -1.70913    0.00129
  280     -1.70313    0.00124
  281     -1.70159    0.00123
  282     -1.67809    0.00105
  283     -1.63144    0.00077
  284     -1.62810    0.00075
  285     -1.44461    0.00022
  286     -1.42072    0.00019
  287     -1.39267    0.00016
  288     -1.34871    0.00012
  289     -1.33602    0.00011
  290     -1.27953    0.00007
  291     -1.10837    0.00002
  292     -1.04409    0.00002
  293     -1.04275    0.00002
  294     -1.02714    0.00001
  295     -1.01614    0.00001
  296     -1.00845    0.00001
  297     -1.00321    0.00001
  298     -0.88553    0.00001
  299     -0.85042    0.00000
  300     -0.83147    0.00000
  301     -0.81844    0.00000
  302     -0.80745    0.00000
  303     -0.76315    0.00000
  304     -0.75992    0.00000
  305     -0.59603    0.00000
  306     -0.59325    0.00000
  307     -0.56907    0.00000
  308     -0.52165    0.00000
  309     -0.52028    0.00000
  310     -0.50850    0.00000

Fermi level: -2.81053

Gap: 0.099 eV
Transition (v -> c):
  (s=0, k=0, n=255, [0.00, 0.00, 0.00]) -> (s=0, k=0, n=256, [0.00, 0.00, 0.00])
No difference between direct/indirect transitions

Forces in eV/Ang:
  0 Na    0.00024    0.00028   -0.00666
  1 Na    0.00039   -0.00442   -0.00468
  2 Na    0.00148   -0.00136   -0.00937
  3 Na    0.00653    0.00381   -0.00590
  4 Na    0.02260    0.00284    0.00714
  5 Na   -0.00454   -0.01667    0.01671
  6 Na    0.04120   -0.03052   -0.11824
  7 Na    0.00002   -0.00578    0.04669
  8 Na   -0.00545   -0.00609    0.00005
  9 Na    0.00407   -0.00280    0.00795
 10 Na    0.00100    0.03043   -0.04353
 11 Na    0.00302   -0.00086    0.01514
 12 Na   -0.01275   -0.00771    0.01629
 13 Na    0.00276   -0.00260    0.01562
 14 Na   -0.00034   -0.02037    0.01631
 15 Na    0.01033    0.00239   -0.00006
 16 Na   -0.00763    0.00589    0.00148
 17 Na    0.00066    0.00705   -0.00226
 18 Na    0.00051   -0.02940   -0.03973
 19 Na    0.00622   -0.00291   -0.00458
 20 Na   -0.01319    0.00333    0.01546
 21 Na    0.00190    0.01953    0.01867
 22 Na   -0.00507    0.00919    0.00301
 23 Na    0.00800    0.01564    0.02291
 24 Na   -0.00161    0.00020   -0.00659
 25 Na    0.00168    0.00274   -0.00641
 26 Na   -0.00132    0.00005    0.00638
 27 Na    0.00068    0.00028    0.00416
 28 Na   -0.02269   -0.00049    0.00999
 29 Na    0.00272    0.00074    0.00110
 30 Na   -0.00539    0.00010   -0.00239
 31 Na   -0.01035   -0.00860    0.01990
 32 Na    0.00547   -0.00287   -0.00254
 33 Na    0.00955    0.00087   -0.01184
 34 Na    0.00230    0.00151    0.00909
 35 Na   -0.00034    0.00024    0.00738
 36 Na    0.01224   -0.00057    0.01448
 37 Na    0.00001    0.00043   -0.00154
 38 Na   -0.01026   -0.00563   -0.00015
 39 Na   -0.00981   -0.00087    0.00243
 40 Na    0.00770    0.00278   -0.00066
 41 Na    0.00298   -0.00359   -0.00722
 42 Na    0.00343   -0.00138    0.00957
 43 Na    0.00020   -0.00068    0.00441
 44 Na    0.01284    0.00110    0.01562
 45 Na    0.00305   -0.00103   -0.00008
 46 Na   -0.01061    0.00540   -0.00032
 47 Na   -0.00375    0.01033    0.01192
 48 Na    0.00046   -0.00122   -0.00390
 49 Na   -0.00091    0.00091   -0.00594
 50 Na   -0.00186   -0.00089    0.00379
 51 Na   -0.00567    0.00391   -0.00862
 52 Na   -0.00084    0.00009   -0.00003
 53 Na    0.00373    0.00075    0.00574
 54 Na    0.00276   -0.00221   -0.00067
 55 Na    0.00111    0.00099   -0.00064
 56 Na   -0.00223    0.00799   -0.01430
 57 Na   -0.01065    0.00050   -0.00677
 58 Na   -0.00398    0.00152    0.00758
 59 Na   -0.00200    0.00365    0.00775
 60 Na   -0.00085   -0.00024   -0.00137
 61 Na   -0.00353    0.00058    0.00148
 62 Na    0.00219   -0.00261   -0.00560
 63 Na    0.00290   -0.00139    0.00042
 64 Na   -0.00256   -0.00681   -0.01725
 65 Na   -0.00226   -0.00141   -0.00648
 66 Na   -0.00437   -0.00028    0.01057
 67 Na   -0.00551   -0.00771   -0.01205
 68 Na   -0.00017    0.00019   -0.00180
 69 Na   -0.00381   -0.00084    0.00375
 70 Na    0.00931    0.00549   -0.00051
 71 Na    0.00237    0.00085    0.00060
 72 Na   -0.02296    0.02612    0.00736

System changes: positions 

Initializing position-dependent things.

Density initialized from wave functions
         .-------------------------------------------.  
        /|                                           |  
       / |                                           |  
      /  |                                           |  
     /   |                                           |  
    /    |                                           |  
   /     |                                           |  
  /      |                                           |  
 *       |                                           |  
 |       |                                           |  
 |       |                                           |  
 |       |                                           |  
 |       |                                           |  
 |       |                                           |  
 |      Na            Na             Na              |  
 |       |    Na            Na             Na        |  
 |   Na  |          Na            Na                 Na 
 |     Na|                    Na            Na       |  
 |       | Na  Na         Na            Na           |  
 |Na     |       Na  Na         Na  Na            Na |  
 |       |  Na         Na  Na         Na  Na         |  
 |      Na        Na  Na         Na  Na              |  
 |       |                                      Na   |  
 |       |Na  Na        Na  Na         Na  Na        |  
 |   Na  |      Na  Na        Na  Na                 |  
 |       | Na  Na         Na  Na        Na  Na       |  
 |    Na |           Na             Na               |  
 |Na     |       Na             Na                   |  
 |      Na  Na         Na  Na         Na  Na         |  
 |  Na   |        Na             Na                  |  
 |       |Na            Na             Na            |  
 |       |                                           |  
 Na      |      Na            Na                     |  
 |       |                                           |  
 |       |                                           |  
 |       |                                           |  
 |       .-------------------------------------------.  
 |      /                                           /   
 |     /                                           /    
 |    /                                           /     
 |   /                                           /      
 |  /                                           /       
 | /                                           /        
 |/                                           /         
 *-------------------------------------------*          

Atomic positions and initial magnetic moments

Positions:
   0 Na     0.000000    0.000000   10.000000    ( 0.0000,  0.0000,  0.0000)
   1 Na     2.991062    2.115000   10.000000    ( 0.0000,  0.0000,  0.0000)
   2 Na     2.991062    0.000000   12.991062    ( 0.0000,  0.0000,  0.0000)
   3 Na     5.982123    2.115000   12.991062    ( 0.0000,  0.0000,  0.0000)
   4 Na    -0.015756   -0.020070   15.918128    ( 0.0000,  0.0000,  0.0000)
   5 Na     2.993817    2.227287   15.818382    ( 0.0000,  0.0000,  0.0000)
   6 Na     2.986576    0.005561   18.497509    ( 0.0000,  0.0000,  0.0000)
   7 Na     0.042188    2.073772   18.943343    ( 0.0000,  0.0000,  0.0000)
   8 Na     0.000000    4.230000   10.000000    ( 0.0000,  0.0000,  0.0000)
   9 Na     2.991062    6.345000   10.000000    ( 0.0000,  0.0000,  0.0000)
  10 Na     2.991062    4.230000   12.991062    ( 0.0000,  0.0000,  0.0000)
  11 Na     5.982123    6.345000   12.991062    ( 0.0000,  0.0000,  0.0000)
  12 Na    -0.006109    4.246640   15.946700    ( 0.0000,  0.0000,  0.0000)
  13 Na     2.992893    6.344005   15.975289    ( 0.0000,  0.0000,  0.0000)
  14 Na     2.983521    4.183087   19.035212    ( 0.0000,  0.0000,  0.0000)
  15 Na     0.000190    6.337570   18.990353    ( 0.0000,  0.0000,  0.0000)
  16 Na     0.000000    8.460000   10.000000    ( 0.0000,  0.0000,  0.0000)
  17 Na     2.991062   10.575000   10.000000    ( 0.0000,  0.0000,  0.0000)
  18 Na     2.991062    8.460000   12.991062    ( 0.0000,  0.0000,  0.0000)
  19 Na     5.982123   10.575000   12.991062    ( 0.0000,  0.0000,  0.0000)
  20 Na    -0.006134    8.463123   15.973820    ( 0.0000,  0.0000,  0.0000)
  21 Na     2.992489   10.463765   15.823456    ( 0.0000,  0.0000,  0.0000)
  22 Na     2.990862    8.498968   19.024447    ( 0.0000,  0.0000,  0.0000)
  23 Na     0.042679   10.624160   19.047154    ( 0.0000,  0.0000,  0.0000)
  24 Na     5.982123    0.000000   10.000000    ( 0.0000,  0.0000,  0.0000)
  25 Na     8.973185    2.115000   10.000000    ( 0.0000,  0.0000,  0.0000)
  26 Na     8.973185    0.000000   12.991062    ( 0.0000,  0.0000,  0.0000)
  27 Na    11.964247    2.115000   12.991062    ( 0.0000,  0.0000,  0.0000)
  28 Na     5.997106    0.000145   15.945297    ( 0.0000,  0.0000,  0.0000)
  29 Na     8.973081    2.112118   15.972307    ( 0.0000,  0.0000,  0.0000)
  30 Na     8.972986    0.000122   18.977034    ( 0.0000,  0.0000,  0.0000)
  31 Na     5.939900    2.073468   19.038618    ( 0.0000,  0.0000,  0.0000)
  32 Na     5.982123    4.230000   10.000000    ( 0.0000,  0.0000,  0.0000)
  33 Na     8.973185    6.345000   10.000000    ( 0.0000,  0.0000,  0.0000)
  34 Na     8.973185    4.230000   12.991062    ( 0.0000,  0.0000,  0.0000)
  35 Na    11.964247    6.345000   12.991062    ( 0.0000,  0.0000,  0.0000)
  36 Na     5.988039    4.226777   15.973937    ( 0.0000,  0.0000,  0.0000)
  37 Na     8.972717    6.345326   15.962479    ( 0.0000,  0.0000,  0.0000)
  38 Na     8.971224    4.227803   18.977941    ( 0.0000,  0.0000,  0.0000)
  39 Na     5.980676    6.344407   18.982458    ( 0.0000,  0.0000,  0.0000)
  40 Na     5.982123    8.460000   10.000000    ( 0.0000,  0.0000,  0.0000)
  41 Na     8.973185   10.575000   10.000000    ( 0.0000,  0.0000,  0.0000)
  42 Na     8.973185    8.460000   12.991062    ( 0.0000,  0.0000,  0.0000)
  43 Na    11.964247   10.575000   12.991062    ( 0.0000,  0.0000,  0.0000)
  44 Na     5.988013    8.463078   15.972617    ( 0.0000,  0.0000,  0.0000)
  45 Na     8.973097   10.577567   15.970977    ( 0.0000,  0.0000,  0.0000)
  46 Na     8.971196    8.462065   18.977776    ( 0.0000,  0.0000,  0.0000)
  47 Na     5.939983   10.617194   19.038033    ( 0.0000,  0.0000,  0.0000)
  48 Na    11.964247    0.000000   10.000000    ( 0.0000,  0.0000,  0.0000)
  49 Na    14.955308    2.115000   10.000000    ( 0.0000,  0.0000,  0.0000)
  50 Na    14.955308    0.000000   12.991062    ( 0.0000,  0.0000,  0.0000)
  51 Na    17.946370    2.115000   12.991062    ( 0.0000,  0.0000,  0.0000)
  52 Na    11.964690    0.000187   15.971220    ( 0.0000,  0.0000,  0.0000)
  53 Na    14.952859    2.112340   15.968703    ( 0.0000,  0.0000,  0.0000)
  54 Na    14.962209    0.007297   18.988451    ( 0.0000,  0.0000,  0.0000)
  55 Na    11.964191    2.113266   18.978578    ( 0.0000,  0.0000,  0.0000)
  56 Na    11.964247    4.230000   10.000000    ( 0.0000,  0.0000,  0.0000)
  57 Na    14.955308    6.345000   10.000000    ( 0.0000,  0.0000,  0.0000)
  58 Na    14.955308    4.230000   12.991062    ( 0.0000,  0.0000,  0.0000)
  59 Na    17.946370    6.345000   12.991062    ( 0.0000,  0.0000,  0.0000)
  60 Na    11.964323    4.233098   15.965638    ( 0.0000,  0.0000,  0.0000)
  61 Na    14.953933    6.344186   15.964491    ( 0.0000,  0.0000,  0.0000)
  62 Na    14.964590    4.220981   18.988194    ( 0.0000,  0.0000,  0.0000)
  63 Na    11.965815    6.344367   18.976918    ( 0.0000,  0.0000,  0.0000)
  64 Na    11.964247    8.460000   10.000000    ( 0.0000,  0.0000,  0.0000)
  65 Na    14.955308   10.575000   10.000000    ( 0.0000,  0.0000,  0.0000)
  66 Na    14.955308    8.460000   12.991062    ( 0.0000,  0.0000,  0.0000)
  67 Na    17.946370   10.575000   12.991062    ( 0.0000,  0.0000,  0.0000)
  68 Na    11.964424    8.456717   15.964215    ( 0.0000,  0.0000,  0.0000)
  69 Na    14.954127   10.578529   15.973523    ( 0.0000,  0.0000,  0.0000)
  70 Na    14.957395    8.461923   18.978544    ( 0.0000,  0.0000,  0.0000)
  71 Na    11.964582   10.577401   18.978559    ( 0.0000,  0.0000,  0.0000)
  72 Na     2.492445    0.353828   21.582402    ( 0.0000,  0.0000,  0.0000)

Unit cell:
           periodic     x           y           z      points  spacing
  1. axis:    yes   17.946370    0.000000    0.000000    88     0.2039
  2. axis:    yes    0.000000   12.690000    0.000000    64     0.1983
  3. axis:    no     0.000000    0.000000   28.973185   144     0.2012

  Lengths:  17.946370  12.690000  28.973185
  Angles:   90.000000  90.000000  90.000000

Effective grid spacing dv^(1/3) = 0.2011

     iter     time        total  log10-change:
                         energy   eigst   dens
[...]
  61 Na    14.953430    6.344276   15.964876    ( 0.0000,  0.0000,  0.0000)
  62 Na    14.964888    4.220639   18.987143    ( 0.0000,  0.0000,  0.0000)
  63 Na    11.966263    6.344155   18.976768    ( 0.0000,  0.0000,  0.0000)
  64 Na    11.964247    8.460000   10.000000    ( 0.0000,  0.0000,  0.0000)
  65 Na    14.955308   10.575000   10.000000    ( 0.0000,  0.0000,  0.0000)
  66 Na    14.955308    8.460000   12.991062    ( 0.0000,  0.0000,  0.0000)
  67 Na    17.946370   10.575000   12.991062    ( 0.0000,  0.0000,  0.0000)
  68 Na    11.964415    8.456740   15.964099    ( 0.0000,  0.0000,  0.0000)
  69 Na    14.953545   10.578391   15.974168    ( 0.0000,  0.0000,  0.0000)
  70 Na    14.958785    8.462709   18.978253    ( 0.0000,  0.0000,  0.0000)
  71 Na    11.964931   10.577538   18.978451    ( 0.0000,  0.0000,  0.0000)
  72 Na     2.489494    0.357417   21.583026    ( 0.0000,  0.0000,  0.0000)

Unit cell:
           periodic     x           y           z      points  spacing
  1. axis:    yes   17.946370    0.000000    0.000000    88     0.2039
  2. axis:    yes    0.000000   12.690000    0.000000    64     0.1983
  3. axis:    no     0.000000    0.000000   28.973185   144     0.2012

  Lengths:  17.946370  12.690000  28.973185
  Angles:   90.000000  90.000000  90.000000

Effective grid spacing dv^(1/3) = 0.2011

     iter     time        total  log10-change:
                         energy   eigst   dens
iter:   1 15:01:54   -87.781619        c
iter:   2 15:02:52   -87.781165        c -3.55
iter:   3 15:03:43   -87.781141c       c -3.89
iter:   4 15:04:35   -87.781116c       c -4.06c

Converged after 4 iterations.

Dipole moment: (-23.351388, -18.873369, 0.306780) |e|*Ang

Energy contributions relative to reference atoms: (reference = -322558.566329)

Kinetic:       +143.442772
Potential:     -130.642192
External:        +0.000000
XC:             -99.515028
Entropy (-ST):   -2.608328
Local:           +0.237495
SIC:             +0.000000
--------------------------
Free energy:    -89.085281
Extrapolated:   -87.781116

 Band  Eigenvalues  Occupancy
    0    -28.53131    2.00000
    1    -28.51066    2.00000
    2    -28.50809    2.00000
    3    -27.94998    2.00000
    4    -27.94001    2.00000
    5    -27.93800    2.00000
    6    -27.93552    2.00000
    7    -27.93434    2.00000
    8    -27.93115    2.00000
    9    -27.92884    2.00000
   10    -27.92805    2.00000
   11    -27.92573    2.00000
   12    -27.92460    2.00000
   13    -27.92455    2.00000
   14    -27.92425    2.00000
   15    -27.92122    2.00000
   16    -27.92087    2.00000
   17    -27.92036    2.00000
   18    -27.91990    2.00000
   19    -27.91944    2.00000
   20    -27.91939    2.00000
   21    -27.91931    2.00000
   22    -27.91829    2.00000
   23    -27.91827    2.00000
   24    -27.91798    2.00000
   25    -27.91704    2.00000
   26    -27.91673    2.00000
   27    -27.91616    2.00000
   28    -27.91534    2.00000
   29    -27.91533    2.00000
   30    -27.91529    2.00000
   31    -27.91517    2.00000
   32    -27.91410    2.00000
   33    -27.91392    2.00000
   34    -27.91356    2.00000
   35    -27.91299    2.00000
   36    -27.91270    2.00000
   37    -27.91223    2.00000
   38    -27.91196    2.00000
   39    -27.91178    2.00000
   40    -27.91173    2.00000
   41    -27.91126    2.00000
   42    -27.91082    2.00000
   43    -27.91075    2.00000
   44    -27.91028    2.00000
   45    -27.91011    2.00000
   46    -27.91000    2.00000
   47    -27.90998    2.00000
   48    -27.90985    2.00000
   49    -27.90966    2.00000
   50    -27.90888    2.00000
   51    -27.90883    2.00000
   52    -27.90784    2.00000
   53    -27.90761    2.00000
   54    -27.90740    2.00000
   55    -27.90713    2.00000
   56    -27.90648    2.00000
   57    -27.90607    2.00000
   58    -27.90570    2.00000
   59    -27.90445    2.00000
   60    -27.90376    2.00000
   61    -27.90371    2.00000
   62    -27.90276    2.00000
   63    -27.90275    2.00000
   64    -27.90230    2.00000
   65    -27.90210    2.00000
   66    -27.90107    2.00000
   67    -27.90079    2.00000
   68    -27.90045    2.00000
   69    -27.89959    2.00000
   70    -27.89935    2.00000
   71    -27.89894    2.00000
   72    -27.89871    2.00000
   73    -27.89784    2.00000
   74    -27.89671    2.00000
   75    -27.89660    2.00000
   76    -27.89578    2.00000
   77    -27.89553    2.00000
   78    -27.89473    2.00000
   79    -27.89450    2.00000
   80    -27.89295    2.00000
   81    -27.89235    2.00000
   82    -27.89218    2.00000
   83    -27.89187    2.00000
   84    -27.89170    2.00000
   85    -27.89139    2.00000
   86    -27.89122    2.00000
   87    -27.89069    2.00000
   88    -27.89048    2.00000
   89    -27.88966    2.00000
   90    -27.88924    2.00000
   91    -27.88878    2.00000
   92    -27.88807    2.00000
   93    -27.88800    2.00000
   94    -27.88684    2.00000
   95    -27.88642    2.00000
   96    -27.88449    2.00000
   97    -27.88237    2.00000
   98    -27.88214    2.00000
   99    -27.87894    2.00000
  100    -27.87772    2.00000
  101    -27.87264    2.00000
  102    -27.87012    2.00000
  103    -27.86698    2.00000
  104    -27.86435    2.00000
  105    -27.84526    2.00000
  106    -27.83604    2.00000
  107    -27.83015    2.00000
  108    -27.73929    2.00000
  109    -27.73816    2.00000
  110    -27.73673    2.00000
  111    -27.73593    2.00000
  112    -27.73426    2.00000
  113    -27.73379    2.00000
  114    -27.73097    2.00000
  115    -27.73042    2.00000
  116    -27.72836    2.00000
  117    -27.72757    2.00000
  118    -27.72550    2.00000
  119    -27.72482    2.00000
  120    -27.72448    2.00000
  121    -27.72411    2.00000
  122    -27.72385    2.00000
  123    -27.72338    2.00000
  124    -27.72305    2.00000
  125    -27.72261    2.00000
  126    -27.72239    2.00000
  127    -27.72168    2.00000
  128    -27.72159    2.00000
  129    -27.72125    2.00000
  130    -27.72070    2.00000
  131    -27.72038    2.00000
  132    -27.71935    2.00000
  133    -27.71901    2.00000
  134    -27.71795    2.00000
  135    -27.71765    2.00000
  136    -27.71714    2.00000
  137    -27.71657    2.00000
  138    -27.71629    2.00000
  139    -27.71616    2.00000
  140    -27.71581    2.00000
  141    -27.71566    2.00000
  142    -27.71513    2.00000
  143    -27.71477    2.00000
  144    -27.71408    2.00000
  145    -27.71362    2.00000
  146    -27.71354    2.00000
  147    -27.71312    2.00000
  148    -27.71273    2.00000
  149    -27.71262    2.00000
  150    -27.71211    2.00000
  151    -27.71192    2.00000
  152    -27.71155    2.00000
  153    -27.71140    2.00000
  154    -27.71123    2.00000
  155    -27.71106    2.00000
  156    -27.71067    2.00000
  157    -27.71044    2.00000
  158    -27.70991    2.00000
  159    -27.70933    2.00000
  160    -27.70921    2.00000
  161    -27.70912    2.00000
  162    -27.70870    2.00000
  163    -27.70828    2.00000
  164    -27.70795    2.00000
  165    -27.70761    2.00000
  166    -27.70737    2.00000
  167    -27.70641    2.00000
  168    -27.70614    2.00000
  169    -27.70571    2.00000
  170    -27.70563    2.00000
  171    -27.70507    2.00000
  172    -27.70434    2.00000
  173    -27.70379    2.00000
  174    -27.70319    2.00000
  175    -27.70285    2.00000
  176    -27.70274    2.00000
  177    -27.70222    2.00000
  178    -27.70182    2.00000
  179    -27.70141    2.00000
  180    -27.70100    2.00000
  181    -27.70056    2.00000
  182    -27.70003    2.00000
  183    -27.69949    2.00000
  184    -27.69915    2.00000
  185    -27.69840    2.00000
  186    -27.69828    2.00000
  187    -27.69821    2.00000
  188    -27.69785    2.00000
  189    -27.69716    2.00000
  190    -27.69697    2.00000
  191    -27.69662    2.00000
  192    -27.69639    2.00000
  193    -27.69631    2.00000
  194    -27.69599    2.00000
  195    -27.69587    2.00000
  196    -27.69560    2.00000
  197    -27.69533    2.00000
  198    -27.69405    2.00000
  199    -27.69399    2.00000
  200    -27.69388    2.00000
  201    -27.69347    2.00000
  202    -27.69311    2.00000
  203    -27.69303    2.00000
  204    -27.69247    2.00000
  205    -27.69168    2.00000
  206    -27.69142    2.00000
  207    -27.69124    2.00000
  208    -27.69051    2.00000
  209    -27.68974    2.00000
  210    -27.68922    2.00000
  211    -27.68907    2.00000
  212    -27.68808    2.00000
  213    -27.68694    2.00000
  214    -27.68668    2.00000
  215    -27.68622    2.00000
  216    -27.68495    2.00000
  217    -27.68468    2.00000
  218    -27.68191    2.00000
  219     -5.89476    2.00000
  220     -5.41445    2.00000
  221     -5.39974    2.00000
  222     -5.33607    2.00000
  223     -4.93337    2.00000
  224     -4.92874    2.00000
  225     -4.87317    2.00000
  226     -4.85340    2.00000
  227     -4.47280    1.99997
  228     -4.46566    1.99997
  229     -4.45437    1.99997
  230     -4.44887    1.99996
  231     -4.43741    1.99996
  232     -4.38829    1.99995
  233     -4.38264    1.99994
  234     -4.01035    1.99933
  235     -3.98792    1.99922
  236     -3.98482    1.99921
  237     -3.94226    1.99894
  238     -3.91707    1.99875
  239     -3.91476    1.99873
  240     -3.91026    1.99869
  241     -3.89992    1.99860
  242     -3.54014    1.98471
  243     -3.48663    1.97823
  244     -3.45138    1.97254
  245     -3.44753    1.97183
  246     -3.28748    1.92027
  247     -3.07489    1.70750
  248     -3.06926    1.69801
  249     -3.06852    1.69673
  250     -3.06671    1.69362
  251     -3.05601    1.67464
  252     -3.02891    1.62238
  253     -3.01399    1.59097
  254     -3.00350    1.56774
  255     -2.84129    1.10312
  256     -2.74253    0.77803
  257     -2.57636    0.34752
  258     -2.56086    0.31885
  259     -2.52937    0.26651
  260     -2.52788    0.26423
  261     -2.52747    0.26360
  262     -2.52266    0.25634
  263     -2.41696    0.13549
  264     -2.32382    0.07517
  265     -2.20113    0.03389
  266     -2.14599    0.02359
  267     -2.14170    0.02293
  268     -1.96169    0.00696
  269     -1.92562    0.00548
  270     -1.90040    0.00463
  271     -1.87873    0.00401
  272     -1.83957    0.00309
  273     -1.76171    0.00184
  274     -1.73502    0.00154
  275     -1.72850    0.00147
  276     -1.71646    0.00136
  277     -1.71418    0.00134
  278     -1.70952    0.00130
  279     -1.70851    0.00129
  280     -1.70335    0.00125
  281     -1.70117    0.00123
  282     -1.67824    0.00106
  283     -1.63138    0.00077
  284     -1.62823    0.00076
  285     -1.44426    0.00022
  286     -1.42041    0.00019
  287     -1.39307    0.00016
  288     -1.34825    0.00012
  289     -1.33650    0.00011
  290     -1.27993    0.00007
  291     -1.10870    0.00002
  292     -1.04386    0.00002
  293     -1.04195    0.00002
  294     -1.02697    0.00001
  295     -1.01611    0.00001
  296     -1.00869    0.00001
  297     -1.00305    0.00001
  298     -0.88489    0.00001
  299     -0.85026    0.00000
  300     -0.83157    0.00000
  301     -0.81854    0.00000
  302     -0.80731    0.00000
  303     -0.76340    0.00000
  304     -0.75984    0.00000
  305     -0.59562    0.00000
  306     -0.59278    0.00000
  307     -0.56875    0.00000
  308     -0.52183    0.00000
  309     -0.52010    0.00000
  310     -0.50866    0.00000

Fermi level: -2.81024

Gap: 0.099 eV
Transition (v -> c):
  (s=0, k=0, n=255, [0.00, 0.00, 0.00]) -> (s=0, k=0, n=256, [0.00, 0.00, 0.00])
No difference between direct/indirect transitions

Forces in eV/Ang:
  0 Na    0.00024    0.00025   -0.00644
  1 Na    0.00042   -0.00422   -0.00457
  2 Na    0.00140   -0.00132   -0.00852
  3 Na    0.00675    0.00394   -0.00541
  4 Na    0.01863    0.00281    0.00663
  5 Na   -0.00433   -0.00975    0.01081
  6 Na    0.03319   -0.02580   -0.08730
  7 Na    0.00160   -0.00679    0.04367
  8 Na   -0.00556   -0.00585    0.00037
  9 Na    0.00412   -0.00274    0.00800
 10 Na    0.00091    0.02981   -0.04232
 11 Na    0.00351   -0.00092    0.01553
 12 Na   -0.01138   -0.00746    0.01599
 13 Na    0.00198   -0.00285    0.01524
 14 Na   -0.00066   -0.01903    0.01569
 15 Na    0.00985    0.00182    0.00052
 16 Na   -0.00772    0.00568    0.00182
 17 Na    0.00072    0.00679   -0.00218
 18 Na    0.00044   -0.02879   -0.03849
 19 Na    0.00644   -0.00303   -0.00419
 20 Na   -0.01152    0.00376    0.01472
 21 Na    0.00135    0.01080    0.01038
 22 Na   -0.00455    0.00816    0.00278
 23 Na    0.00805    0.01544    0.02193
 24 Na   -0.00157    0.00014   -0.00632
 25 Na    0.00168    0.00281   -0.00554
 26 Na   -0.00121    0.00010    0.00618
 27 Na    0.00068    0.00055    0.00360
 28 Na   -0.01804   -0.00012    0.00791
 29 Na    0.00210   -0.00003    0.00062
 30 Na   -0.00453    0.00017   -0.00227
 31 Na   -0.00903   -0.00784    0.01909
 32 Na    0.00550   -0.00265   -0.00216
 33 Na    0.00935    0.00091   -0.01067
 34 Na    0.00268    0.00169    0.00868
 35 Na   -0.00039    0.00022    0.00669
 36 Na    0.01056   -0.00120    0.01369
 37 Na    0.00062    0.00029   -0.00128
 38 Na   -0.00975   -0.00494   -0.00008
 39 Na   -0.00972   -0.00090    0.00300
 40 Na    0.00771    0.00262   -0.00028
 41 Na    0.00290   -0.00372   -0.00635
 42 Na    0.00384   -0.00159    0.00894
 43 Na    0.00017   -0.00094    0.00381
 44 Na    0.01105    0.00154    0.01474
 45 Na    0.00257   -0.00016   -0.00035
 46 Na   -0.00980    0.00471   -0.00016
 47 Na   -0.00215    0.00832    0.01185
 48 Na    0.00038   -0.00119   -0.00290
 49 Na   -0.00089    0.00112   -0.00522
 50 Na   -0.00187   -0.00078    0.00414
 51 Na   -0.00591    0.00415   -0.00817
 52 Na   -0.00043    0.00020   -0.00005
 53 Na    0.00352   -0.00028    0.00484
 54 Na    0.00203   -0.00214   -0.00049
 55 Na    0.00085    0.00092   -0.00038
 56 Na   -0.00219    0.00804   -0.01293
 57 Na   -0.01045    0.00052   -0.00572
 58 Na   -0.00425    0.00163    0.00755
 59 Na   -0.00242    0.00341    0.00870
 60 Na   -0.00063   -0.00030   -0.00145
 61 Na   -0.00348    0.00051    0.00122
 62 Na    0.00261   -0.00194   -0.00505
 63 Na    0.00225   -0.00103    0.00056
 64 Na   -0.00253   -0.00689   -0.01589
 65 Na   -0.00220   -0.00164   -0.00577
 66 Na   -0.00472   -0.00044    0.01029
 67 Na   -0.00572   -0.00779   -0.01139
 68 Na   -0.00016    0.00014   -0.00169
 69 Na   -0.00305    0.00014    0.00309
 70 Na    0.00913    0.00499   -0.00027
 71 Na    0.00195    0.00052    0.00081
 72 Na   -0.02029    0.02453   -0.01048

Timing:                                       incl.     excl.
--------------------------------------------------------------------
Basic WFS set positions:                      0.282     0.032   0.0% |
 Redistribute:                                0.250     0.250   0.0% |
Basis functions set positions:               20.820    20.820   0.1% |
Forces:                                     937.501     9.568   0.1% |
 LCAO forces:                               927.933     2.148   0.0% |
  Atomic Hamiltonian force:                   6.042     6.042   0.0% |
  Initial:                                    0.291     0.002   0.0% |
   Get density matrix:                        0.289     0.289   0.0% |
  Paw correction:                             8.450     8.450   0.1% |
  Potential:                                885.213   885.213   5.5% |-|
  TCI derivative:                            25.781    25.781   0.2% |
  Wait for sum:                               0.008     0.008   0.0% |
LCAO WFS Initialize:                        220.759     2.315   0.0% |
 Density initialized from wave functions:   190.313    20.729   0.1% |
  Calculate density matrix:                   2.465     2.465   0.0% |
  Construct density:                        167.109   167.109   1.0% |
  Symmetrize density:                         0.009     0.009   0.0% |
 Hamiltonian:                                28.131     0.009   0.0% |
  Atomic:                                     6.666     0.045   0.0% |
   XC Correction:                             6.621     6.621   0.0% |
  Calculate atomic Hamiltonians:              0.574     0.574   0.0% |
  Communicate:                                0.000     0.000   0.0% |
  Hartree integrate/restrict:                 0.789     0.789   0.0% |
  Initialize Hamiltonian:                     0.025     0.025   0.0% |
  Poisson:                                   10.548     5.654   0.0% |
   Communicate from 1D:                       0.811     0.811   0.0% |
   Communicate from 2D:                       0.386     0.386   0.0% |
   Communicate to 1D:                         0.306     0.306   0.0% |
   Communicate to 2D:                         1.212     1.212   0.0% |
   FFT 1D:                                    0.954     0.954   0.0% |
   FFT 2D:                                    1.225     1.225   0.0% |
  XC 3D grid:                                 6.328     6.328   0.0% |
  vbar:                                       3.191     3.191   0.0% |
P tci:                                       12.979    12.979   0.1% |
Redistribute:                                 0.011     0.011   0.0% |
SCF-cycle:                                 1657.716     0.221   0.0% |
 Density:                                   647.383     0.001   0.0% |
  Atomic density matrices:                    0.170     0.170   0.0% |
  Mix:                                       10.778    10.778   0.1% |
  Multipole moments:                          0.036     0.036   0.0% |
  Normalize:                                  0.014     0.014   0.0% |
  Pseudo density:                           636.384     0.212   0.0% |
   Calculate density matrix:                  0.600     0.600   0.0% |
   Construct density:                       635.567   635.567   3.9% |-|
   Symmetrize density:                        0.006     0.006   0.0% |
 Hamiltonian:                                72.098     0.007   0.0% |
  Atomic:                                    25.456     0.123   0.0% |
   XC Correction:                            25.333    25.333   0.2% |
  Calculate atomic Hamiltonians:              1.378     1.378   0.0% |
  Communicate:                                0.001     0.001   0.0% |
  Hartree integrate/restrict:                 0.672     0.672   0.0% |
  Poisson:                                   18.222     2.557   0.0% |
   Communicate from 1D:                       1.593     1.593   0.0% |
   Communicate from 2D:                       1.337     1.337   0.0% |
   Communicate to 1D:                         1.029     1.029   0.0% |
   Communicate to 2D:                         3.144     3.144   0.0% |
   FFT 1D:                                    3.146     3.146   0.0% |
   FFT 2D:                                    5.416     5.416   0.0% |
  XC 3D grid:                                24.813    24.813   0.2% |
  vbar:                                       1.550     1.550   0.0% |
 LCAO eigensolver:                          938.015     0.239   0.0% |
  Calculate projections:                      0.500     0.500   0.0% |
  DenseAtomicCorrection:                      6.452     6.452   0.0% |
  Distribute overlap matrix:                  0.005     0.005   0.0% |
  Orbital Layouts:                           14.649    14.649   0.1% |
  Potential matrix:                         916.169   916.169   5.7% |-|
ST tci:                                       9.614     9.614   0.1% |
Set symmetry:                                 0.001     0.001   0.0% |
TCI: Evaluate splines:                        0.087     0.087   0.0% |
mktci:                                        1.947     1.947   0.0% |
Other:                                    13307.957 13307.957  82.3% |--------------------------------|
--------------------------------------------------------------------
Total:                                              16169.674 100.0%

Memory usage: 3.67 GiB
Date: Wed Nov 26 15:55:26 2025
