177
Lattice="19.74242133072841 0.0 0.0 0.0 13.96 0.0 0.0 0.0 32.33901333170526" Properties=species:S:1:pos:R:3:move_mask:L:1:tags:I:1:magmoms:R:1:forces:R:3 energy=-310.4494022668837 free_energy=-313.31935376925213 dipole="-40.5098325181218 -14.146853190629855 0.7306432877608281" magmom=0.0 pbc="T T F"
Li       0.00000000       0.00000000      10.00000000  F        6       0.00000000      -0.00131704      -0.00130678       0.12706951
Li       2.46780267       1.74500000      10.00000000  F        6       0.00000000      -0.00401973      -0.00171794       0.12571369
Li       2.46780267       0.00000000      12.46780267  F        5       0.00000000       0.00124750      -0.00102834      -0.05502152
Li       0.00000000       1.74500000      12.46780267  F        5       0.00000000      -0.00095107       0.00140844      -0.05936806
Li       4.93560533       0.00000000      14.93560533  F        4       0.00000000      -0.00051706       0.02157609      -0.05612281
Li       2.46780267       1.74500000      14.93560533  F        4       0.00000000       0.00293575       0.03133709      -0.07043857
Li       2.46547781       0.06272669      17.32379878  T        3       0.00000000      -0.00334236       0.01106164      -0.02853964
Li       4.93790441       1.72415446      17.42264122  T        3       0.00000000      -0.00683538       0.00033422      -0.01108373
Li       4.91788207      -0.06115102      19.89948661  T        2       0.00000000       0.01387487       0.01537384      -0.01095174
Li       2.52230439       1.67913312      19.84638500  T        2       0.00000000      -0.01786479       0.01424326       0.01401050
Li       2.43344202      -0.15591918      22.18713663  T        1       0.00000000       0.01000104      -0.01088540      -0.02621673
Li      -0.11121697       1.70798673      22.05034765  T        1       0.00000000       0.01443238      -0.01138396      -0.01316928
Li       0.00000000       3.49000000      10.00000000  F        6       0.00000000      -0.00048634       0.00000000       0.12627755
Li       2.46780267       5.23500000      10.00000000  F        6       0.00000000      -0.00401973       0.00171794       0.12571369
Li       2.46780267       3.49000000      12.46780267  F        5       0.00000000       0.00108633       0.00000000      -0.06546592
Li       0.00000000       5.23500000      12.46780267  F        5       0.00000000      -0.00095107      -0.00140844      -0.05936806
Li       4.93560533       3.49000000      14.93560533  F        4       0.00000000      -0.00896837       0.00000000       0.00062647
Li       2.46780267       5.23500000      14.93560533  F        4       0.00000000       0.00293575      -0.03133709      -0.07043857
Li       2.47545943       3.49000000      17.41410395  T        3       0.00000000      -0.00507058      -0.00000000      -0.01073446
Li       4.93790441       5.25584554      17.42264122  T        3       0.00000000      -0.00683538      -0.00033422      -0.01108373
Li       4.85758975       3.49000000      19.84464557  T        2       0.00000000       0.02094939       0.00000000       0.00214854
Li       2.52230439       5.30086688      19.84638500  T        2       0.00000000      -0.01786479      -0.01424326       0.01401050
Li       2.39878795       3.49000000      22.15280221  T        1       0.00000000       0.01289162      -0.00000000      -0.04245827
Li      -0.11121697       5.27201327      22.05034765  T        1       0.00000000       0.01443238       0.01138396      -0.01316928
Li       0.00000000       6.98000000      10.00000000  F        6       0.00000000      -0.00131704       0.00130678       0.12706951
Li       2.46780267       8.72500000      10.00000000  F        6       0.00000000      -0.00365138      -0.00031745       0.12308718
Li       2.46780267       6.98000000      12.46780267  F        5       0.00000000       0.00124750       0.00102834      -0.05502152
Li       0.00000000       8.72500000      12.46780267  F        5       0.00000000      -0.00024696       0.00015656      -0.05200488
Li       4.93560533       6.98000000      14.93560533  F        4       0.00000000      -0.00051706      -0.02157609      -0.05612281
Li       2.46780267       8.72500000      14.93560533  F        4       0.00000000       0.00544388      -0.01200576      -0.03701449
Li       2.46547781       6.91727331      17.32379878  T        3       0.00000000      -0.00334236      -0.01106164      -0.02853964
Li       4.92666391       8.68664415      17.36278669  T        3       0.00000000       0.01275402       0.00790602      -0.00686418
Li       4.91788207       7.04115102      19.89948661  T        2       0.00000000       0.01387487      -0.01537384      -0.01095174
Li       2.53699380       8.61898630      19.59127529  T        2       0.00000000      -0.01364457      -0.00824192      -0.02541370
Li       2.43344202       7.13591918      22.18713663  T        1       0.00000000       0.01000104       0.01088540      -0.02621673
Li       0.00526181       8.87870614      22.15679350  T        1       0.00000000       0.02362092       0.00152320      -0.02456961
Li       0.00000000      10.47000000      10.00000000  F        6       0.00000000      -0.00157991      -0.00000000       0.12450409
Li       2.46780267      12.21500000      10.00000000  F        6       0.00000000      -0.00365138       0.00031745       0.12308718
Li       2.46780267      10.47000000      12.46780267  F        5       0.00000000       0.00107499      -0.00000000      -0.05487508
Li       0.00000000      12.21500000      12.46780267  F        5       0.00000000      -0.00024696      -0.00015656      -0.05200488
Li       4.93560533      10.47000000      14.93560533  F        4       0.00000000      -0.00135609      -0.00000000      -0.03436897
Li       2.46780267      12.21500000      14.93560533  F        4       0.00000000       0.00544388       0.01200576      -0.03701449
Li       2.47552331      10.47000000      17.34500630  T        3       0.00000000      -0.00150312      -0.00000000       0.01126172
Li       4.92666391      12.25335585      17.36278669  T        3       0.00000000       0.01275402      -0.00790602      -0.00686418
Li       4.88080308      10.47000000      19.76225446  T        2       0.00000000       0.02653329      -0.00000000      -0.01999964
Li       2.53699380      12.32101370      19.59127529  T        2       0.00000000      -0.01364457       0.00824192      -0.02541370
Li       2.45286891      10.47000000      21.56204974  T        1       0.00000000      -0.01479790      -0.00000000      -0.04004622
Li       0.00526181      12.06129386      22.15679350  T        1       0.00000000       0.02362092      -0.00152320      -0.02456961
Li       4.93560533       0.00000000      10.00000000  F        6       0.00000000       0.00312225      -0.00189208       0.12792086
Li       7.40340800       1.74500000      10.00000000  F        6       0.00000000       0.00131966      -0.00174343       0.12642816
Li       7.40340800       0.00000000      12.46780267  F        5       0.00000000       0.00050671       0.00009462      -0.05836717
Li       4.93560533       1.74500000      12.46780267  F        5       0.00000000      -0.00076343       0.00170531      -0.06372843
Li       9.87121067       0.00000000      14.93560533  F        4       0.00000000       0.00498492      -0.00169957      -0.02780868
Li       7.40340800       1.74500000      14.93560533  F        4       0.00000000       0.00100665      -0.00224309      -0.06326652
Li       7.40057845      -0.00138288      17.32650270  T        3       0.00000000      -0.00205939      -0.00201517       0.00942558
Li       9.86887724       1.74360746      17.38217127  T        3       0.00000000      -0.00158645      -0.00237972      -0.01019015
Li       9.70690465       0.00008657      19.79554367  T        2       0.00000000       0.00610799      -0.00212094      -0.01583570
Li       7.24258101       1.74072647      19.69386419  T        2       0.00000000       0.01266594       0.00110248      -0.00055890
Li       7.45046818      -0.05800853      22.02964653  T        1       0.00000000      -0.00720768       0.00355071      -0.01812088
Li       4.95608764       1.74460151      22.17889705  T        1       0.00000000      -0.01680331      -0.00546910      -0.01897953
Li       4.93560533       3.49000000      10.00000000  F        6       0.00000000       0.00246885      -0.00000000       0.12683891
Li       7.40340800       5.23500000      10.00000000  F        6       0.00000000       0.00131966       0.00174343       0.12642816
Li       7.40340800       3.49000000      12.46780267  F        5       0.00000000      -0.00066606       0.00000000      -0.05454276
Li       4.93560533       5.23500000      12.46780267  F        5       0.00000000      -0.00076343      -0.00170531      -0.06372843
Li       9.87121067       3.49000000      14.93560533  F        4       0.00000000       0.00202423       0.00000000      -0.02682845
Li       7.40340800       5.23500000      14.93560533  F        4       0.00000000       0.00100665       0.00224309      -0.06326652
Li       7.38154876       3.49000000      17.32999492  T        3       0.00000000       0.00510879      -0.00000000       0.00704378
Li       9.86887724       5.23639254      17.38217127  T        3       0.00000000      -0.00158645       0.00237972      -0.01019015
Li       9.72202736       3.49000000      19.76640311  T        2       0.00000000       0.00240562       0.00000000      -0.01170827
Li       7.24258101       5.23927353      19.69386419  T        2       0.00000000       0.01266594      -0.00110248      -0.00055890
Li       7.51706428       3.49000000      22.01526328  T        1       0.00000000      -0.01514930       0.00000000      -0.00554039
Li       4.95608764       5.23539849      22.17889705  T        1       0.00000000      -0.01680331       0.00546910      -0.01897953
Li       4.93560533       6.98000000      10.00000000  F        6       0.00000000       0.00312225       0.00189208       0.12792086
Li       7.40340800       8.72500000      10.00000000  F        6       0.00000000      -0.00058583       0.00034572       0.12480506
Li       7.40340800       6.98000000      12.46780267  F        5       0.00000000       0.00050671      -0.00009462      -0.05836717
Li       4.93560533       8.72500000      12.46780267  F        5       0.00000000      -0.00197426      -0.00033822      -0.05737942
Li       9.87121067       6.98000000      14.93560533  F        4       0.00000000       0.00498492       0.00169957      -0.02780868
Li       7.40340800       8.72500000      14.93560533  F        4       0.00000000       0.00438819      -0.00529614      -0.07531026
Li       7.40057845       6.98138288      17.32650270  T        3       0.00000000      -0.00205939       0.00201517       0.00942558
Li       9.86950033       8.72837059      17.38699677  T        3       0.00000000      -0.00187567       0.00146187      -0.00985260
Li       9.70690465       6.97991343      19.79554367  T        2       0.00000000       0.00610799       0.00212094      -0.01583570
Li       7.25259151       8.75709968      19.67186167  T        2       0.00000000       0.03136704      -0.01380725      -0.00111969
Li       7.45046818       7.03800853      22.02964653  T        1       0.00000000      -0.00720768      -0.00355071      -0.01812088
Li       4.89588798       8.85708963      22.27833764  T        1       0.00000000      -0.02059608       0.00452603      -0.03699823
Li       4.93560533      10.47000000      10.00000000  F        6       0.00000000       0.00371473      -0.00000000       0.12472007
Li       7.40340800      12.21500000      10.00000000  F        6       0.00000000      -0.00058583      -0.00034572       0.12480506
Li       7.40340800      10.47000000      12.46780267  F        5       0.00000000       0.00100938      -0.00000000      -0.05566369
Li       4.93560533      12.21500000      12.46780267  F        5       0.00000000      -0.00197426       0.00033822      -0.05737942
Li       9.87121067      10.47000000      14.93560533  F        4       0.00000000       0.00262575      -0.00000000      -0.02684408
Li       7.40340800      12.21500000      14.93560533  F        4       0.00000000       0.00438819       0.00529614      -0.07531026
Li       7.37447933      10.47000000      17.31284354  T        3       0.00000000      -0.00097314       0.00000000      -0.00421023
Li       9.86950033      12.21162941      17.38699677  T        3       0.00000000      -0.00187567      -0.00146187      -0.00985260
Li       9.72162483      10.47000000      19.79060802  T        2       0.00000000       0.01133141      -0.00000000      -0.01705747
Li       7.25259151      12.18290032      19.67186167  T        2       0.00000000       0.03136704       0.01380725      -0.00111969
Li       7.50430573      10.47000000      22.02981027  T        1       0.00000000       0.00026534      -0.00000000      -0.01196691
Li       4.89588798      12.08291037      22.27833764  T        1       0.00000000      -0.02059608      -0.00452603      -0.03699823
Li       9.87121067       0.00000000      10.00000000  F        6       0.00000000      -0.00014409      -0.00021161       0.12344277
Li      12.33901333       1.74500000      10.00000000  F        6       0.00000000       0.00049467       0.00078086       0.12337124
Li      12.33901333       0.00000000      12.46780267  F        5       0.00000000      -0.00025926       0.00035589      -0.05961938
Li       9.87121067       1.74500000      12.46780267  F        5       0.00000000       0.00126451       0.00008327      -0.05794609
Li      14.80681600       0.00000000      14.93560533  F        4       0.00000000      -0.00415880       0.00060000      -0.05504384
Li      12.33901333       1.74500000      14.93560533  F        4       0.00000000       0.00445236       0.00007132      -0.05518534
Li      12.33901829       0.00032344      17.33113866  T        3       0.00000000      -0.00206759      -0.00024975       0.03220786
Li      14.80715382       1.74686924      17.32817998  T        3       0.00000000       0.00387020      -0.00310887       0.03535559
Li      14.87127189      -0.00158812      19.67834755  T        2       0.00000000      -0.00735252      -0.00254594      -0.01821510
Li      12.27939718       1.74319010      19.67836514  T        2       0.00000000       0.00862421      -0.00140476      -0.01662974
Li       9.87121067       3.49000000      10.00000000  F        6       0.00000000       0.00165633       0.00000000       0.12508440
Li      12.33901333       5.23500000      10.00000000  F        6       0.00000000       0.00049467      -0.00078086       0.12337124
Li      12.33901333       3.49000000      12.46780267  F        5       0.00000000      -0.00062515      -0.00000000      -0.05939362
Li       9.87121067       5.23500000      12.46780267  F        5       0.00000000       0.00126451      -0.00008327      -0.05794609
Li      14.80681600       3.49000000      14.93560533  F        4       0.00000000      -0.00474250       0.00000000      -0.05911616
Li      12.33901333       5.23500000      14.93560533  F        4       0.00000000       0.00445236      -0.00007132      -0.05518534
Li      12.33816690       3.49000000      17.33064156  T        3       0.00000000      -0.00273945       0.00000000       0.03351905
Li      14.80715382       5.23313076      17.32817998  T        3       0.00000000       0.00387020       0.00310887       0.03535559
Li      14.86292348       3.49000000      19.67744156  T        2       0.00000000      -0.01202597      -0.00000000      -0.01976038
Li      12.27939718       5.23680990      19.67836514  T        2       0.00000000       0.00862421       0.00140476      -0.01662974
Li       9.87121067       6.98000000      10.00000000  F        6       0.00000000      -0.00014409       0.00021161       0.12344277
Li      12.33901333       8.72500000      10.00000000  F        6       0.00000000       0.00001250      -0.00025704       0.12454047
Li      12.33901333       6.98000000      12.46780267  F        5       0.00000000      -0.00025926      -0.00035589      -0.05961938
Li       9.87121067       8.72500000      12.46780267  F        5       0.00000000       0.00177407       0.00000218      -0.05911461
Li      14.80681600       6.98000000      14.93560533  F        4       0.00000000      -0.00415880      -0.00060000      -0.05504384
Li      12.33901333       8.72500000      14.93560533  F        4       0.00000000       0.00346806      -0.00005194      -0.05470129
Li      12.33901829       6.97967656      17.33113866  T        3       0.00000000      -0.00206759       0.00024975       0.03220786
Li      14.80182709       8.72703211      17.32558477  T        3       0.00000000       0.00251369       0.00351568       0.03438577
Li      14.87127189       6.98158812      19.67834755  T        2       0.00000000      -0.00735252       0.00254594      -0.01821510
Li      12.27887368       8.72475174      19.67890974  T        2       0.00000000       0.01118300      -0.00137635      -0.01670782
Li       9.87121067      10.47000000      10.00000000  F        6       0.00000000      -0.00077694       0.00000000       0.12369609
Li      12.33901333      12.21500000      10.00000000  F        6       0.00000000       0.00001250       0.00025704       0.12454047
Li      12.33901333      10.47000000      12.46780267  F        5       0.00000000       0.00014825      -0.00000000      -0.05878582
Li       9.87121067      12.21500000      12.46780267  F        5       0.00000000       0.00177407      -0.00000218      -0.05911461
Li      14.80681600      10.47000000      14.93560533  F        4       0.00000000      -0.00024054      -0.00000000      -0.05517575
Li      12.33901333      12.21500000      14.93560533  F        4       0.00000000       0.00346806       0.00005194      -0.05470129
Li      12.34089344      10.47000000      17.33015813  T        3       0.00000000      -0.00403198       0.00000000       0.03473103
Li      14.80182709      12.21296789      17.32558477  T        3       0.00000000       0.00251369      -0.00351568       0.03438577
Li      14.86920243      10.47000000      19.67482618  T        2       0.00000000      -0.01006052      -0.00000000      -0.01728586
Li      12.27887368      12.21524826      19.67890974  T        2       0.00000000       0.01118300       0.00137635      -0.01670782
Li      14.80681600       0.00000000      10.00000000  F        6       0.00000000      -0.00028049      -0.00006476       0.12425821
Li      17.27461866       1.74500000      10.00000000  F        6       0.00000000       0.00103718      -0.00179944       0.12315955
Li      17.27461866       0.00000000      12.46780267  F        5       0.00000000      -0.00156613       0.00013681      -0.05900178
Li      14.80681600       1.74500000      12.46780267  F        5       0.00000000       0.00062210      -0.00023014      -0.06022838
Li      19.74242133       0.00000000      14.93560533  F        4       0.00000000      -0.00638105       0.02427330      -0.08527154
Li      17.27461866       1.74500000      14.93560533  F        4       0.00000000      -0.00268108      -0.01082070      -0.01793758
Li      17.26912334      -0.01610998      17.40234901  T        3       0.00000000       0.00489168      -0.00882598      -0.00423353
Li      19.74030197       1.73471917      17.35903549  T        3       0.00000000       0.00981597       0.00223881       0.00110709
Li      19.88427478      -0.05949482      19.74053813  T        2       0.00000000      -0.02136536       0.01822654      -0.00538737
Li      17.42704326       1.75802318      19.77331978  T        2       0.00000000       0.00433372      -0.00488714      -0.00808870
Li      14.80681600       3.49000000      10.00000000  F        6       0.00000000      -0.00236612      -0.00000000       0.12573870
Li      17.27461866       5.23500000      10.00000000  F        6       0.00000000       0.00103718       0.00179944       0.12315955
Li      17.27461866       3.49000000      12.46780267  F        5       0.00000000      -0.00008893      -0.00000000      -0.05422366
Li      14.80681600       5.23500000      12.46780267  F        5       0.00000000       0.00062210       0.00023014      -0.06022838
Li      19.74242133       3.49000000      14.93560533  F        4       0.00000000       0.00366799       0.00000000      -0.03617064
Li      17.27461866       5.23500000      14.93560533  F        4       0.00000000      -0.00268108       0.01082070      -0.01793758
Li      17.27739362       3.49000000      17.37463196  T        3       0.00000000      -0.00759766       0.00000000      -0.00768346
Li      19.74030197       5.24528083      17.35903549  T        3       0.00000000       0.00981597      -0.00223881       0.00110709
Li      19.91479774       3.49000000      19.72296398  T        2       0.00000000      -0.00882935      -0.00000000      -0.00227985
Li      17.42704326       5.22197682      19.77331978  T        2       0.00000000       0.00433372       0.00488714      -0.00808870
Li      14.80681600       6.98000000      10.00000000  F        6       0.00000000      -0.00028049       0.00006476       0.12425821
Li      17.27461866       8.72500000      10.00000000  F        6       0.00000000       0.00236078       0.00023314       0.12152301
Li      17.27461866       6.98000000      12.46780267  F        5       0.00000000      -0.00156613      -0.00013681      -0.05900178
Li      14.80681600       8.72500000      12.46780267  F        5       0.00000000       0.00012418       0.00028356      -0.06044982
Li      19.74242133       6.98000000      14.93560533  F        4       0.00000000      -0.00638105      -0.02427330      -0.08527154
Li      17.27461866       8.72500000      14.93560533  F        4       0.00000000      -0.00682505       0.00250545      -0.02258570
Li      17.26912334       6.99610998      17.40234901  T        3       0.00000000       0.00489168       0.00882598      -0.00423353
Li      19.76919516       8.68999087      17.30342631  T        3       0.00000000      -0.00876892       0.00962673       0.00032126
Li      19.88427478       7.03949482      19.74053813  T        2       0.00000000      -0.02136536      -0.01822654      -0.00538737
Li      17.44982275       8.74167768      19.86496805  T        2       0.00000000      -0.02373525      -0.00654640      -0.02398465
Li      14.80681600      10.47000000      10.00000000  F        6       0.00000000       0.00080220      -0.00000000       0.12490281
Li      17.27461866      12.21500000      10.00000000  F        6       0.00000000       0.00236078      -0.00023314       0.12152301
Li      17.27461866      10.47000000      12.46780267  F        5       0.00000000      -0.00126130      -0.00000000      -0.05755959
Li      14.80681600      12.21500000      12.46780267  F        5       0.00000000       0.00012418      -0.00028356      -0.06044982
Li      19.74242133      10.47000000      14.93560533  F        4       0.00000000      -0.00532520       0.00000000      -0.05717817
Li      17.27461866      12.21500000      14.93560533  F        4       0.00000000      -0.00682505      -0.00250545      -0.02258570
Li      17.29438268      10.47000000      17.41192063  T        3       0.00000000      -0.00151465       0.00000000      -0.00884302
Li      19.76919516      12.25000913      17.30342631  T        3       0.00000000      -0.00876892      -0.00962673       0.00032126
Li      19.89618116      10.47000000      19.61686630  T        2       0.00000000      -0.01183622      -0.00000000      -0.01246654
Li      17.44982275      12.19832232      19.86496805  T        2       0.00000000      -0.02373525       0.00654640      -0.02398465
Li       2.47906041      10.47000000      24.13383210  T        0       0.00000000      -0.01063153      -0.00000000       0.03824601
