177
Lattice="19.74242133072841 0.0 0.0 0.0 13.96 0.0 0.0 0.0 32.33901333170526" Properties=species:S:1:pos:R:3:move_mask:L:1:tags:I:1:magmoms:R:1:forces:R:3 energy=-310.5003486541744 free_energy=-313.3751697575403 dipole="-38.73601913194563 -18.526836801677756 0.7770053235571984" magmom=0.0 pbc="T T F"
Li       0.00000000       0.00000000      10.00000000  F        6       0.00000000      -0.00077818      -0.00158733       0.12727229
Li       2.46780267       1.74500000      10.00000000  F        6       0.00000000      -0.00441660      -0.00000000       0.12467949
Li       2.46780267       0.00000000      12.46780267  F        5       0.00000000       0.00093194       0.00042757      -0.06124625
Li       0.00000000       1.74500000      12.46780267  F        5       0.00000000      -0.00081283      -0.00000000      -0.06053090
Li       4.93560533       0.00000000      14.93560533  F        4       0.00000000      -0.00429160       0.00477419      -0.05089426
Li       2.46780267       1.74500000      14.93560533  F        4       0.00000000       0.00395603       0.00000000      -0.06462097
Li       2.47239792       0.00568004      17.34781095  T        3       0.00000000      -0.00350444      -0.00472759       0.01031554
Li       4.93109625       1.74500000      17.38119173  T        3       0.00000000       0.00279306       0.00000000      -0.00013234
Li       4.89081763      -0.01752235      19.81717513  T        2       0.00000000       0.00907388      -0.00125121       0.00430064
Li       2.52214595       1.74500000      19.76925930  T        2       0.00000000      -0.01506489      -0.00000000       0.01100402
Li       2.40862541      -0.01699922      22.09075792  T        1       0.00000000       0.00598730       0.00346618      -0.02743521
Li      -0.13352079       1.74500000      22.00056101  T        1       0.00000000       0.00262736      -0.00000000      -0.01536283
Li       0.00000000       3.49000000      10.00000000  F        6       0.00000000      -0.00077818       0.00158733       0.12727229
Li       2.46780267       5.23500000      10.00000000  F        6       0.00000000      -0.00375024       0.00104910       0.12502015
Li       2.46780267       3.49000000      12.46780267  F        5       0.00000000       0.00093194      -0.00042757      -0.06124625
Li       0.00000000       5.23500000      12.46780267  F        5       0.00000000      -0.00045489       0.00050212      -0.05511604
Li       4.93560533       3.49000000      14.93560533  F        4       0.00000000      -0.00429160      -0.00477419      -0.05089426
Li       2.46780267       5.23500000      14.93560533  F        4       0.00000000       0.00453490      -0.01808895      -0.07972372
Li       2.47239792       3.48431996      17.34781095  T        3       0.00000000      -0.00350444       0.00472759       0.01031554
Li       4.93461529       5.23004584      17.36378692  T        3       0.00000000       0.00232254      -0.00131381      -0.00114418
Li       4.89081763       3.50752235      19.81717513  T        2       0.00000000       0.00907388       0.00125121       0.00430064
Li       2.52370110       5.24876313      19.74118280  T        2       0.00000000      -0.01584370      -0.02839451      -0.01731606
Li       2.40862541       3.50699922      22.09075792  T        1       0.00000000       0.00598730      -0.00346618      -0.02743521
Li      -0.09064743       5.30229041      22.03622674  T        1       0.00000000       0.00648864      -0.00158301      -0.01073369
Li       0.00000000       6.98000000      10.00000000  F        6       0.00000000      -0.00114339      -0.00002055       0.12513645
Li       2.46780267       8.72500000      10.00000000  F        6       0.00000000      -0.00319213      -0.00000000       0.12223564
Li       2.46780267       6.98000000      12.46780267  F        5       0.00000000       0.00096095       0.00086397      -0.05409336
Li       0.00000000       8.72500000      12.46780267  F        5       0.00000000      -0.00018605      -0.00000000      -0.05261716
Li       4.93560533       6.98000000      14.93560533  F        4       0.00000000      -0.00247473      -0.00716649      -0.06049380
Li       2.46780267       8.72500000      14.93560533  F        4       0.00000000       0.00533218      -0.00000000      -0.05370163
Li       2.47235225       6.95158111      17.31722980  T        3       0.00000000      -0.00159186       0.00166560       0.01409975
Li       4.92451095       8.72500000      17.34830696  T        3       0.00000000       0.01039115      -0.00000000       0.00266332
Li       4.89588735       6.98921042      19.79395969  T        2       0.00000000       0.02320773      -0.00322012      -0.00432697
Li       2.52777990       8.72500000      19.64651853  T        2       0.00000000      -0.01527993       0.00000000      -0.00365022
Li       2.45239727       6.98702058      21.98859406  T        1       0.00000000      -0.00583972       0.00819506      -0.02913158
Li       0.03931269       8.72500000      22.11187477  T        1       0.00000000       0.02600982       0.00000000      -0.01558908
Li       0.00000000      10.47000000      10.00000000  F        6       0.00000000      -0.00114339       0.00002055       0.12513645
Li       2.46780267      12.21500000      10.00000000  F        6       0.00000000      -0.00375024      -0.00104910       0.12502015
Li       2.46780267      10.47000000      12.46780267  F        5       0.00000000       0.00096095      -0.00086397      -0.05409336
Li       0.00000000      12.21500000      12.46780267  F        5       0.00000000      -0.00045489      -0.00050212      -0.05511604
Li       4.93560533      10.47000000      14.93560533  F        4       0.00000000      -0.00247473       0.00716649      -0.06049380
Li       2.46780267      12.21500000      14.93560533  F        4       0.00000000       0.00453490       0.01808895      -0.07972372
Li       2.47235225      10.49841889      17.31722980  T        3       0.00000000      -0.00159186      -0.00166560       0.01409975
Li       4.93461529      12.21995416      17.36378692  T        3       0.00000000       0.00232254       0.00131381      -0.00114418
Li       4.89588735      10.46078958      19.79395969  T        2       0.00000000       0.02320773       0.00322012      -0.00432697
Li       2.52370110      12.20123687      19.74118280  T        2       0.00000000      -0.01584370       0.02839451      -0.01731606
Li       2.45239727      10.46297942      21.98859406  T        1       0.00000000      -0.00583972      -0.00819506      -0.02913158
Li      -0.09064743      12.14770959      22.03622674  T        1       0.00000000       0.00648864       0.00158301      -0.01073369
Li       4.93560533       0.00000000      10.00000000  F        6       0.00000000       0.00298349      -0.00213721       0.12759407
Li       7.40340800       1.74500000      10.00000000  F        6       0.00000000       0.00229101      -0.00000000       0.12637697
Li       7.40340800       0.00000000      12.46780267  F        5       0.00000000       0.00016091       0.00023113      -0.05748218
Li       4.93560533       1.74500000      12.46780267  F        5       0.00000000      -0.00037530       0.00000000      -0.06383433
Li       9.87121067       0.00000000      14.93560533  F        4       0.00000000       0.00387000      -0.00307434      -0.04339835
Li       7.40340800       1.74500000      14.93560533  F        4       0.00000000       0.00092958       0.00000000      -0.07726077
Li       7.39141986      -0.00176598      17.31037223  T        3       0.00000000      -0.00139619       0.00239319       0.00931230
Li       9.86770201       1.74500000      17.35368016  T        3       0.00000000       0.00083085      -0.00000000       0.00124134
Li       9.72785819       0.00294907      19.73960448  T        2       0.00000000       0.00193086      -0.00022013      -0.00169613
Li       7.25487683       1.74500000      19.66117771  T        2       0.00000000       0.01219842       0.00000000       0.00296024
Li       7.50313791      -0.01797166      21.99330176  T        1       0.00000000      -0.00318179       0.00295279      -0.01690074
Li       4.96941668       1.74500000      22.13447575  T        1       0.00000000      -0.00681631      -0.00000000      -0.02819560
Li       4.93560533       3.49000000      10.00000000  F        6       0.00000000       0.00298349       0.00213721       0.12759407
Li       7.40340800       5.23500000      10.00000000  F        6       0.00000000       0.00000952       0.00081455       0.12505268
Li       7.40340800       3.49000000      12.46780267  F        5       0.00000000       0.00016091      -0.00023113      -0.05748218
Li       4.93560533       5.23500000      12.46780267  F        5       0.00000000      -0.00121073      -0.00031116      -0.06102197
Li       9.87121067       3.49000000      14.93560533  F        4       0.00000000       0.00387000       0.00307434      -0.04339835
Li       7.40340800       5.23500000      14.93560533  F        4       0.00000000       0.00305313      -0.00196187      -0.08318154
Li       7.39141986       3.49176598      17.31037223  T        3       0.00000000      -0.00139619      -0.00239319       0.00931230
Li       9.86629783       5.24106025      17.36274965  T        3       0.00000000       0.00143314       0.00092871      -0.00239086
Li       9.72785819       3.48705093      19.73960448  T        2       0.00000000       0.00193086       0.00022013      -0.00169613
Li       7.26084165       5.24288469      19.65673870  T        2       0.00000000       0.01131229      -0.00072720       0.00311270
Li       7.50313791       3.50797166      21.99330176  T        1       0.00000000      -0.00318179      -0.00295279      -0.01690074
Li       4.94750415       5.26003186      22.17483051  T        1       0.00000000      -0.00599630       0.00097483      -0.02626422
Li       4.93560533       6.98000000      10.00000000  F        6       0.00000000       0.00317611       0.00063721       0.12538261
Li       7.40340800       8.72500000      10.00000000  F        6       0.00000000      -0.00106072      -0.00000000       0.12524710
Li       7.40340800       6.98000000      12.46780267  F        5       0.00000000       0.00050436       0.00052234      -0.05686867
Li       4.93560533       8.72500000      12.46780267  F        5       0.00000000      -0.00165265      -0.00000000      -0.05754728
Li       9.87121067       6.98000000      14.93560533  F        4       0.00000000       0.00312111       0.00169827      -0.04215735
Li       7.40340800       8.72500000      14.93560533  F        4       0.00000000       0.00594537      -0.00000000      -0.08701458
Li       7.38330842       6.97958809      17.30262872  T        3       0.00000000       0.00103258       0.00034780       0.01053536
Li       9.86428470       8.72500000      17.36546866  T        3       0.00000000       0.00180036       0.00000000      -0.00253849
Li       9.71551317       6.98481896      19.76321287  T        2       0.00000000       0.01026283      -0.00249137      -0.00748604
Li       7.25262937       8.72500000      19.64247560  T        2       0.00000000       0.00721986       0.00000000       0.00657656
Li       7.46189963       7.01409744      21.99808368  T        1       0.00000000       0.00796217      -0.00722914      -0.01818332
Li       4.89984427       8.72500000      22.20561140  T        1       0.00000000      -0.03838008       0.00000000      -0.02447358
Li       4.93560533      10.47000000      10.00000000  F        6       0.00000000       0.00317611      -0.00063721       0.12538261
Li       7.40340800      12.21500000      10.00000000  F        6       0.00000000       0.00000952      -0.00081455       0.12505268
Li       7.40340800      10.47000000      12.46780267  F        5       0.00000000       0.00050436      -0.00052234      -0.05686867
Li       4.93560533      12.21500000      12.46780267  F        5       0.00000000      -0.00121073       0.00031116      -0.06102197
Li       9.87121067      10.47000000      14.93560533  F        4       0.00000000       0.00312111      -0.00169827      -0.04215735
Li       7.40340800      12.21500000      14.93560533  F        4       0.00000000       0.00305313       0.00196187      -0.08318154
Li       7.38330842      10.47041191      17.30262872  T        3       0.00000000       0.00103258      -0.00034780       0.01053536
Li       9.86629783      12.20893975      17.36274965  T        3       0.00000000       0.00143314      -0.00092871      -0.00239086
Li       9.71551317      10.46518104      19.76321287  T        2       0.00000000       0.01026283       0.00249137      -0.00748604
Li       7.26084165      12.20711531      19.65673870  T        2       0.00000000       0.01131229       0.00072720       0.00311270
Li       7.46189963      10.43590256      21.99808368  T        1       0.00000000       0.00796217       0.00722914      -0.01818332
Li       4.94750415      12.18996814      22.17483051  T        1       0.00000000      -0.00599630      -0.00097483      -0.02626422
Li       9.87121067       0.00000000      10.00000000  F        6       0.00000000       0.00058485       0.00031279       0.12423810
Li      12.33901333       1.74500000      10.00000000  F        6       0.00000000       0.00071353       0.00000000       0.12310651
Li      12.33901333       0.00000000      12.46780267  F        5       0.00000000       0.00004039       0.00022484      -0.05965931
Li       9.87121067       1.74500000      12.46780267  F        5       0.00000000       0.00153926      -0.00000000      -0.05778473
Li      14.80681600       0.00000000      14.93560533  F        4       0.00000000      -0.00438674       0.00045662      -0.05643079
Li      12.33901333       1.74500000      14.93560533  F        4       0.00000000       0.00400032       0.00000000      -0.05549002
Li      12.33667153      -0.00079664      17.33198781  T        3       0.00000000      -0.00205054      -0.00145311       0.02088136
Li      14.80667093       1.74500000      17.32974494  T        3       0.00000000       0.00331977      -0.00000000       0.02033329
Li      14.85632623      -0.00070831      19.66165122  T        2       0.00000000      -0.00197390       0.00000633      -0.00686765
Li      12.28512829       1.74500000      19.66349580  T        2       0.00000000       0.00283303       0.00000000      -0.00671839
Li       9.87121067       3.49000000      10.00000000  F        6       0.00000000       0.00058485      -0.00031279       0.12423810
Li      12.33901333       5.23500000      10.00000000  F        6       0.00000000      -0.00005547      -0.00062772       0.12418336
Li      12.33901333       3.49000000      12.46780267  F        5       0.00000000       0.00004039      -0.00022484      -0.05965931
Li       9.87121067       5.23500000      12.46780267  F        5       0.00000000       0.00190277      -0.00024115      -0.05839738
Li      14.80681600       3.49000000      14.93560533  F        4       0.00000000      -0.00438674      -0.00045662      -0.05643079
Li      12.33901333       5.23500000      14.93560533  F        4       0.00000000       0.00387326      -0.00005619      -0.05461158
Li      12.33667153       3.49079664      17.33198781  T        3       0.00000000      -0.00205054       0.00145311       0.02088136
Li      14.80907664       5.23687254      17.32989851  T        3       0.00000000       0.00308504       0.00291842       0.02062610
Li      14.85632623       3.49070831      19.66165122  T        2       0.00000000      -0.00197390      -0.00000633      -0.00686765
Li      12.28379322       5.24018447      19.66367822  T        2       0.00000000       0.00521677       0.00113440      -0.00600373
Li       9.87121067       6.98000000      10.00000000  F        6       0.00000000      -0.00034260       0.00000166       0.12382580
Li      12.33901333       8.72500000      10.00000000  F        6       0.00000000      -0.00018417      -0.00000000       0.12458784
Li      12.33901333       6.98000000      12.46780267  F        5       0.00000000       0.00007631      -0.00035064      -0.05955529
Li       9.87121067       8.72500000      12.46780267  F        5       0.00000000       0.00172661      -0.00000000      -0.05912288
Li      14.80681600       6.98000000      14.93560533  F        4       0.00000000      -0.00182268       0.00002314      -0.05523754
Li      12.33901333       8.72500000      14.93560533  F        4       0.00000000       0.00314457       0.00000000      -0.05519872
Li      12.33878515       6.98086787      17.33055148  T        3       0.00000000      -0.00331410      -0.00018431       0.02011986
Li      14.80199366       8.72500000      17.32418288  T        3       0.00000000       0.00228154      -0.00000000       0.02287733
Li      14.87256753       6.98707892      19.66133241  T        2       0.00000000      -0.00655932      -0.00119319      -0.00598311
Li      12.28463207       8.72500000      19.66257442  T        2       0.00000000       0.00529658       0.00000000      -0.00576034
Li       9.87121067      10.47000000      10.00000000  F        6       0.00000000      -0.00034260      -0.00000166       0.12382580
Li      12.33901333      12.21500000      10.00000000  F        6       0.00000000      -0.00005547       0.00062772       0.12418336
Li      12.33901333      10.47000000      12.46780267  F        5       0.00000000       0.00007631       0.00035064      -0.05955529
Li       9.87121067      12.21500000      12.46780267  F        5       0.00000000       0.00190277       0.00024115      -0.05839738
Li      14.80681600      10.47000000      14.93560533  F        4       0.00000000      -0.00182268      -0.00002314      -0.05523754
Li      12.33901333      12.21500000      14.93560533  F        4       0.00000000       0.00387326       0.00005619      -0.05461158
Li      12.33878515      10.46913213      17.33055148  T        3       0.00000000      -0.00331410       0.00018431       0.02011986
Li      14.80907664      12.21312746      17.32989851  T        3       0.00000000       0.00308504      -0.00291842       0.02062610
Li      14.87256753      10.46292108      19.66133241  T        2       0.00000000      -0.00655932       0.00119319      -0.00598311
Li      12.28379322      12.20981553      19.66367822  T        2       0.00000000       0.00521677      -0.00113440      -0.00600373
Li      14.80681600       0.00000000      10.00000000  F        6       0.00000000      -0.00173699       0.00064154       0.12520046
Li      17.27461866       1.74500000      10.00000000  F        6       0.00000000       0.00037200       0.00000000       0.12355816
Li      17.27461866       0.00000000      12.46780267  F        5       0.00000000      -0.00124824       0.00016695      -0.05677121
Li      14.80681600       1.74500000      12.46780267  F        5       0.00000000      -0.00024745      -0.00000000      -0.06053007
Li      19.74242133       0.00000000      14.93560533  F        4       0.00000000      -0.00233920       0.00768134      -0.08315644
Li      17.27461866       1.74500000      14.93560533  F        4       0.00000000      -0.00216452      -0.00000000      -0.03957636
Li      17.27434737      -0.00440447      17.35777470  T        3       0.00000000       0.00039518       0.00064822       0.00107691
Li      19.75407648       1.74500000      17.32401326  T        3       0.00000000      -0.00061511      -0.00000000       0.00740776
Li      19.89020406      -0.01516514      19.68144091  T        2       0.00000000      -0.00450016      -0.00348152       0.00113876
Li      17.41611328       1.74500000      19.73237937  T        2       0.00000000      -0.00425166       0.00000000      -0.00406315
Li      14.80681600       3.49000000      10.00000000  F        6       0.00000000      -0.00173699      -0.00064154       0.12520046
Li      17.27461866       5.23500000      10.00000000  F        6       0.00000000       0.00244881       0.00100584       0.12259031
Li      17.27461866       3.49000000      12.46780267  F        5       0.00000000      -0.00124824      -0.00016695      -0.05677121
Li      14.80681600       5.23500000      12.46780267  F        5       0.00000000       0.00006366      -0.00026183      -0.06012171
Li      19.74242133       3.49000000      14.93560533  F        4       0.00000000      -0.00233920      -0.00768134      -0.08315644
Li      17.27461866       5.23500000      14.93560533  F        4       0.00000000      -0.00469810       0.01054231      -0.03332980
Li      17.27434737       3.49440447      17.35777470  T        3       0.00000000       0.00039518      -0.00064822       0.00107691
Li      19.75142564       5.22814945      17.30474248  T        3       0.00000000      -0.00062726      -0.00124007       0.00741550
Li      19.89020406       3.50516514      19.68144091  T        2       0.00000000      -0.00450016       0.00348152       0.00113876
Li      17.42336342       5.22342612      19.76010602  T        2       0.00000000      -0.00574773       0.00181233      -0.00310241
Li      14.80681600       6.98000000      10.00000000  F        6       0.00000000       0.00040686       0.00040567       0.12457552
Li      17.27461866       8.72500000      10.00000000  F        6       0.00000000       0.00190977      -0.00000000       0.12194046
Li      17.27461866       6.98000000      12.46780267  F        5       0.00000000      -0.00152742       0.00000355      -0.05826367
Li      14.80681600       8.72500000      12.46780267  F        5       0.00000000      -0.00005449       0.00000000      -0.06067969
Li      19.74242133       6.98000000      14.93560533  F        4       0.00000000      -0.00549190      -0.00602031      -0.08335469
Li      17.27461866       8.72500000      14.93560533  F        4       0.00000000      -0.00685551       0.00000000      -0.03798108
Li      17.28564900       6.99849689      17.39031020  T        3       0.00000000      -0.00279993      -0.00081051      -0.00471397
Li      19.77169565       8.72500000      17.29510228  T        3       0.00000000      -0.00611428       0.00000000       0.00942032
Li      19.89200083       6.98660077      19.65212253  T        2       0.00000000      -0.01393142       0.00292302      -0.00789965
Li      17.46013497       8.72500000      19.85058197  T        2       0.00000000      -0.01293975      -0.00000000      -0.02168288
Li      14.80681600      10.47000000      10.00000000  F        6       0.00000000       0.00040686      -0.00040567       0.12457552
Li      17.27461866      12.21500000      10.00000000  F        6       0.00000000       0.00244881      -0.00100584       0.12259031
Li      17.27461866      10.47000000      12.46780267  F        5       0.00000000      -0.00152742      -0.00000355      -0.05826367
Li      14.80681600      12.21500000      12.46780267  F        5       0.00000000       0.00006366       0.00026183      -0.06012171
Li      19.74242133      10.47000000      14.93560533  F        4       0.00000000      -0.00549190       0.00602031      -0.08335469
Li      17.27461866      12.21500000      14.93560533  F        4       0.00000000      -0.00469810      -0.01054231      -0.03332980
Li      17.28564900      10.45150311      17.39031020  T        3       0.00000000      -0.00279993       0.00081051      -0.00471397
Li      19.75142564      12.22185055      17.30474248  T        3       0.00000000      -0.00062726       0.00124007       0.00741550
Li      19.89200083      10.46339923      19.65212253  T        2       0.00000000      -0.01393142      -0.00292302      -0.00789965
Li      17.42336342      12.22657388      19.76010602  T        2       0.00000000      -0.00574773      -0.00181233      -0.00310241
Li       2.45645661       8.72500000      24.29291636  T        0       0.00000000      -0.00145883       0.00000000       0.01611469
