
  ___ ___ ___ _ _ _  
 |   |   |_  | | | | 
 | | | | | . | | | | 
 |__ |  _|___|_____|  25.7.0
 |___|_|             

User:   tew@Mathuss-MacBook-Air-357.local
Date:   Wed Nov 26 03:04:02 2025
Arch:   arm64
Pid:    56558
CWD:    /Users/tew/Documents/Project/GitHub/chem-com/step
Python: 3.13.5
gpaw:   /Users/tew/Documents/Project/GitHub/chem-com/.venv/lib/python3.13/site-packages/gpaw
_gpaw:  /Users/tew/Documents/Project/GitHub/chem-com/.venv/lib/python3.13/site-packages/
        _gpaw.cpython-313-darwin.so
ase:    /Users/tew/Documents/Project/GitHub/chem-com/.venv/lib/python3.13/site-packages/ase (version 3.26.0)
numpy:  /Users/tew/Documents/Project/GitHub/chem-com/.venv/lib/python3.13/site-packages/numpy (version 2.3.5)
scipy:  /Users/tew/Documents/Project/GitHub/chem-com/.venv/lib/python3.13/site-packages/scipy (version 1.16.3)
libxc:  2.x.y
units:  Angstrom and eV
cores: 1
OpenMP: False
OMP_NUM_THREADS: 1

Input parameters:
  basis: dzp
  convergence: {density: 0.0001,
                eigenstates: 5e-06}
  kpts: [2 2 1]
  mode: {interpolation: 3,
         name: lcao}
  occupations: {fixmagmom: False,
                name: fermi-dirac,
                width: 0.15}
  xc: PBE

System changes: positions, numbers, cell, pbc, initial_charges, initial_magmoms 

Initialize ...

species:
  Li:
    name: Lithium
    id: 830b4218f175192f93f959cfc0aad614
    Z: 3.0
    valence: 1
    core: 2
    charge: 0.0
    file: /Users/tew/Documents/Project/GitHub/chem-com/.venv/lib/python3.13/site-packages/gpaw_data/setups/Li.PBE.gz
    compensation charges: {type: gauss,
                           rc: 0.33,
                           lmax: 2}
    cutoffs: {filter: 1.91,
              core: 2.55}
    projectors:
      #              energy  rcut
      - 2s(1.00)    -2.874   1.058
      - 2p(0.00)    -1.090   1.058
      -  s          24.337   1.058
  
    # LCAO basis set for Li:
    #   Name: dzp
    #   File: /Users/tew/Documents/Project/GitHub/chem-com/.venv/lib/python3.13/site-packages/gpaw_data/setups/Li.dzp.basis.gz
    #   Number of radial functions: 3
    #   Number of spherical harmonics: 5
    #     l=0, rc=10.8906 Bohr: 2s-sz confined orbital
    #     l=0, rc=6.6719 Bohr: 2s-dz split-valence wave
    #     l=1, rc=10.8906 Bohr: p-type Gaussian polarization
    #   Number of RI-basis functions 0

Reference energy: -35893.444183  # eV

Spin-paired calculation

Convergence criteria:
 Maximum [total energy] change in last 3 cyles: 0.0005 eV / valence electron
 Maximum integral of absolute [dens]ity change: 0.0001 electrons / valence electron
 Maximum integral of absolute [eigenst]ate change: 5e-06 eV^2 / valence electron
 Maximum number of scf [iter]ations: 333
 (Square brackets indicate name in SCF output, whereas a 'c' in
 the SCF output indicates the quantity has converged.)

Symmetries present (total): 1

  ( 1  0  0)
  ( 0  1  0)
  ( 0  0  1)

4 k-points: 2 x 2 x 1 Monkhorst-Pack grid
2 k-points in the irreducible part of the Brillouin zone
       k-points in crystal coordinates                weights
   0:     0.25000000   -0.25000000    0.00000000          2/4
   1:     0.25000000    0.25000000    0.00000000          2/4

Wave functions: LCAO
  Diagonalizer: Serial LAPACK
  Atomic Correction: dense with blas
  Data-type: complex
 

Occupation numbers: Fermi-Dirac:
  width: 0.1500  # eV
 

Eigensolver
   LCAO using direct dense diagonalizer 

Densities:
  Coarse grid: 100*68*160 grid
  Fine grid: 200*136*320 grid
  Total Charge: 0.000000 

Density mixing:
  Method: separate
  Backend: pulay
  Linear mixing parameter: 0.05
  old densities: 5
  Damping of long wavelength oscillations: 50 

Hamiltonian:
  XC and Coulomb potentials evaluated on a 200*136*320 grid
  Using the PBE Exchange-Correlation functional
  Interpolation: tri-quintic (5. degree polynomial)
  Poisson solver: FastPoissonSolver using
    Stencil: 6*3+1=19 point O(h^6) finite-difference Laplacian
    FFT axes: [np.int64(0), np.int64(1)]
    FST axes: [np.int64(2)]
 

XC parameters: PBE with 2 nearest neighbor stencil

Memory estimate:
  Process memory now: 3793.11 MiB
  Calculator: 1570.72 MiB
    Density: 780.53 MiB
      Arrays: 215.09 MiB
      Localized functions: 482.94 MiB
      Mixer: 82.49 MiB
    Hamiltonian: 178.84 MiB
      Arrays: 140.65 MiB
      XC: 0.00 MiB
      Poisson: 0.00 MiB
      vbar: 38.19 MiB
    Wavefunctions: 611.36 MiB
      C [qnM]: 3.00 MiB
      S, T [2 x qmm]: 47.80 MiB
      P [aqMi]: 1.49 MiB
      BasisFunctions: 559.07 MiB
      Eigensolver: 0.00 MiB

Total number of cores used: 1

Number of atoms: 177
Number of atomic orbitals: 885
Number of bands in calculation: 111
Number of valence electrons: 177
Bands to converge: occupied

... initialized

Initializing position-dependent things.

Density initialized from atomic densities
          .------------------------------------------------.  
         /|                                                |  
        / |                                                |  
       /  |                                                |  
      /   |                                                |  
     /    |                                                |  
    /     |                                                |  
   /      |                                                |  
  /       |                                                |  
 *        |                                                |  
 |        |                                                |  
 |        |                                                |  
 |        |                                                |  
 |        |  Li Li           Li                            |  
 |        |          Li                                   Li  
 |        |   Li      Li  Li                               |  
 |     Li Li       Li                          Li          |  
 |        | Li Li       Li Li          Li           Li     |  
 |      Li|      Li Li          Li           Li      Li    |  
 |       Li  Li          Li Li       Li  Li       Li Li    |  
 |    Li Li   Li  Li LLi      Li Li       Li  Li           |  
 |        |Li Li      Li  Li       Li Li        Li Li      |  
 |  Li Li |    Li  Li      Li  Li       Li Li              |  
 |      Li| Li Li       Li Li       Li Li    Li Li  Li     |  
 |  Li  Li|      Li Li       Li LLi      Li  Li            |  
 |       Li  Li       Li Li       Li Li       Li  Li       |  
 |Li Li  Li   Li  Li Li    Li Li Li    Li Li  Li           |  
 |        Li  Li       Li Li       Li Li       Li  Li      |  
 | Li  Li |    Li  Li       Li Li       Li Li              |  
 |      Li| Li Li    Li Li Li    Li Li Li    Li Li  Li     |  
 |  Li  Li|      Li Li       Li Li       Li  Li            |  
 Li      Li  Li       Li Li       Li LLi      Li  Li       |  
 |Li Li   |   Li  Li       Li Li       Li Li               |  
 |        Li           Li          Li          Li          |  
 | Li  Li |    Li  Li       Li  Li      Li  Li             |  
 |        |                                                |  
 |      Li|          Li          Li          Li            |  
 Li       |  Li          Li           Li                   |  
 |        |                                                |  
 |        |                                                |  
 |        .------------------------------------------------.  
 |       /                                                /   
 |      /                                                /    
 |     /                                                /     
 |    /                                                /      
 |   /                                                /       
 |  /                                                /        
 | /                                                /         
 |/                                                /          
 *------------------------------------------------*           

Atomic positions and initial magnetic moments

Positions:
   0 Li     0.000000    0.000000   10.000000    ( 0.0000,  0.0000,  0.0000)
   1 Li     2.467803    1.745000   10.000000    ( 0.0000,  0.0000,  0.0000)
   2 Li     2.467803    0.000000   12.467803    ( 0.0000,  0.0000,  0.0000)
   3 Li     0.000000    1.745000   12.467803    ( 0.0000,  0.0000,  0.0000)
   4 Li     4.935605    0.000000   14.935605    ( 0.0000,  0.0000,  0.0000)
   5 Li     2.467803    1.745000   14.935605    ( 0.0000,  0.0000,  0.0000)
   6 Li     2.470091    0.024696   17.339807    ( 0.0000,  0.0000,  0.0000)
   7 Li     4.933366    1.738051   17.395008    ( 0.0000,  0.0000,  0.0000)
   8 Li     4.899839   -0.032065   19.844612    ( 0.0000,  0.0000,  0.0000)
   9 Li     2.522199    1.723044   19.794968    ( 0.0000,  0.0000,  0.0000)
  10 Li     2.416898   -0.063306   22.122884    ( 0.0000,  0.0000,  0.0000)
  11 Li    -0.126086    1.732662   22.017157    ( 0.0000,  0.0000,  0.0000)
  12 Li     0.000000    3.490000   10.000000    ( 0.0000,  0.0000,  0.0000)
  13 Li     2.467803    5.235000   10.000000    ( 0.0000,  0.0000,  0.0000)
  14 Li     2.467803    3.490000   12.467803    ( 0.0000,  0.0000,  0.0000)
  15 Li     0.000000    5.235000   12.467803    ( 0.0000,  0.0000,  0.0000)
  16 Li     4.935605    3.490000   14.935605    ( 0.0000,  0.0000,  0.0000)
  17 Li     2.467803    5.235000   14.935605    ( 0.0000,  0.0000,  0.0000)
  18 Li     2.473418    3.486213   17.369909    ( 0.0000,  0.0000,  0.0000)
  19 Li     4.935712    5.238646   17.383405    ( 0.0000,  0.0000,  0.0000)
  20 Li     4.879742    3.501682   19.826332    ( 0.0000,  0.0000,  0.0000)
  21 Li     2.523236    5.266131   19.776250    ( 0.0000,  0.0000,  0.0000)
  22 Li     2.405346    3.501333   22.111439    ( 0.0000,  0.0000,  0.0000)
  23 Li    -0.097504    5.292198   22.040934    ( 0.0000,  0.0000,  0.0000)
  24 Li     0.000000    6.980000   10.000000    ( 0.0000,  0.0000,  0.0000)
  25 Li     2.467803    8.725000   10.000000    ( 0.0000,  0.0000,  0.0000)
  26 Li     2.467803    6.980000   12.467803    ( 0.0000,  0.0000,  0.0000)
  27 Li     0.000000    8.725000   12.467803    ( 0.0000,  0.0000,  0.0000)
  28 Li     4.935605    6.980000   14.935605    ( 0.0000,  0.0000,  0.0000)
  29 Li     2.467803    8.725000   14.935605    ( 0.0000,  0.0000,  0.0000)
  30 Li     2.470061    6.940145   17.319419    ( 0.0000,  0.0000,  0.0000)
  31 Li     4.925229    8.712215   17.353134    ( 0.0000,  0.0000,  0.0000)
  32 Li     4.903219    7.006524   19.829135    ( 0.0000,  0.0000,  0.0000)
  33 Li     2.530851    8.689662   19.628104    ( 0.0000,  0.0000,  0.0000)
  34 Li     2.446079    7.036653   22.054775    ( 0.0000,  0.0000,  0.0000)
  35 Li     0.027962    8.776235   22.126848    ( 0.0000,  0.0000,  0.0000)
  36 Li     0.000000   10.470000   10.000000    ( 0.0000,  0.0000,  0.0000)
  37 Li     2.467803   12.215000   10.000000    ( 0.0000,  0.0000,  0.0000)
  38 Li     2.467803   10.470000   12.467803    ( 0.0000,  0.0000,  0.0000)
  39 Li     0.000000   12.215000   12.467803    ( 0.0000,  0.0000,  0.0000)
  40 Li     4.935605   10.470000   14.935605    ( 0.0000,  0.0000,  0.0000)
  41 Li     2.467803   12.215000   14.935605    ( 0.0000,  0.0000,  0.0000)
  42 Li     2.473409   10.488946   17.326489    ( 0.0000,  0.0000,  0.0000)
  43 Li     4.931965   12.231088   17.363454    ( 0.0000,  0.0000,  0.0000)
  44 Li     4.890859   10.463860   19.783391    ( 0.0000,  0.0000,  0.0000)
  45 Li     2.528132   12.241162   19.691214    ( 0.0000,  0.0000,  0.0000)
  46 Li     2.452554   10.465320   21.846413    ( 0.0000,  0.0000,  0.0000)
  47 Li    -0.058678   12.118904   22.076416    ( 0.0000,  0.0000,  0.0000)
  48 Li     4.935605    0.000000   10.000000    ( 0.0000,  0.0000,  0.0000)
  49 Li     7.403408    1.745000   10.000000    ( 0.0000,  0.0000,  0.0000)
  50 Li     7.403408    0.000000   12.467803    ( 0.0000,  0.0000,  0.0000)
  51 Li     4.935605    1.745000   12.467803    ( 0.0000,  0.0000,  0.0000)
  52 Li     9.871211    0.000000   14.935605    ( 0.0000,  0.0000,  0.0000)
  53 Li     7.403408    1.745000   14.935605    ( 0.0000,  0.0000,  0.0000)
  54 Li     7.394473   -0.001638   17.315749    ( 0.0000,  0.0000,  0.0000)
  55 Li     9.868094    1.744536   17.363177    ( 0.0000,  0.0000,  0.0000)
  56 Li     9.720874    0.001995   19.758251    ( 0.0000,  0.0000,  0.0000)
  57 Li     7.250778    1.743575   19.672073    ( 0.0000,  0.0000,  0.0000)
  58 Li     7.485581   -0.031317   22.005417    ( 0.0000,  0.0000,  0.0000)
  59 Li     4.964974    1.744867   22.149283    ( 0.0000,  0.0000,  0.0000)
  60 Li     4.935605    3.490000   10.000000    ( 0.0000,  0.0000,  0.0000)
  61 Li     7.403408    5.235000   10.000000    ( 0.0000,  0.0000,  0.0000)
  62 Li     7.403408    3.490000   12.467803    ( 0.0000,  0.0000,  0.0000)
  63 Li     4.935605    5.235000   12.467803    ( 0.0000,  0.0000,  0.0000)
  64 Li     9.871211    3.490000   14.935605    ( 0.0000,  0.0000,  0.0000)
  65 Li     7.403408    5.235000   14.935605    ( 0.0000,  0.0000,  0.0000)
  66 Li     7.388129    3.491177   17.316913    ( 0.0000,  0.0000,  0.0000)
  67 Li     9.867158    5.239504   17.369224    ( 0.0000,  0.0000,  0.0000)
  68 Li     9.725915    3.488034   19.748537    ( 0.0000,  0.0000,  0.0000)
  69 Li     7.254755    5.241681   19.669114    ( 0.0000,  0.0000,  0.0000)
  70 Li     7.507780    3.501981   22.000622    ( 0.0000,  0.0000,  0.0000)
  71 Li     4.950365    5.251821   22.176186    ( 0.0000,  0.0000,  0.0000)
  72 Li     4.935605    6.980000   10.000000    ( 0.0000,  0.0000,  0.0000)
  73 Li     7.403408    8.725000   10.000000    ( 0.0000,  0.0000,  0.0000)
  74 Li     7.403408    6.980000   12.467803    ( 0.0000,  0.0000,  0.0000)
  75 Li     4.935605    8.725000   12.467803    ( 0.0000,  0.0000,  0.0000)
  76 Li     9.871211    6.980000   14.935605    ( 0.0000,  0.0000,  0.0000)
  77 Li     7.403408    8.725000   14.935605    ( 0.0000,  0.0000,  0.0000)
  78 Li     7.389065    6.980186   17.310587    ( 0.0000,  0.0000,  0.0000)
  79 Li     9.866023    8.726124   17.372645    ( 0.0000,  0.0000,  0.0000)
  80 Li     9.712644    6.983184   19.773990    ( 0.0000,  0.0000,  0.0000)
  81 Li     7.252617    8.735700   19.652271    ( 0.0000,  0.0000,  0.0000)
  82 Li     7.458089    7.022068   22.008605    ( 0.0000,  0.0000,  0.0000)
  83 Li     4.898526    8.769030   22.229853    ( 0.0000,  0.0000,  0.0000)
  84 Li     4.935605   10.470000   10.000000    ( 0.0000,  0.0000,  0.0000)
  85 Li     7.403408   12.215000   10.000000    ( 0.0000,  0.0000,  0.0000)
  86 Li     7.403408   10.470000   12.467803    ( 0.0000,  0.0000,  0.0000)
  87 Li     4.935605   12.215000   12.467803    ( 0.0000,  0.0000,  0.0000)
  88 Li     9.871211   10.470000   14.935605    ( 0.0000,  0.0000,  0.0000)
  89 Li     7.403408   12.215000   14.935605    ( 0.0000,  0.0000,  0.0000)
  90 Li     7.380365   10.470275   17.306034    ( 0.0000,  0.0000,  0.0000)
  91 Li     9.867365   12.209836   17.370832    ( 0.0000,  0.0000,  0.0000)
  92 Li     9.717550   10.466787   19.772345    ( 0.0000,  0.0000,  0.0000)
  93 Li     7.258092   12.199044   19.661780    ( 0.0000,  0.0000,  0.0000)
  94 Li     7.476035   10.447268   22.008659    ( 0.0000,  0.0000,  0.0000)
  95 Li     4.930299   12.154282   22.209333    ( 0.0000,  0.0000,  0.0000)
  96 Li     9.871211    0.000000   10.000000    ( 0.0000,  0.0000,  0.0000)
  97 Li    12.339013    1.745000   10.000000    ( 0.0000,  0.0000,  0.0000)
  98 Li    12.339013    0.000000   12.467803    ( 0.0000,  0.0000,  0.0000)
  99 Li     9.871211    1.745000   12.467803    ( 0.0000,  0.0000,  0.0000)
 100 Li    14.806816    0.000000   14.935605    ( 0.0000,  0.0000,  0.0000)
 101 Li    12.339013    1.745000   14.935605    ( 0.0000,  0.0000,  0.0000)
 102 Li    12.337454   -0.000423   17.331705    ( 0.0000,  0.0000,  0.0000)
 103 Li    14.806832    1.745623   17.329223    ( 0.0000,  0.0000,  0.0000)
 104 Li    14.861308   -0.001002   19.667217    ( 0.0000,  0.0000,  0.0000)
 105 Li    12.283218    1.744397   19.668452    ( 0.0000,  0.0000,  0.0000)
 106 Li     9.871211    3.490000   10.000000    ( 0.0000,  0.0000,  0.0000)
 107 Li    12.339013    5.235000   10.000000    ( 0.0000,  0.0000,  0.0000)
 108 Li    12.339013    3.490000   12.467803    ( 0.0000,  0.0000,  0.0000)
 109 Li     9.871211    5.235000   12.467803    ( 0.0000,  0.0000,  0.0000)
 110 Li    14.806816    3.490000   14.935605    ( 0.0000,  0.0000,  0.0000)
 111 Li    12.339013    5.235000   14.935605    ( 0.0000,  0.0000,  0.0000)
 112 Li    12.337170    3.490531   17.331539    ( 0.0000,  0.0000,  0.0000)
 113 Li    14.808436    5.235625   17.329326    ( 0.0000,  0.0000,  0.0000)
 114 Li    14.858525    3.490472   19.666915    ( 0.0000,  0.0000,  0.0000)
 115 Li    12.282328    5.239060   19.668574    ( 0.0000,  0.0000,  0.0000)
 116 Li     9.871211    6.980000   10.000000    ( 0.0000,  0.0000,  0.0000)
 117 Li    12.339013    8.725000   10.000000    ( 0.0000,  0.0000,  0.0000)
 118 Li    12.339013    6.980000   12.467803    ( 0.0000,  0.0000,  0.0000)
 119 Li     9.871211    8.725000   12.467803    ( 0.0000,  0.0000,  0.0000)
 120 Li    14.806816    6.980000   14.935605    ( 0.0000,  0.0000,  0.0000)
 121 Li    12.339013    8.725000   14.935605    ( 0.0000,  0.0000,  0.0000)
 122 Li    12.338863    6.980471   17.330747    ( 0.0000,  0.0000,  0.0000)
 123 Li    14.801938    8.725677   17.324650    ( 0.0000,  0.0000,  0.0000)
 124 Li    14.872136    6.985249   19.667004    ( 0.0000,  0.0000,  0.0000)
 125 Li    12.282713    8.724917   19.668020    ( 0.0000,  0.0000,  0.0000)
 126 Li     9.871211   10.470000   10.000000    ( 0.0000,  0.0000,  0.0000)
 127 Li    12.339013   12.215000   10.000000    ( 0.0000,  0.0000,  0.0000)
 128 Li    12.339013   10.470000   12.467803    ( 0.0000,  0.0000,  0.0000)
 129 Li     9.871211   12.215000   12.467803    ( 0.0000,  0.0000,  0.0000)
 130 Li    14.806816   10.470000   14.935605    ( 0.0000,  0.0000,  0.0000)
 131 Li    12.339013   12.215000   14.935605    ( 0.0000,  0.0000,  0.0000)
 132 Li    12.339488   10.469421   17.330420    ( 0.0000,  0.0000,  0.0000)
 133 Li    14.806660   12.213074   17.328461    ( 0.0000,  0.0000,  0.0000)
 134 Li    14.871446   10.465281   19.665830    ( 0.0000,  0.0000,  0.0000)
 135 Li    12.282153   12.211626   19.668755    ( 0.0000,  0.0000,  0.0000)
 136 Li    14.806816    0.000000   10.000000    ( 0.0000,  0.0000,  0.0000)
 137 Li    17.274619    1.745000   10.000000    ( 0.0000,  0.0000,  0.0000)
 138 Li    17.274619    0.000000   12.467803    ( 0.0000,  0.0000,  0.0000)
 139 Li    14.806816    1.745000   12.467803    ( 0.0000,  0.0000,  0.0000)
 140 Li    19.742421    0.000000   14.935605    ( 0.0000,  0.0000,  0.0000)
 141 Li    17.274619    1.745000   14.935605    ( 0.0000,  0.0000,  0.0000)
 142 Li    17.272606   -0.008306   17.372633    ( 0.0000,  0.0000,  0.0000)
 143 Li    19.749485    1.741573   17.335687    ( 0.0000,  0.0000,  0.0000)
 144 Li    19.888228   -0.029942   19.701140    ( 0.0000,  0.0000,  0.0000)
 145 Li    17.419757    1.749341   19.746026    ( 0.0000,  0.0000,  0.0000)
 146 Li    14.806816    3.490000   10.000000    ( 0.0000,  0.0000,  0.0000)
 147 Li    17.274619    5.235000   10.000000    ( 0.0000,  0.0000,  0.0000)
 148 Li    17.274619    3.490000   12.467803    ( 0.0000,  0.0000,  0.0000)
 149 Li    14.806816    5.235000   12.467803    ( 0.0000,  0.0000,  0.0000)
 150 Li    19.742421    3.490000   14.935605    ( 0.0000,  0.0000,  0.0000)
 151 Li    17.274619    5.235000   14.935605    ( 0.0000,  0.0000,  0.0000)
 152 Li    17.275363    3.492936   17.363394    ( 0.0000,  0.0000,  0.0000)
 153 Li    19.747718    5.233860   17.322840    ( 0.0000,  0.0000,  0.0000)
 154 Li    19.898402    3.500110   19.695282    ( 0.0000,  0.0000,  0.0000)
 155 Li    17.424590    5.222943   19.764511    ( 0.0000,  0.0000,  0.0000)
 156 Li    14.806816    6.980000   10.000000    ( 0.0000,  0.0000,  0.0000)
 157 Li    17.274619    8.725000   10.000000    ( 0.0000,  0.0000,  0.0000)
 158 Li    17.274619    6.980000   12.467803    ( 0.0000,  0.0000,  0.0000)
 159 Li    14.806816    8.725000   12.467803    ( 0.0000,  0.0000,  0.0000)
 160 Li    19.742421    6.980000   14.935605    ( 0.0000,  0.0000,  0.0000)
 161 Li    17.274619    8.725000   14.935605    ( 0.0000,  0.0000,  0.0000)
 162 Li    17.280140    6.997701   17.394323    ( 0.0000,  0.0000,  0.0000)
 163 Li    19.770862    8.713330   17.297877    ( 0.0000,  0.0000,  0.0000)
 164 Li    19.889425    7.004232   19.681594    ( 0.0000,  0.0000,  0.0000)
 165 Li    17.456698    8.730559   19.855377    ( 0.0000,  0.0000,  0.0000)
 166 Li    14.806816   10.470000   10.000000    ( 0.0000,  0.0000,  0.0000)
 167 Li    17.274619   12.215000   10.000000    ( 0.0000,  0.0000,  0.0000)
 168 Li    17.274619   10.470000   12.467803    ( 0.0000,  0.0000,  0.0000)
 169 Li    14.806816   12.215000   12.467803    ( 0.0000,  0.0000,  0.0000)
 170 Li    19.742421   10.470000   14.935605    ( 0.0000,  0.0000,  0.0000)
 171 Li    17.274619   12.215000   14.935605    ( 0.0000,  0.0000,  0.0000)
 172 Li    17.288560   10.457669   17.397514    ( 0.0000,  0.0000,  0.0000)
 173 Li    19.757349   12.231237   17.304304    ( 0.0000,  0.0000,  0.0000)
 174 Li    19.893394   10.465599   19.640370    ( 0.0000,  0.0000,  0.0000)
 175 Li    17.432183   12.217157   19.795060    ( 0.0000,  0.0000,  0.0000)
 176 Li     2.463991    9.306667   24.239888    ( 0.0000,  0.0000,  0.0000)

Unit cell:
           periodic     x           y           z      points  spacing
  1. axis:    yes   19.742421    0.000000    0.000000   100     0.1974
  2. axis:    yes    0.000000   13.960000    0.000000    68     0.2053
  3. axis:    no     0.000000    0.000000   32.339013   160     0.2021

  Lengths:  19.742421  13.960000  32.339013
  Angles:   90.000000  90.000000  90.000000

Effective grid spacing dv^(1/3) = 0.2016

     iter     time        total  log10-change:
                         energy   eigst   dens
iter:   1 03:42:26  -329.099591        c
iter:   2 03:43:17  -318.079006        c -0.66
iter:   3 03:44:04  -315.638936        c -0.85
iter:   4 03:44:50  -314.674942        c -0.92
iter:   5 03:45:36  -311.967863        c -0.97
iter:   6 03:46:22  -311.193495        c -1.18
iter:   7 03:47:08  -310.886270        c -1.30
iter:   8 03:47:55  -310.661871        c -1.41
iter:   9 03:48:44  -310.579137        c -1.57
iter:  10 03:49:29  -310.541697        c -1.70
iter:  11 03:50:17  -310.515549c       c -1.81
iter:  12 03:51:04  -310.505473c       c -1.90
iter:  13 03:51:48  -310.491143c       c -1.96
iter:  14 03:52:35  -310.487759c       c -2.11
iter:  15 03:53:23  -310.485121c       c -2.19
iter:  16 03:54:11  -310.484478c       c -2.27
iter:  17 03:54:57  -310.483700c       c -2.34
iter:  18 03:55:43  -310.482055c       c -2.39
iter:  19 03:56:35  -310.481727c       c -2.49
iter:  20 03:57:14  -310.480848c       c -2.55
iter:  21 03:57:52  -310.480653c       c -2.63
iter:  22 03:58:30  -310.480328c       c -2.72
iter:  23 03:59:09  -310.480149c       c -2.79
iter:  24 03:59:48  -310.480191c       c -2.86
iter:  25 04:00:29  -310.479906c       c -2.95
iter:  26 04:01:10  -310.479913c       c -3.04
iter:  27 04:01:50  -310.479779c       c -3.12
iter:  28 04:02:29  -310.479827c       c -3.25
iter:  29 04:03:08  -310.479834c       c -3.34
iter:  30 04:03:48  -310.479810c       c -3.40
iter:  31 04:04:29  -310.479873c       c -3.45
iter:  32 04:05:09  -310.479851c       c -3.53
iter:  33 04:05:48  -310.479863c       c -3.58
iter:  34 04:06:28  -310.479835c       c -3.64
iter:  35 04:07:08  -310.479824c       c -3.71
iter:  36 04:07:47  -310.479826c       c -3.79
iter:  37 04:08:27  -310.479794c       c -3.85
iter:  38 04:09:08  -310.479805c       c -3.91
iter:  39 04:09:47  -310.479797c       c -4.05c

Converged after 39 iterations.

Dipole moment: (-39.331645, -17.063485, 0.762555) |e|*Ang

Energy contributions relative to reference atoms: (reference = -35893.444183)

Kinetic:       +329.349863
Potential:     -280.080211
External:        +0.000000
XC:            -354.642447
Entropy (-ST):   -5.748126
Local:           -2.232938
SIC:             +0.000000
--------------------------
Free energy:   -313.353860
Extrapolated:  -310.479797

Showing all kpts
 Kpt  Band  Eigenvalues  Occupancy
  0    86     -2.88874    1.13931
  0    87     -2.87333    1.08863
  0    88     -2.84180    0.98374
  0    89     -2.83323    0.95522

  1    86     -2.88867    1.13908
  1    87     -2.87327    1.08841
  1    88     -2.84310    0.98809
  1    89     -2.83134    0.94893


Fermi level: -2.84667

Gap: 0.030 eV
Transition (v -> c):
  (s=0, k=1, n=87, [0.25, 0.25, 0.00]) -> (s=0, k=1, n=88, [0.25, 0.25, 0.00])
No difference between direct/indirect transitions

Forces in eV/Ang:
  0 Li   -0.00095   -0.00156    0.12746
  1 Li   -0.00441   -0.00078    0.12497
  2 Li    0.00115   -0.00003   -0.05932
  3 Li   -0.00083    0.00055   -0.06097
  4 Li   -0.00302    0.01070   -0.05366
  5 Li    0.00350    0.01026   -0.06545
  6 Li   -0.00275   -0.00300    0.00029
  7 Li    0.00023   -0.00009   -0.00347
  8 Li    0.01029    0.00347    0.00324
  9 Li   -0.01595    0.00461    0.01098
 10 Li    0.00652    0.02126   -0.03675
 11 Li    0.00672   -0.00430   -0.01636
 12 Li   -0.00079    0.00120    0.12672
 13 Li   -0.00386    0.00135    0.12583
 14 Li    0.00110   -0.00065   -0.06355
 15 Li   -0.00051   -0.00002   -0.05699
 16 Li   -0.00627   -0.00256   -0.03278
 17 Li    0.00398   -0.02319   -0.07809
 18 Li   -0.00416    0.00455    0.00435
 19 Li   -0.00092   -0.00093   -0.00417
 20 Li    0.01374    0.00043    0.00350
 21 Li   -0.01656   -0.01977    0.00005
 22 Li    0.00763   -0.00376   -0.03538
 23 Li    0.00292   -0.00462   -0.02042
 24 Li   -0.00135    0.00029    0.12564
 25 Li   -0.00343   -0.00018    0.12266
 26 Li    0.00123    0.00109   -0.05414
 27 Li   -0.00006    0.00005   -0.05257
 28 Li   -0.00170   -0.01220   -0.05979
 29 Li    0.00524   -0.00381   -0.04746
 30 Li   -0.00177   -0.00226   -0.00084
 31 Li    0.01138    0.00259   -0.00066
 32 Li    0.02182   -0.01010   -0.00786
 33 Li   -0.01574    0.00441   -0.01191
 34 Li    0.00039    0.05767    0.05192
 35 Li    0.02215    0.00001   -0.02106
 36 Li   -0.00151    0.00010    0.12485
 37 Li   -0.00381   -0.00034    0.12456
 38 Li    0.00106   -0.00061   -0.05456
 39 Li   -0.00027   -0.00046   -0.05398
 40 Li   -0.00208    0.00457   -0.05133
 41 Li    0.00486    0.01614   -0.06590
 42 Li   -0.00143   -0.00031    0.01014
 43 Li    0.00559   -0.00068   -0.00491
 44 Li    0.01856    0.00465   -0.00902
 45 Li   -0.01616    0.01671   -0.01958
 46 Li   -0.00750    0.06506   -0.15334
 47 Li    0.01046   -0.01473   -0.00769
 48 Li    0.00305   -0.00219    0.12832
 49 Li    0.00209   -0.00080    0.12655
 50 Li    0.00018    0.00020   -0.05830
 51 Li   -0.00045    0.00064   -0.06431
 52 Li    0.00455   -0.00247   -0.03830
 53 Li    0.00132   -0.00099   -0.07261
 54 Li   -0.00207    0.00063    0.00962
 55 Li    0.00014   -0.00089   -0.00280
 56 Li    0.00365   -0.00070   -0.00684
 57 Li    0.01299    0.00046    0.00160
 58 Li   -0.00457    0.00258   -0.01766
 59 Li   -0.00974   -0.00200   -0.02630
 60 Li    0.00286    0.00164    0.12745
 61 Li    0.00037    0.00127    0.12554
 62 Li   -0.00019   -0.00023   -0.05679
 63 Li   -0.00111   -0.00069   -0.06276
 64 Li    0.00332    0.00198   -0.03772
 65 Li    0.00239   -0.00063   -0.07620
 66 Li    0.00095   -0.00175    0.00858
 67 Li    0.00014    0.00141   -0.00475
 68 Li    0.00190    0.00023   -0.00534
 69 Li    0.01149   -0.00132    0.00201
 70 Li   -0.00706   -0.00239   -0.01299
 71 Li   -0.00377   -0.00474   -0.03200
 72 Li    0.00327    0.00089    0.12649
 73 Li   -0.00084   -0.00001    0.12523
 74 Li    0.00037    0.00033   -0.05771
 75 Li   -0.00185   -0.00001   -0.05757
 76 Li    0.00388    0.00174   -0.03730
 77 Li    0.00574   -0.00179   -0.08309
 78 Li    0.00048    0.00067    0.00984
 79 Li    0.00008    0.00053   -0.00493
 80 Li    0.00919   -0.00104   -0.01061
 81 Li    0.01405   -0.00505    0.00470
 82 Li    0.00250   -0.00606   -0.01950
 83 Li   -0.02450   -0.00118   -0.03799
 84 Li    0.00348   -0.00033    0.12531
 85 Li   -0.00013   -0.00054    0.12497
 86 Li    0.00056   -0.00046   -0.05657
 87 Li   -0.00144    0.00036   -0.05964
 88 Li    0.00295   -0.00113   -0.03684
 89 Li    0.00354    0.00304   -0.08089
 90 Li    0.00030   -0.00018    0.00587
 91 Li    0.00033   -0.00100   -0.00504
 92 Li    0.01027    0.00168   -0.01064
 93 Li    0.01819    0.00473    0.00159
 94 Li    0.00656    0.00446   -0.01537
 95 Li   -0.01406   -0.01902   -0.01604
 96 Li    0.00013    0.00012    0.12382
 97 Li    0.00069    0.00046    0.12314
 98 Li   -0.00004    0.00035   -0.05965
 99 Li    0.00138    0.00009   -0.05796
100 Li   -0.00427    0.00054   -0.05579
101 Li    0.00413   -0.00002   -0.05542
102 Li   -0.00228   -0.00105    0.02483
103 Li    0.00347   -0.00091    0.02538
104 Li   -0.00402   -0.00075   -0.01092
105 Li    0.00484   -0.00054   -0.01018
106 Li    0.00099   -0.00020    0.12457
107 Li    0.00011   -0.00061    0.12397
108 Li   -0.00018   -0.00001   -0.05955
109 Li    0.00174   -0.00028   -0.05824
110 Li   -0.00474   -0.00031   -0.05734
111 Li    0.00409   -0.00004   -0.05484
112 Li   -0.00244    0.00091    0.02509
113 Li    0.00351    0.00294    0.02563
114 Li   -0.00539    0.00016   -0.01119
115 Li    0.00645    0.00114   -0.00956
116 Li   -0.00029    0.00014    0.12351
117 Li   -0.00009    0.00000    0.12446
118 Li    0.00002   -0.00044   -0.05982
119 Li    0.00177    0.00015   -0.05929
120 Li   -0.00270   -0.00021   -0.05513
121 Li    0.00324    0.00007   -0.05501
122 Li   -0.00309   -0.00016    0.02415
123 Li    0.00277    0.00126    0.02669
124 Li   -0.00679    0.00006   -0.01007
125 Li    0.00726   -0.00042   -0.00942
126 Li   -0.00045   -0.00001    0.12369
127 Li    0.00008    0.00032    0.12416
128 Li    0.00025    0.00026   -0.05935
129 Li    0.00181    0.00019   -0.05889
130 Li   -0.00124   -0.00014   -0.05513
131 Li    0.00375    0.00012   -0.05469
132 Li   -0.00361    0.00014    0.02506
133 Li    0.00339   -0.00315    0.02555
134 Li   -0.00781    0.00059   -0.00977
135 Li    0.00725   -0.00023   -0.00959
136 Li   -0.00128    0.00031    0.12461
137 Li    0.00061   -0.00061    0.12324
138 Li   -0.00129    0.00012   -0.05802
139 Li   -0.00008   -0.00007   -0.06051
140 Li   -0.00384    0.01366   -0.08468
141 Li   -0.00254   -0.00422   -0.03203
142 Li    0.00225   -0.00305   -0.00027
143 Li    0.00252    0.00019    0.00571
144 Li   -0.00909    0.00228    0.00346
145 Li   -0.00170   -0.00141   -0.00580
146 Li   -0.00183   -0.00042    0.12533
147 Li    0.00197    0.00132    0.12248
148 Li   -0.00092   -0.00014   -0.05611
149 Li    0.00018   -0.00020   -0.06021
150 Li   -0.00000   -0.00467   -0.06659
151 Li   -0.00380    0.01059   -0.02787
152 Li   -0.00212   -0.00057   -0.00169
153 Li    0.00289   -0.00141    0.00496
154 Li   -0.00640    0.00218   -0.00025
155 Li   -0.00243    0.00287   -0.00533
156 Li    0.00033    0.00031    0.12431
157 Li    0.00199    0.00003    0.12154
158 Li   -0.00170   -0.00015   -0.05879
159 Li   -0.00012    0.00021   -0.06078
160 Li   -0.00609   -0.01235   -0.08413
161 Li   -0.00703    0.00085   -0.03253
162 Li    0.00000    0.00215   -0.00422
163 Li   -0.00756    0.00305    0.00665
164 Li   -0.01652   -0.00727   -0.00983
165 Li   -0.01615   -0.00244   -0.02249
166 Li    0.00053   -0.00038    0.12448
167 Li    0.00255   -0.00086    0.12205
168 Li   -0.00143   -0.00015   -0.05815
169 Li   -0.00006   -0.00005   -0.06034
170 Li   -0.00550    0.00377   -0.07402
171 Li   -0.00552   -0.00768   -0.02995
172 Li   -0.00219    0.00083   -0.00568
173 Li   -0.00390   -0.00137    0.00308
174 Li   -0.00640    0.00065   -0.00803
175 Li   -0.01177    0.00205   -0.01195
176 Li   -0.00646   -0.08866    0.08142

System changes: positions 

Initializing position-dependent things.

Density initialized from wave functions
          .------------------------------------------------.  
         /|                                                |  
        / |                                                |  
       /  |                                                |  
      /   |                                                |  
     /    |                                                |  
    /     |                                                |  
   /      |                                                |  
  /       |                                                |  
 *        |                                                |  
 |        |                                                |  
 |        |                                                |  
 |        |                                                |  
 |        |  Li Li           Li                            |  
 |        |          Li                                   Li  
 |        |   Li      Li  Li                               |  
 |     Li Li       Li                          Li          |  
 |        | Li Li       Li Li          Li           Li     |  
 |      Li|      Li Li          Li           Li      Li    |  
 |       Li  Li          Li Li       Li  Li       Li Li    |  
 |    Li Li   Li  Li LLi      Li Li       Li  Li           |  
 |        |Li Li      Li  Li       Li Li        Li Li      |  
 |  Li Li |    Li  Li      Li  Li       Li Li              |  
 |      Li| Li Li       Li Li       Li Li    Li Li  Li     |  
 |  Li  Li|      Li Li       Li LLi      Li  Li            |  
 |       Li  Li       Li Li       Li Li       Li  Li       |  
 |Li Li  Li   Li  Li Li    Li Li Li    Li Li  Li           |  
 |        Li  Li       Li Li       Li Li       Li  Li      |  
 | Li  Li |    Li  Li       Li Li       Li Li              |  
 |      Li| Li Li    Li Li Li    Li Li Li    Li Li  Li     |  
 |  Li  Li|      Li Li       Li Li       Li  Li            |  
 Li      Li  Li       Li Li       Li LLi      Li  Li       |  
 |Li Li   |   Li  Li       Li Li       Li Li               |  
 |        Li           Li          Li          Li          |  
 | Li  Li |    Li  Li       Li  Li      Li  Li             |  
 |        |                                                |  
 |      Li|          Li          Li          Li            |  
 Li       |  Li          Li           Li                   |  
 |        |                                                |  
 |        |                                                |  
 |        .------------------------------------------------.  
 |       /                                                /   
 |      /                                                /    
 |     /                                                /     
 |    /                                                /      
 |   /                                                /       
 |  /                                                /        
 | /                                                /         
 |/                                                /          
 *------------------------------------------------*           

Atomic positions and initial magnetic moments

Positions:
   0 Li     0.000000    0.000000   10.000000    ( 0.0000,  0.0000,  0.0000)
   1 Li     2.467803    1.745000   10.000000    ( 0.0000,  0.0000,  0.0000)
   2 Li     2.467803    0.000000   12.467803    ( 0.0000,  0.0000,  0.0000)
   3 Li     0.000000    1.745000   12.467803    ( 0.0000,  0.0000,  0.0000)
   4 Li     4.935605    0.000000   14.935605    ( 0.0000,  0.0000,  0.0000)
   5 Li     2.467803    1.745000   14.935605    ( 0.0000,  0.0000,  0.0000)
   6 Li     2.470062    0.024681   17.339803    ( 0.0000,  0.0000,  0.0000)
   7 Li     4.933370    1.738045   17.394985    ( 0.0000,  0.0000,  0.0000)
   8 Li     4.899949   -0.032042   19.844667    ( 0.0000,  0.0000,  0.0000)
   9 Li     2.522039    1.723072   19.795099    ( 0.0000,  0.0000,  0.0000)
  10 Li     2.416970   -0.063131   22.122543    ( 0.0000,  0.0000,  0.0000)
  11 Li    -0.126013    1.732609   22.017007    ( 0.0000,  0.0000,  0.0000)
  12 Li     0.000000    3.490000   10.000000    ( 0.0000,  0.0000,  0.0000)
  13 Li     2.467803    5.235000   10.000000    ( 0.0000,  0.0000,  0.0000)
  14 Li     2.467803    3.490000   12.467803    ( 0.0000,  0.0000,  0.0000)
  15 Li     0.000000    5.235000   12.467803    ( 0.0000,  0.0000,  0.0000)
  16 Li     4.935605    3.490000   14.935605    ( 0.0000,  0.0000,  0.0000)
  17 Li     2.467803    5.235000   14.935605    ( 0.0000,  0.0000,  0.0000)
  18 Li     2.473378    3.486260   17.369970    ( 0.0000,  0.0000,  0.0000)
  19 Li     4.935703    5.238644   17.383379    ( 0.0000,  0.0000,  0.0000)
  20 Li     4.879870    3.501681   19.826374    ( 0.0000,  0.0000,  0.0000)
  21 Li     2.523070    5.265948   19.776279    ( 0.0000,  0.0000,  0.0000)
  22 Li     2.405420    3.501291   22.111102    ( 0.0000,  0.0000,  0.0000)
  23 Li    -0.097480    5.292144   22.040733    ( 0.0000,  0.0000,  0.0000)
  24 Li     0.000000    6.980000   10.000000    ( 0.0000,  0.0000,  0.0000)
  25 Li     2.467803    8.725000   10.000000    ( 0.0000,  0.0000,  0.0000)
  26 Li     2.467803    6.980000   12.467803    ( 0.0000,  0.0000,  0.0000)
  27 Li     0.000000    8.725000   12.467803    ( 0.0000,  0.0000,  0.0000)
  28 Li     4.935605    6.980000   14.935605    ( 0.0000,  0.0000,  0.0000)
  29 Li     2.467803    8.725000   14.935605    ( 0.0000,  0.0000,  0.0000)
  30 Li     2.470041    6.940113   17.319413    ( 0.0000,  0.0000,  0.0000)
  31 Li     4.925343    8.712230   17.353131    ( 0.0000,  0.0000,  0.0000)
  32 Li     4.903443    7.006437   19.829086    ( 0.0000,  0.0000,  0.0000)
  33 Li     2.530696    8.689677   19.627970    ( 0.0000,  0.0000,  0.0000)
  34 Li     2.446078    7.037271   22.055348    ( 0.0000,  0.0000,  0.0000)
  35 Li     0.028175    8.776277   22.126649    ( 0.0000,  0.0000,  0.0000)
  36 Li     0.000000   10.470000   10.000000    ( 0.0000,  0.0000,  0.0000)
  37 Li     2.467803   12.215000   10.000000    ( 0.0000,  0.0000,  0.0000)
  38 Li     2.467803   10.470000   12.467803    ( 0.0000,  0.0000,  0.0000)
  39 Li     0.000000   12.215000   12.467803    ( 0.0000,  0.0000,  0.0000)
  40 Li     4.935605   10.470000   14.935605    ( 0.0000,  0.0000,  0.0000)
  41 Li     2.467803   12.215000   14.935605    ( 0.0000,  0.0000,  0.0000)
  42 Li     2.473396   10.488935   17.326598    ( 0.0000,  0.0000,  0.0000)
  43 Li     4.932019   12.231090   17.363404    ( 0.0000,  0.0000,  0.0000)
  44 Li     4.891041   10.463909   19.783292    ( 0.0000,  0.0000,  0.0000)
  45 Li     2.527974   12.241362   19.690977    ( 0.0000,  0.0000,  0.0000)
  46 Li     2.452480   10.465972   21.844763    ( 0.0000,  0.0000,  0.0000)
  47 Li    -0.058547   12.118733   22.076372    ( 0.0000,  0.0000,  0.0000)
  48 Li     4.935605    0.000000   10.000000    ( 0.0000,  0.0000,  0.0000)
  49 Li     7.403408    1.745000   10.000000    ( 0.0000,  0.0000,  0.0000)
  50 Li     7.403408    0.000000   12.467803    ( 0.0000,  0.0000,  0.0000)
  51 Li     4.935605    1.745000   12.467803    ( 0.0000,  0.0000,  0.0000)
  52 Li     9.871211    0.000000   14.935605    ( 0.0000,  0.0000,  0.0000)
  53 Li     7.403408    1.745000   14.935605    ( 0.0000,  0.0000,  0.0000)
  54 Li     7.394455   -0.001632   17.315850    ( 0.0000,  0.0000,  0.0000)
  55 Li     9.868095    1.744527   17.363157    ( 0.0000,  0.0000,  0.0000)
  56 Li     9.720904    0.001987   19.758198    ( 0.0000,  0.0000,  0.0000)
  57 Li     7.250905    1.743579   19.672098    ( 0.0000,  0.0000,  0.0000)
  58 Li     7.485521   -0.031302   22.005250    ( 0.0000,  0.0000,  0.0000)
  59 Li     4.964873    1.744847   22.149032    ( 0.0000,  0.0000,  0.0000)
  60 Li     4.935605    3.490000   10.000000    ( 0.0000,  0.0000,  0.0000)
  61 Li     7.403408    5.235000   10.000000    ( 0.0000,  0.0000,  0.0000)
  62 Li     7.403408    3.490000   12.467803    ( 0.0000,  0.0000,  0.0000)
  63 Li     4.935605    5.235000   12.467803    ( 0.0000,  0.0000,  0.0000)
  64 Li     9.871211    3.490000   14.935605    ( 0.0000,  0.0000,  0.0000)
  65 Li     7.403408    5.235000   14.935605    ( 0.0000,  0.0000,  0.0000)
  66 Li     7.388136    3.491159   17.317004    ( 0.0000,  0.0000,  0.0000)
  67 Li     9.867160    5.239517   17.369181    ( 0.0000,  0.0000,  0.0000)
  68 Li     9.725932    3.488037   19.748491    ( 0.0000,  0.0000,  0.0000)
  69 Li     7.254865    5.241667   19.669144    ( 0.0000,  0.0000,  0.0000)
  70 Li     7.507713    3.501952   22.000498    ( 0.0000,  0.0000,  0.0000)
  71 Li     4.950330    5.251767   22.175867    ( 0.0000,  0.0000,  0.0000)
  72 Li     4.935605    6.980000   10.000000    ( 0.0000,  0.0000,  0.0000)
  73 Li     7.403408    8.725000   10.000000    ( 0.0000,  0.0000,  0.0000)
  74 Li     7.403408    6.980000   12.467803    ( 0.0000,  0.0000,  0.0000)
  75 Li     4.935605    8.725000   12.467803    ( 0.0000,  0.0000,  0.0000)
  76 Li     9.871211    6.980000   14.935605    ( 0.0000,  0.0000,  0.0000)
  77 Li     7.403408    8.725000   14.935605    ( 0.0000,  0.0000,  0.0000)
  78 Li     7.389075    6.980194   17.310692    ( 0.0000,  0.0000,  0.0000)
  79 Li     9.866025    8.726130   17.372601    ( 0.0000,  0.0000,  0.0000)
  80 Li     9.712733    6.983172   19.773893    ( 0.0000,  0.0000,  0.0000)
  81 Li     7.252757    8.735658   19.652326    ( 0.0000,  0.0000,  0.0000)
  82 Li     7.458111    7.022014   22.008418    ( 0.0000,  0.0000,  0.0000)
  83 Li     4.898279    8.769054   22.229493    ( 0.0000,  0.0000,  0.0000)
  84 Li     4.935605   10.470000   10.000000    ( 0.0000,  0.0000,  0.0000)
  85 Li     7.403408   12.215000   10.000000    ( 0.0000,  0.0000,  0.0000)
  86 Li     7.403408   10.470000   12.467803    ( 0.0000,  0.0000,  0.0000)
  87 Li     4.935605   12.215000   12.467803    ( 0.0000,  0.0000,  0.0000)
  88 Li     9.871211   10.470000   14.935605    ( 0.0000,  0.0000,  0.0000)
  89 Li     7.403408   12.215000   14.935605    ( 0.0000,  0.0000,  0.0000)
  90 Li     7.380366   10.470273   17.306095    ( 0.0000,  0.0000,  0.0000)
  91 Li     9.867369   12.209827   17.370788    ( 0.0000,  0.0000,  0.0000)
  92 Li     9.717655   10.466805   19.772246    ( 0.0000,  0.0000,  0.0000)
  93 Li     7.258271   12.199084   19.661800    ( 0.0000,  0.0000,  0.0000)
  94 Li     7.476112   10.447322   22.008514    ( 0.0000,  0.0000,  0.0000)
  95 Li     4.930144   12.154063   22.209201    ( 0.0000,  0.0000,  0.0000)
  96 Li     9.871211    0.000000   10.000000    ( 0.0000,  0.0000,  0.0000)
  97 Li    12.339013    1.745000   10.000000    ( 0.0000,  0.0000,  0.0000)
  98 Li    12.339013    0.000000   12.467803    ( 0.0000,  0.0000,  0.0000)
  99 Li     9.871211    1.745000   12.467803    ( 0.0000,  0.0000,  0.0000)
 100 Li    14.806816    0.000000   14.935605    ( 0.0000,  0.0000,  0.0000)
 101 Li    12.339013    1.745000   14.935605    ( 0.0000,  0.0000,  0.0000)
 102 Li    12.337432   -0.000434   17.331953    ( 0.0000,  0.0000,  0.0000)
 103 Li    14.806867    1.745614   17.329477    ( 0.0000,  0.0000,  0.0000)
 104 Li    14.861272   -0.001009   19.667112    ( 0.0000,  0.0000,  0.0000)
 105 Li    12.283265    1.744391   19.668355    ( 0.0000,  0.0000,  0.0000)
 106 Li     9.871211    3.490000   10.000000    ( 0.0000,  0.0000,  0.0000)
 107 Li    12.339013    5.235000   10.000000    ( 0.0000,  0.0000,  0.0000)
 108 Li    12.339013    3.490000   12.467803    ( 0.0000,  0.0000,  0.0000)
 109 Li     9.871211    5.235000   12.467803    ( 0.0000,  0.0000,  0.0000)
 110 Li    14.806816    3.490000   14.935605    ( 0.0000,  0.0000,  0.0000)
 111 Li    12.339013    5.235000   14.935605    ( 0.0000,  0.0000,  0.0000)
 112 Li    12.337146    3.490540   17.331790    ( 0.0000,  0.0000,  0.0000)
 113 Li    14.808470    5.235654   17.329581    ( 0.0000,  0.0000,  0.0000)
 114 Li    14.858473    3.490474   19.666807    ( 0.0000,  0.0000,  0.0000)
 115 Li    12.282391    5.239070   19.668482    ( 0.0000,  0.0000,  0.0000)
 116 Li     9.871211    6.980000   10.000000    ( 0.0000,  0.0000,  0.0000)
 117 Li    12.339013    8.725000   10.000000    ( 0.0000,  0.0000,  0.0000)
 118 Li    12.339013    6.980000   12.467803    ( 0.0000,  0.0000,  0.0000)
 119 Li     9.871211    8.725000   12.467803    ( 0.0000,  0.0000,  0.0000)
 120 Li    14.806816    6.980000   14.935605    ( 0.0000,  0.0000,  0.0000)
 121 Li    12.339013    8.725000   14.935605    ( 0.0000,  0.0000,  0.0000)
 122 Li    12.338832    6.980469   17.330989    ( 0.0000,  0.0000,  0.0000)
 123 Li    14.801966    8.725690   17.324917    ( 0.0000,  0.0000,  0.0000)
 124 Li    14.872067    6.985248   19.666908    ( 0.0000,  0.0000,  0.0000)
 125 Li    12.282784    8.724913   19.667930    ( 0.0000,  0.0000,  0.0000)
 126 Li     9.871211   10.470000   10.000000    ( 0.0000,  0.0000,  0.0000)
 127 Li    12.339013   12.215000   10.000000    ( 0.0000,  0.0000,  0.0000)
 128 Li    12.339013   10.470000   12.467803    ( 0.0000,  0.0000,  0.0000)
 129 Li     9.871211   12.215000   12.467803    ( 0.0000,  0.0000,  0.0000)
 130 Li    14.806816   10.470000   14.935605    ( 0.0000,  0.0000,  0.0000)
 131 Li    12.339013   12.215000   14.935605    ( 0.0000,  0.0000,  0.0000)
 132 Li    12.339452   10.469423   17.330671    ( 0.0000,  0.0000,  0.0000)
 133 Li    14.806692   12.213043   17.328715    ( 0.0000,  0.0000,  0.0000)
 134 Li    14.871367   10.465289   19.665736    ( 0.0000,  0.0000,  0.0000)
 135 Li    12.282225   12.211626   19.668664    ( 0.0000,  0.0000,  0.0000)
 136 Li    14.806816    0.000000   10.000000    ( 0.0000,  0.0000,  0.0000)
 137 Li    17.274619    1.745000   10.000000    ( 0.0000,  0.0000,  0.0000)
 138 Li    17.274619    0.000000   12.467803    ( 0.0000,  0.0000,  0.0000)
 139 Li    14.806816    1.745000   12.467803    ( 0.0000,  0.0000,  0.0000)
 140 Li    19.742421    0.000000   14.935605    ( 0.0000,  0.0000,  0.0000)
 141 Li    17.274619    1.745000   14.935605    ( 0.0000,  0.0000,  0.0000)
 142 Li    17.272627   -0.008340   17.372642    ( 0.0000,  0.0000,  0.0000)
 143 Li    19.749506    1.741572   17.335754    ( 0.0000,  0.0000,  0.0000)
 144 Li    19.888135   -0.029931   19.701191    ( 0.0000,  0.0000,  0.0000)
 145 Li    17.419743    1.749330   19.745979    ( 0.0000,  0.0000,  0.0000)
 146 Li    14.806816    3.490000   10.000000    ( 0.0000,  0.0000,  0.0000)
 147 Li    17.274619    5.235000   10.000000    ( 0.0000,  0.0000,  0.0000)
 148 Li    17.274619    3.490000   12.467803    ( 0.0000,  0.0000,  0.0000)
 149 Li    14.806816    5.235000   12.467803    ( 0.0000,  0.0000,  0.0000)
 150 Li    19.742421    3.490000   14.935605    ( 0.0000,  0.0000,  0.0000)
 151 Li    17.274619    5.235000   14.935605    ( 0.0000,  0.0000,  0.0000)
 152 Li    17.275342    3.492929   17.363382    ( 0.0000,  0.0000,  0.0000)
 153 Li    19.747744    5.233851   17.322905    ( 0.0000,  0.0000,  0.0000)
 154 Li    19.898345    3.500128   19.695291    ( 0.0000,  0.0000,  0.0000)
 155 Li    17.424567    5.222971   19.764461    ( 0.0000,  0.0000,  0.0000)
 156 Li    14.806816    6.980000   10.000000    ( 0.0000,  0.0000,  0.0000)
 157 Li    17.274619    8.725000   10.000000    ( 0.0000,  0.0000,  0.0000)
 158 Li    17.274619    6.980000   12.467803    ( 0.0000,  0.0000,  0.0000)
 159 Li    14.806816    8.725000   12.467803    ( 0.0000,  0.0000,  0.0000)
 160 Li    19.742421    6.980000   14.935605    ( 0.0000,  0.0000,  0.0000)
 161 Li    17.274619    8.725000   14.935605    ( 0.0000,  0.0000,  0.0000)
 162 Li    17.280136    6.997722   17.394284    ( 0.0000,  0.0000,  0.0000)
 163 Li    19.770786    8.713351   17.297946    ( 0.0000,  0.0000,  0.0000)
 164 Li    19.889258    7.004174   19.681520    ( 0.0000,  0.0000,  0.0000)
 165 Li    17.456533    8.730539   19.855156    ( 0.0000,  0.0000,  0.0000)
 166 Li    14.806816   10.470000   10.000000    ( 0.0000,  0.0000,  0.0000)
 167 Li    17.274619   12.215000   10.000000    ( 0.0000,  0.0000,  0.0000)
 168 Li    17.274619   10.470000   12.467803    ( 0.0000,  0.0000,  0.0000)
 169 Li    14.806816   12.215000   12.467803    ( 0.0000,  0.0000,  0.0000)
 170 Li    19.742421   10.470000   14.935605    ( 0.0000,  0.0000,  0.0000)
 171 Li    17.274619   12.215000   14.935605    ( 0.0000,  0.0000,  0.0000)
 172 Li    17.288541   10.457682   17.397463    ( 0.0000,  0.0000,  0.0000)
 173 Li    19.757315   12.231231   17.304334    ( 0.0000,  0.0000,  0.0000)
 174 Li    19.893331   10.465608   19.640281    ( 0.0000,  0.0000,  0.0000)
 175 Li    17.432073   12.217169   19.794969    ( 0.0000,  0.0000,  0.0000)
 176 Li     2.463933    9.306257   24.240659    ( 0.0000,  0.0000,  0.0000)

Unit cell:
           periodic     x           y           z      points  spacing
  1. axis:    yes   19.742421    0.000000    0.000000   100     0.1974
  2. axis:    yes    0.000000   13.960000    0.000000    68     0.2053
  3. axis:    no     0.000000    0.000000   32.339013   160     0.2021

  Lengths:  19.742421  13.960000  32.339013
  Angles:   90.000000  90.000000  90.000000

Effective grid spacing dv^(1/3) = 0.2016

     iter     time        total  log10-change:
                         energy   eigst   dens
iter:   1 05:59:18  -310.480911        c
iter:   2 06:00:06  -310.480585        c -3.15
iter:   3 06:00:51  -310.480563c       c -3.06
iter:   4 06:01:37  -310.480572c       c -3.89
iter:   5 06:02:24  -310.480540c       c -4.07c

Converged after 5 iterations.

Dipole moment: (-39.335284, -17.066716, 0.762935) |e|*Ang

Energy contributions relative to reference atoms: (reference = -35893.444183)

Kinetic:       +329.380589
Potential:     -280.066015
External:        +0.000000
XC:            -354.653529
Entropy (-ST):   -5.748050
Local:           -2.267560
SIC:             +0.000000
--------------------------
Free energy:   -313.354565
Extrapolated:  -310.480540

Showing all kpts
 Kpt  Band  Eigenvalues  Occupancy
  0    86     -2.88860    1.13933
  0    87     -2.87323    1.08877
  0    88     -2.84165    0.98375
  0    89     -2.83307    0.95518

  1    86     -2.88852    1.13908
  1    87     -2.87316    1.08855
  1    88     -2.84296    0.98811
  1    89     -2.83120    0.94895


Fermi level: -2.84653

Gap: 0.030 eV
Transition (v -> c):
  (s=0, k=1, n=87, [0.25, 0.25, 0.00]) -> (s=0, k=1, n=88, [0.25, 0.25, 0.00])
No difference between direct/indirect transitions

Forces in eV/Ang:
  0 Li   -0.00080   -0.00163    0.12738
  1 Li   -0.00427   -0.00079    0.12458
  2 Li    0.00105    0.00001   -0.05901
  3 Li   -0.00107    0.00056   -0.06065
  4 Li   -0.00306    0.01072   -0.05360
  5 Li    0.00357    0.01027   -0.06539
  6 Li   -0.00264   -0.00291    0.00003
  7 Li    0.00016   -0.00011   -0.00361
  8 Li    0.01013    0.00327    0.00302
  9 Li   -0.01580    0.00466    0.01056
 10 Li    0.00636    0.02117   -0.03673
 11 Li    0.00673   -0.00419   -0.01618
 12 Li   -0.00065    0.00124    0.12668
 13 Li   -0.00372    0.00144    0.12533
 14 Li    0.00100   -0.00068   -0.06323
 15 Li   -0.00075   -0.00006   -0.05671
 16 Li   -0.00629   -0.00257   -0.03273
 17 Li    0.00405   -0.02321   -0.07797
 18 Li   -0.00403    0.00454    0.00415
 19 Li   -0.00096   -0.00091   -0.00430
 20 Li    0.01363    0.00037    0.00314
 21 Li   -0.01639   -0.01906    0.00023
 22 Li    0.00747   -0.00369   -0.03504
 23 Li    0.00305   -0.00459   -0.02035
 24 Li   -0.00117    0.00037    0.12546
 25 Li   -0.00330   -0.00014    0.12203
 26 Li    0.00112    0.00105   -0.05391
 27 Li   -0.00030    0.00006   -0.05240
 28 Li   -0.00176   -0.01224   -0.05960
 29 Li    0.00530   -0.00383   -0.04726
 30 Li   -0.00165   -0.00226   -0.00101
 31 Li    0.01118    0.00251   -0.00073
 32 Li    0.02145   -0.00994   -0.00804
 33 Li   -0.01550    0.00401   -0.01208
 34 Li    0.00036    0.05673    0.05090
 35 Li    0.02197    0.00005   -0.02122
 36 Li   -0.00131    0.00005    0.12465
 37 Li   -0.00368   -0.00045    0.12402
 38 Li    0.00095   -0.00059   -0.05437
 39 Li   -0.00051   -0.00042   -0.05375
 40 Li   -0.00214    0.00460   -0.05118
 41 Li    0.00493    0.01616   -0.06575
 42 Li   -0.00130   -0.00034    0.00999
 43 Li    0.00549   -0.00066   -0.00505
 44 Li    0.01836    0.00458   -0.00931
 45 Li   -0.01592    0.01690   -0.01999
 46 Li   -0.00751    0.06325   -0.14946
 47 Li    0.01032   -0.01441   -0.00787
 48 Li    0.00293   -0.00225    0.12784
 49 Li    0.00200   -0.00079    0.12640
 50 Li    0.00037    0.00022   -0.05800
 51 Li   -0.00035    0.00065   -0.06396
 52 Li    0.00443   -0.00249   -0.03855
 53 Li    0.00123   -0.00099   -0.07268
 54 Li   -0.00213    0.00064    0.00944
 55 Li    0.00020   -0.00088   -0.00286
 56 Li    0.00379   -0.00069   -0.00665
 57 Li    0.01284    0.00046    0.00145
 58 Li   -0.00462    0.00253   -0.01746
 59 Li   -0.00957   -0.00191   -0.02606
 60 Li    0.00275    0.00168    0.12702
 61 Li    0.00024    0.00129    0.12538
 62 Li   -0.00001   -0.00024   -0.05648
 63 Li   -0.00100   -0.00074   -0.06246
 64 Li    0.00318    0.00199   -0.03794
 65 Li    0.00231   -0.00066   -0.07624
 66 Li    0.00086   -0.00170    0.00839
 67 Li    0.00019    0.00135   -0.00481
 68 Li    0.00207    0.00024   -0.00517
 69 Li    0.01136   -0.00130    0.00183
 70 Li   -0.00710   -0.00238   -0.01279
 71 Li   -0.00372   -0.00466   -0.03187
 72 Li    0.00312    0.00096    0.12591
 73 Li   -0.00105   -0.00001    0.12504
 74 Li    0.00060    0.00031   -0.05748
 75 Li   -0.00174   -0.00002   -0.05739
 76 Li    0.00382    0.00176   -0.03760
 77 Li    0.00571   -0.00180   -0.08315
 78 Li    0.00034    0.00063    0.00974
 79 Li    0.00012    0.00051   -0.00501
 80 Li    0.00922   -0.00104   -0.01042
 81 Li    0.01382   -0.00499    0.00459
 82 Li    0.00237   -0.00599   -0.01933
 83 Li   -0.02417   -0.00105   -0.03798
 84 Li    0.00331   -0.00038    0.12471
 85 Li   -0.00029   -0.00057    0.12480
 86 Li    0.00080   -0.00045   -0.05634
 87 Li   -0.00134    0.00040   -0.05938
 88 Li    0.00292   -0.00113   -0.03718
 89 Li    0.00348    0.00309   -0.08095
 90 Li    0.00023   -0.00017    0.00582
 91 Li    0.00038   -0.00094   -0.00512
 92 Li    0.01028    0.00166   -0.01043
 93 Li    0.01798    0.00463    0.00146
 94 Li    0.00653    0.00435   -0.01535
 95 Li   -0.01377   -0.01872   -0.01613
 96 Li    0.00019    0.00017    0.12394
 97 Li    0.00070    0.00049    0.12325
 98 Li   -0.00009    0.00031   -0.05964
 99 Li    0.00139    0.00009   -0.05780
100 Li   -0.00414    0.00051   -0.05579
101 Li    0.00400   -0.00004   -0.05533
102 Li   -0.00213   -0.00104    0.02453
103 Li    0.00328   -0.00091    0.02508
104 Li   -0.00414   -0.00070   -0.01070
105 Li    0.00495   -0.00052   -0.00997
106 Li    0.00106   -0.00021    0.12466
107 Li    0.00011   -0.00070    0.12413
108 Li   -0.00024    0.00001   -0.05959
109 Li    0.00177   -0.00026   -0.05806
110 Li   -0.00459   -0.00030   -0.05733
111 Li    0.00398    0.00001   -0.05480
112 Li   -0.00230    0.00089    0.02482
113 Li    0.00333    0.00292    0.02532
114 Li   -0.00548    0.00014   -0.01094
115 Li    0.00654    0.00108   -0.00936
116 Li   -0.00031    0.00008    0.12369
117 Li   -0.00010   -0.00003    0.12473
118 Li   -0.00006   -0.00041   -0.05973
119 Li    0.00185    0.00017   -0.05906
120 Li   -0.00262   -0.00019   -0.05515
121 Li    0.00312    0.00010   -0.05505
122 Li   -0.00294   -0.00017    0.02382
123 Li    0.00263    0.00124    0.02637
124 Li   -0.00686    0.00003   -0.00985
125 Li    0.00736   -0.00042   -0.00920
126 Li   -0.00050    0.00002    0.12390
127 Li    0.00009    0.00041    0.12438
128 Li    0.00016    0.00024   -0.05921
129 Li    0.00186    0.00016   -0.05866
130 Li   -0.00119   -0.00015   -0.05515
131 Li    0.00363    0.00006   -0.05469
132 Li   -0.00344    0.00016    0.02470
133 Li    0.00321   -0.00311    0.02524
134 Li   -0.00789    0.00060   -0.00954
135 Li    0.00734   -0.00017   -0.00938
136 Li   -0.00136    0.00037    0.12483
137 Li    0.00054   -0.00061    0.12351
138 Li   -0.00133    0.00016   -0.05781
139 Li    0.00006   -0.00006   -0.06049
140 Li   -0.00378    0.01368   -0.08484
141 Li   -0.00243   -0.00422   -0.03238
142 Li    0.00216   -0.00299   -0.00036
143 Li    0.00258    0.00017    0.00563
144 Li   -0.00898    0.00212    0.00340
145 Li   -0.00184   -0.00136   -0.00559
146 Li   -0.00193   -0.00045    0.12553
147 Li    0.00195    0.00133    0.12272
148 Li   -0.00096   -0.00017   -0.05589
149 Li    0.00030   -0.00021   -0.06017
150 Li    0.00004   -0.00468   -0.06675
151 Li   -0.00370    0.01057   -0.02820
152 Li   -0.00214   -0.00054   -0.00174
153 Li    0.00294   -0.00138    0.00485
154 Li   -0.00641    0.00207   -0.00039
155 Li   -0.00256    0.00287   -0.00514
156 Li    0.00031    0.00025    0.12457
157 Li    0.00207    0.00004    0.12175
158 Li   -0.00175   -0.00017   -0.05860
159 Li   -0.00005    0.00022   -0.06069
160 Li   -0.00601   -0.01239   -0.08418
161 Li   -0.00697    0.00085   -0.03283
162 Li   -0.00005    0.00209   -0.00427
163 Li   -0.00737    0.00298    0.00656
164 Li   -0.01623   -0.00713   -0.00972
165 Li   -0.01601   -0.00243   -0.02215
166 Li    0.00054   -0.00035    0.12476
167 Li    0.00257   -0.00088    0.12229
168 Li   -0.00147   -0.00012   -0.05798
169 Li    0.00004   -0.00005   -0.06027
170 Li   -0.00542    0.00379   -0.07412
171 Li   -0.00544   -0.00765   -0.03029
172 Li   -0.00228    0.00083   -0.00575
173 Li   -0.00376   -0.00134    0.00298
174 Li   -0.00636    0.00062   -0.00808
175 Li   -0.01175    0.00201   -0.01166
176 Li   -0.00650   -0.08729    0.07852

System changes: positions 

Initializing position-dependent things.

Density initialized from wave functions
          .------------------------------------------------.  
         /|                                                |  
        / |                                                |  
       /  |                                                |  
      /   |                                                |  
     /    |                                                |  
    /     |                                                |  
   /      |                                                |  
  /       |                                                |  
 *        |                                                |  
 |        |                                                |  
 |        |                                                |  
 |        |                                                |  
 |        |  Li Li           Li                            |  
 |        |          Li                                   Li  
 |        |   Li      Li  Li                               |  
 |     Li Li       Li                          Li          |  
 |        | Li Li       Li Li          Li           Li     |  
 |      Li|      Li Li          Li           Li      Li    |  
 |       Li  Li          Li Li       Li  Li       Li Li    |  
 |    Li Li   Li  Li LLi      Li Li       Li  Li           |  
 |        |Li Li      Li  Li       Li Li        Li Li      |  
 |  Li Li |    Li  Li      Li  Li       Li Li              |  
 |      Li| Li Li       Li Li       Li Li    Li Li  Li     |  
 |  Li  Li|      Li Li       Li LLi      Li  Li            |  
 |       Li  Li       Li Li       Li Li       Li  Li       |  
 |Li Li  Li   Li  Li Li    Li Li Li    Li Li  Li           |  
 |        Li  Li       Li Li       Li Li       Li  Li      |  
 | Li  Li |    Li  Li       Li Li       Li Li              |  
 |      Li| Li Li    Li Li Li    Li Li Li    Li Li  Li     |  
 |  Li  Li|      Li Li       Li Li       Li  Li            |  
 Li      Li  Li       Li Li       Li LLi      Li  Li       |  
 |Li Li   |   Li  Li       Li Li       Li Li               |  
 |        Li           Li          Li          Li          |  
 | Li  Li |    Li  Li       Li  Li      Li  Li             |  
 |        |                                                |  
 |      Li|          Li          Li          Li            |  
 Li       |  Li          Li           Li                   |  
 |        |                                                |  
 |        |                                                |  
 |        .------------------------------------------------.  
 |       /                                                /   
 |      /                                                /    
 |     /                                                /     
 |    /                                                /      
 |   /                                                /       
 |  /                                                /        
 | /                                                /         
 |/                                                /          
 *------------------------------------------------*           

Atomic positions and initial magnetic moments

Positions:
   0 Li     0.000000    0.000000   10.000000    ( 0.0000,  0.0000,  0.0000)
   1 Li     2.467803    1.745000   10.000000    ( 0.0000,  0.0000,  0.0000)
   2 Li     2.467803    0.000000   12.467803    ( 0.0000,  0.0000,  0.0000)
   3 Li     0.000000    1.745000   12.467803    ( 0.0000,  0.0000,  0.0000)
   4 Li     4.935605    0.000000   14.935605    ( 0.0000,  0.0000,  0.0000)
   5 Li     2.467803    1.745000   14.935605    ( 0.0000,  0.0000,  0.0000)
   6 Li     2.470004    0.024653   17.339793    ( 0.0000,  0.0000,  0.0000)
   7 Li     4.933377    1.738031   17.394936    ( 0.0000,  0.0000,  0.0000)
   8 Li     4.900168   -0.031999   19.844774    ( 0.0000,  0.0000,  0.0000)
   9 Li     2.521722    1.723130   19.795356    ( 0.0000,  0.0000,  0.0000)
  10 Li     2.417112   -0.062782   22.121860    ( 0.0000,  0.0000,  0.0000)
  11 Li    -0.125866    1.732504   22.016708    ( 0.0000,  0.0000,  0.0000)
  12 Li     0.000000    3.490000   10.000000    ( 0.0000,  0.0000,  0.0000)
  13 Li     2.467803    5.235000   10.000000    ( 0.0000,  0.0000,  0.0000)
  14 Li     2.467803    3.490000   12.467803    ( 0.0000,  0.0000,  0.0000)
  15 Li     0.000000    5.235000   12.467803    ( 0.0000,  0.0000,  0.0000)
  16 Li     4.935605    3.490000   14.935605    ( 0.0000,  0.0000,  0.0000)
  17 Li     2.467803    5.235000   14.935605    ( 0.0000,  0.0000,  0.0000)
  18 Li     2.473297    3.486354   17.370091    ( 0.0000,  0.0000,  0.0000)
  19 Li     4.935686    5.238639   17.383326    ( 0.0000,  0.0000,  0.0000)
  20 Li     4.880126    3.501680   19.826455    ( 0.0000,  0.0000,  0.0000)
  21 Li     2.522739    5.265588   19.776339    ( 0.0000,  0.0000,  0.0000)
  22 Li     2.405566    3.501207   22.110431    ( 0.0000,  0.0000,  0.0000)
  23 Li    -0.097432    5.292035   22.040333    ( 0.0000,  0.0000,  0.0000)
  24 Li     0.000000    6.980000   10.000000    ( 0.0000,  0.0000,  0.0000)
  25 Li     2.467803    8.725000   10.000000    ( 0.0000,  0.0000,  0.0000)
  26 Li     2.467803    6.980000   12.467803    ( 0.0000,  0.0000,  0.0000)
  27 Li     0.000000    8.725000   12.467803    ( 0.0000,  0.0000,  0.0000)
  28 Li     4.935605    6.980000   14.935605    ( 0.0000,  0.0000,  0.0000)
  29 Li     2.467803    8.725000   14.935605    ( 0.0000,  0.0000,  0.0000)
  30 Li     2.470003    6.940049   17.319398    ( 0.0000,  0.0000,  0.0000)
  31 Li     4.925570    8.712260   17.353125    ( 0.0000,  0.0000,  0.0000)
  32 Li     4.903888    7.006265   19.828983    ( 0.0000,  0.0000,  0.0000)
  33 Li     2.530389    8.689704   19.627700    ( 0.0000,  0.0000,  0.0000)
  34 Li     2.446075    7.038496   22.056484    ( 0.0000,  0.0000,  0.0000)
  35 Li     0.028598    8.776361   22.126250    ( 0.0000,  0.0000,  0.0000)
  36 Li     0.000000   10.470000   10.000000    ( 0.0000,  0.0000,  0.0000)
  37 Li     2.467803   12.215000   10.000000    ( 0.0000,  0.0000,  0.0000)
  38 Li     2.467803   10.470000   12.467803    ( 0.0000,  0.0000,  0.0000)
  39 Li     0.000000   12.215000   12.467803    ( 0.0000,  0.0000,  0.0000)
  40 Li     4.935605   10.470000   14.935605    ( 0.0000,  0.0000,  0.0000)
  41 Li     2.467803   12.215000   14.935605    ( 0.0000,  0.0000,  0.0000)
  42 Li     2.473370   10.488913   17.326814    ( 0.0000,  0.0000,  0.0000)
  43 Li     4.932125   12.231095   17.363304    ( 0.0000,  0.0000,  0.0000)
  44 Li     4.891402   10.464006   19.783091    ( 0.0000,  0.0000,  0.0000)
  45 Li     2.527660   12.241764   19.690499    ( 0.0000,  0.0000,  0.0000)
  46 Li     2.452330   10.467259   21.841504    ( 0.0000,  0.0000,  0.0000)
  47 Li    -0.058287   12.118395   22.076281    ( 0.0000,  0.0000,  0.0000)
  48 Li     4.935605    0.000000   10.000000    ( 0.0000,  0.0000,  0.0000)
  49 Li     7.403408    1.745000   10.000000    ( 0.0000,  0.0000,  0.0000)
  50 Li     7.403408    0.000000   12.467803    ( 0.0000,  0.0000,  0.0000)
  51 Li     4.935605    1.745000   12.467803    ( 0.0000,  0.0000,  0.0000)
  52 Li     9.871211    0.000000   14.935605    ( 0.0000,  0.0000,  0.0000)
  53 Li     7.403408    1.745000   14.935605    ( 0.0000,  0.0000,  0.0000)
  54 Li     7.394417   -0.001619   17.316049    ( 0.0000,  0.0000,  0.0000)
  55 Li     9.868100    1.744508   17.363116    ( 0.0000,  0.0000,  0.0000)
  56 Li     9.720968    0.001972   19.758093    ( 0.0000,  0.0000,  0.0000)
  57 Li     7.251157    1.743586   19.672146    ( 0.0000,  0.0000,  0.0000)
  58 Li     7.485401   -0.031273   22.004918    ( 0.0000,  0.0000,  0.0000)
  59 Li     4.964672    1.744808   22.148532    ( 0.0000,  0.0000,  0.0000)
  60 Li     4.935605    3.490000   10.000000    ( 0.0000,  0.0000,  0.0000)
  61 Li     7.403408    5.235000   10.000000    ( 0.0000,  0.0000,  0.0000)
  62 Li     7.403408    3.490000   12.467803    ( 0.0000,  0.0000,  0.0000)
  63 Li     4.935605    5.235000   12.467803    ( 0.0000,  0.0000,  0.0000)
  64 Li     9.871211    3.490000   14.935605    ( 0.0000,  0.0000,  0.0000)
  65 Li     7.403408    5.235000   14.935605    ( 0.0000,  0.0000,  0.0000)
  66 Li     7.388149    3.491124   17.317185    ( 0.0000,  0.0000,  0.0000)
  67 Li     9.867164    5.239542   17.369096    ( 0.0000,  0.0000,  0.0000)
  68 Li     9.725969    3.488043   19.748401    ( 0.0000,  0.0000,  0.0000)
  69 Li     7.255083    5.241639   19.669202    ( 0.0000,  0.0000,  0.0000)
  70 Li     7.507579    3.501895   22.000253    ( 0.0000,  0.0000,  0.0000)
  71 Li     4.950260    5.251659   22.175230    ( 0.0000,  0.0000,  0.0000)
  72 Li     4.935605    6.980000   10.000000    ( 0.0000,  0.0000,  0.0000)
  73 Li     7.403408    8.725000   10.000000    ( 0.0000,  0.0000,  0.0000)
  74 Li     7.403408    6.980000   12.467803    ( 0.0000,  0.0000,  0.0000)
  75 Li     4.935605    8.725000   12.467803    ( 0.0000,  0.0000,  0.0000)
  76 Li     9.871211    6.980000   14.935605    ( 0.0000,  0.0000,  0.0000)
  77 Li     7.403408    8.725000   14.935605    ( 0.0000,  0.0000,  0.0000)
  78 Li     7.389092    6.980208   17.310901    ( 0.0000,  0.0000,  0.0000)
  79 Li     9.866030    8.726142   17.372513    ( 0.0000,  0.0000,  0.0000)
  80 Li     9.712913    6.983149   19.773700    ( 0.0000,  0.0000,  0.0000)
  81 Li     7.253036    8.735575   19.652435    ( 0.0000,  0.0000,  0.0000)
  82 Li     7.458153    7.021906   22.008047    ( 0.0000,  0.0000,  0.0000)
  83 Li     4.897790    8.769103   22.228772    ( 0.0000,  0.0000,  0.0000)
  84 Li     4.935605   10.470000   10.000000    ( 0.0000,  0.0000,  0.0000)
  85 Li     7.403408   12.215000   10.000000    ( 0.0000,  0.0000,  0.0000)
  86 Li     7.403408   10.470000   12.467803    ( 0.0000,  0.0000,  0.0000)
  87 Li     4.935605   12.215000   12.467803    ( 0.0000,  0.0000,  0.0000)
  88 Li     9.871211   10.470000   14.935605    ( 0.0000,  0.0000,  0.0000)
  89 Li     7.403408   12.215000   14.935605    ( 0.0000,  0.0000,  0.0000)
  90 Li     7.380366   10.470269   17.306218    ( 0.0000,  0.0000,  0.0000)
  91 Li     9.867378   12.209809   17.370700    ( 0.0000,  0.0000,  0.0000)
  92 Li     9.717864   10.466842   19.772050    ( 0.0000,  0.0000,  0.0000)
  93 Li     7.258629   12.199165   19.661838    ( 0.0000,  0.0000,  0.0000)
  94 Li     7.476266   10.447429   22.008224    ( 0.0000,  0.0000,  0.0000)
  95 Li     4.929838   12.153627   22.208935    ( 0.0000,  0.0000,  0.0000)
  96 Li     9.871211    0.000000   10.000000    ( 0.0000,  0.0000,  0.0000)
  97 Li    12.339013    1.745000   10.000000    ( 0.0000,  0.0000,  0.0000)
  98 Li    12.339013    0.000000   12.467803    ( 0.0000,  0.0000,  0.0000)
  99 Li     9.871211    1.745000   12.467803    ( 0.0000,  0.0000,  0.0000)
 100 Li    14.806816    0.000000   14.935605    ( 0.0000,  0.0000,  0.0000)
 101 Li    12.339013    1.745000   14.935605    ( 0.0000,  0.0000,  0.0000)
 102 Li    12.337389   -0.000454   17.332446    ( 0.0000,  0.0000,  0.0000)
 103 Li    14.806934    1.745597   17.329981    ( 0.0000,  0.0000,  0.0000)
 104 Li    14.861198   -0.001024   19.666905    ( 0.0000,  0.0000,  0.0000)
 105 Li    12.283360    1.744379   19.668161    ( 0.0000,  0.0000,  0.0000)
 106 Li     9.871211    3.490000   10.000000    ( 0.0000,  0.0000,  0.0000)
 107 Li    12.339013    5.235000   10.000000    ( 0.0000,  0.0000,  0.0000)
 108 Li    12.339013    3.490000   12.467803    ( 0.0000,  0.0000,  0.0000)
 109 Li     9.871211    5.235000   12.467803    ( 0.0000,  0.0000,  0.0000)
 110 Li    14.806816    3.490000   14.935605    ( 0.0000,  0.0000,  0.0000)
 111 Li    12.339013    5.235000   14.935605    ( 0.0000,  0.0000,  0.0000)
 112 Li    12.337100    3.490557   17.332288    ( 0.0000,  0.0000,  0.0000)
 113 Li    14.808538    5.235710   17.330090    ( 0.0000,  0.0000,  0.0000)
 114 Li    14.858368    3.490476   19.666594    ( 0.0000,  0.0000,  0.0000)
 115 Li    12.282519    5.239090   19.668301    ( 0.0000,  0.0000,  0.0000)
 116 Li     9.871211    6.980000   10.000000    ( 0.0000,  0.0000,  0.0000)
 117 Li    12.339013    8.725000   10.000000    ( 0.0000,  0.0000,  0.0000)
 118 Li    12.339013    6.980000   12.467803    ( 0.0000,  0.0000,  0.0000)
 119 Li     9.871211    8.725000   12.467803    ( 0.0000,  0.0000,  0.0000)
 120 Li    14.806816    6.980000   14.935605    ( 0.0000,  0.0000,  0.0000)
 121 Li    12.339013    8.725000   14.935605    ( 0.0000,  0.0000,  0.0000)
 122 Li    12.338772    6.980465   17.331469    ( 0.0000,  0.0000,  0.0000)
 123 Li    14.802020    8.725717   17.325449    ( 0.0000,  0.0000,  0.0000)
 124 Li    14.871930    6.985246   19.666718    ( 0.0000,  0.0000,  0.0000)
 125 Li    12.282927    8.724905   19.667752    ( 0.0000,  0.0000,  0.0000)
 126 Li     9.871211   10.470000   10.000000    ( 0.0000,  0.0000,  0.0000)
 127 Li    12.339013   12.215000   10.000000    ( 0.0000,  0.0000,  0.0000)
 128 Li    12.339013   10.470000   12.467803    ( 0.0000,  0.0000,  0.0000)
 129 Li     9.871211   12.215000   12.467803    ( 0.0000,  0.0000,  0.0000)
 130 Li    14.806816   10.470000   14.935605    ( 0.0000,  0.0000,  0.0000)
 131 Li    12.339013   12.215000   14.935605    ( 0.0000,  0.0000,  0.0000)
 132 Li    12.339383   10.469427   17.331169    ( 0.0000,  0.0000,  0.0000)
 133 Li    14.806754   12.212980   17.329221    ( 0.0000,  0.0000,  0.0000)
 134 Li    14.871208   10.465304   19.665551    ( 0.0000,  0.0000,  0.0000)
 135 Li    12.282368   12.211625   19.668482    ( 0.0000,  0.0000,  0.0000)
 136 Li    14.806816    0.000000   10.000000    ( 0.0000,  0.0000,  0.0000)
 137 Li    17.274619    1.745000   10.000000    ( 0.0000,  0.0000,  0.0000)
 138 Li    17.274619    0.000000   12.467803    ( 0.0000,  0.0000,  0.0000)
 139 Li    14.806816    1.745000   12.467803    ( 0.0000,  0.0000,  0.0000)
 140 Li    19.742421    0.000000   14.935605    ( 0.0000,  0.0000,  0.0000)
 141 Li    17.274619    1.745000   14.935605    ( 0.0000,  0.0000,  0.0000)
 142 Li    17.272668   -0.008407   17.372660    ( 0.0000,  0.0000,  0.0000)
 143 Li    19.749550    1.741570   17.335886    ( 0.0000,  0.0000,  0.0000)
 144 Li    19.887951   -0.029911   19.701291    ( 0.0000,  0.0000,  0.0000)
 145 Li    17.419713    1.749310   19.745888    ( 0.0000,  0.0000,  0.0000)
 146 Li    14.806816    3.490000   10.000000    ( 0.0000,  0.0000,  0.0000)
 147 Li    17.274619    5.235000   10.000000    ( 0.0000,  0.0000,  0.0000)
 148 Li    17.274619    3.490000   12.467803    ( 0.0000,  0.0000,  0.0000)
 149 Li    14.806816    5.235000   12.467803    ( 0.0000,  0.0000,  0.0000)
 150 Li    19.742421    3.490000   14.935605    ( 0.0000,  0.0000,  0.0000)
 151 Li    17.274619    5.235000   14.935605    ( 0.0000,  0.0000,  0.0000)
 152 Li    17.275301    3.492916   17.363356    ( 0.0000,  0.0000,  0.0000)
 153 Li    19.747796    5.233832   17.323032    ( 0.0000,  0.0000,  0.0000)
 154 Li    19.898230    3.500162   19.695307    ( 0.0000,  0.0000,  0.0000)
 155 Li    17.424519    5.223028   19.764363    ( 0.0000,  0.0000,  0.0000)
 156 Li    14.806816    6.980000   10.000000    ( 0.0000,  0.0000,  0.0000)
 157 Li    17.274619    8.725000   10.000000    ( 0.0000,  0.0000,  0.0000)
 158 Li    17.274619    6.980000   12.467803    ( 0.0000,  0.0000,  0.0000)
 159 Li    14.806816    8.725000   12.467803    ( 0.0000,  0.0000,  0.0000)
 160 Li    19.742421    6.980000   14.935605    ( 0.0000,  0.0000,  0.0000)
 161 Li    17.274619    8.725000   14.935605    ( 0.0000,  0.0000,  0.0000)
 162 Li    17.280126    6.997763   17.394206    ( 0.0000,  0.0000,  0.0000)
 163 Li    19.770635    8.713393   17.298082    ( 0.0000,  0.0000,  0.0000)
 164 Li    19.888926    7.004058   19.681373    ( 0.0000,  0.0000,  0.0000)
 165 Li    17.456206    8.730500   19.854718    ( 0.0000,  0.0000,  0.0000)
 166 Li    14.806816   10.470000   10.000000    ( 0.0000,  0.0000,  0.0000)
 167 Li    17.274619   12.215000   10.000000    ( 0.0000,  0.0000,  0.0000)
 168 Li    17.274619   10.470000   12.467803    ( 0.0000,  0.0000,  0.0000)
 169 Li    14.806816   12.215000   12.467803    ( 0.0000,  0.0000,  0.0000)
 170 Li    19.742421   10.470000   14.935605    ( 0.0000,  0.0000,  0.0000)
 171 Li    17.274619   12.215000   14.935605    ( 0.0000,  0.0000,  0.0000)
 172 Li    17.288501   10.457709   17.397360    ( 0.0000,  0.0000,  0.0000)
 173 Li    19.757248   12.231219   17.304394    ( 0.0000,  0.0000,  0.0000)
 174 Li    19.893206   10.465624   19.640100    ( 0.0000,  0.0000,  0.0000)
 175 Li    17.431852   12.217195   19.794790    ( 0.0000,  0.0000,  0.0000)
 176 Li     2.463815    9.305441   24.242172    ( 0.0000,  0.0000,  0.0000)

Unit cell:
           periodic     x           y           z      points  spacing
  1. axis:    yes   19.742421    0.000000    0.000000   100     0.1974
  2. axis:    yes    0.000000   13.960000    0.000000    68     0.2053
  3. axis:    no     0.000000    0.000000   32.339013   160     0.2021

  Lengths:  19.742421  13.960000  32.339013
  Angles:   90.000000  90.000000  90.000000

Effective grid spacing dv^(1/3) = 0.2016

     iter     time        total  log10-change:
                         energy   eigst   dens
iter:   1 06:31:16  -310.482003        c
iter:   2 06:32:03  -310.481965        c -3.80
iter:   3 06:32:51  -310.481912c       c -4.05c

Converged after 3 iterations.

Dipole moment: (-39.344673, -17.073183, 0.762242) |e|*Ang

Energy contributions relative to reference atoms: (reference = -35893.444183)

Kinetic:       +329.387640
Potential:     -280.068588
External:        +0.000000
XC:            -354.659526
Entropy (-ST):   -5.748007
Local:           -2.267435
SIC:             +0.000000
--------------------------
Free energy:   -313.355916
Extrapolated:  -310.481912

Showing all kpts
 Kpt  Band  Eigenvalues  Occupancy
  0    86     -2.88835    1.13944
  0    87     -2.87296    1.08881
  0    88     -2.84141    0.98387
  0    89     -2.83281    0.95524

  1    86     -2.88826    1.13916
  1    87     -2.87290    1.08860
  1    88     -2.84272    0.98824
  1    89     -2.83097    0.94913


Fermi level: -2.84625

Gap: 0.030 eV
Transition (v -> c):
  (s=0, k=1, n=87, [0.25, 0.25, 0.00]) -> (s=0, k=1, n=88, [0.25, 0.25, 0.00])
No difference between direct/indirect transitions

Forces in eV/Ang:
  0 Li   -0.00103   -0.00155    0.12764
  1 Li   -0.00445   -0.00077    0.12522
  2 Li    0.00115   -0.00004   -0.05901
  3 Li   -0.00082    0.00056   -0.06079
  4 Li   -0.00310    0.01067   -0.05378
  5 Li    0.00356    0.01034   -0.06541
  6 Li   -0.00266   -0.00267    0.00004
  7 Li    0.00006   -0.00012   -0.00329
  8 Li    0.00976    0.00304    0.00288
  9 Li   -0.01537    0.00468    0.00992
 10 Li    0.00633    0.02091   -0.03644
 11 Li    0.00684   -0.00407   -0.01593
 12 Li   -0.00087    0.00121    0.12693
 13 Li   -0.00390    0.00136    0.12609
 14 Li    0.00109   -0.00062   -0.06325
 15 Li   -0.00048    0.00001   -0.05676
 16 Li   -0.00635   -0.00255   -0.03287
 17 Li    0.00405   -0.02321   -0.07814
 18 Li   -0.00398    0.00433    0.00416
 19 Li   -0.00086   -0.00102   -0.00414
 20 Li    0.01341    0.00003    0.00276
 21 Li   -0.01597   -0.01793    0.00081
 22 Li    0.00744   -0.00373   -0.03429
 23 Li    0.00337   -0.00450   -0.01992
 24 Li   -0.00143    0.00028    0.12585
 25 Li   -0.00347   -0.00019    0.12292
 26 Li    0.00123    0.00110   -0.05382
 27 Li   -0.00002    0.00004   -0.05236
 28 Li   -0.00178   -0.01215   -0.05982
 29 Li    0.00530   -0.00376   -0.04737
 30 Li   -0.00168   -0.00225   -0.00112
 31 Li    0.01097    0.00248   -0.00078
 32 Li    0.02074   -0.00985   -0.00816
 33 Li   -0.01495    0.00319   -0.01243
 34 Li    0.00054    0.05494    0.04948
 35 Li    0.02190    0.00032   -0.02096
 36 Li   -0.00158    0.00009    0.12505
 37 Li   -0.00385   -0.00035    0.12481
 38 Li    0.00107   -0.00064   -0.05426
 39 Li   -0.00024   -0.00047   -0.05378
 40 Li   -0.00218    0.00452   -0.05138
 41 Li    0.00493    0.01603   -0.06578
 42 Li   -0.00130   -0.00027    0.00985
 43 Li    0.00537   -0.00061   -0.00489
 44 Li    0.01807    0.00472   -0.00974
 45 Li   -0.01537    0.01777   -0.02091
 46 Li   -0.00732    0.05948   -0.14025
 47 Li    0.01019   -0.01379   -0.00789
 48 Li    0.00309   -0.00219    0.12856
 49 Li    0.00217   -0.00079    0.12675
 50 Li    0.00016    0.00021   -0.05812
 51 Li   -0.00044    0.00064   -0.06401
 52 Li    0.00449   -0.00247   -0.03839
 53 Li    0.00122   -0.00099   -0.07251
 54 Li   -0.00198    0.00064    0.00939
 55 Li    0.00013   -0.00085   -0.00270
 56 Li    0.00399   -0.00069   -0.00660
 57 Li    0.01263    0.00049    0.00126
 58 Li   -0.00486    0.00253   -0.01715
 59 Li   -0.00948   -0.00181   -0.02567
 60 Li    0.00290    0.00165    0.12773
 61 Li    0.00043    0.00127    0.12576
 62 Li   -0.00020   -0.00022   -0.05659
 63 Li   -0.00111   -0.00066   -0.06243
 64 Li    0.00327    0.00199   -0.03782
 65 Li    0.00228   -0.00058   -0.07607
 66 Li    0.00093   -0.00163    0.00835
 67 Li    0.00013    0.00134   -0.00462
 68 Li    0.00224    0.00030   -0.00511
 69 Li    0.01139   -0.00145    0.00155
 70 Li   -0.00722   -0.00244   -0.01262
 71 Li   -0.00393   -0.00451   -0.03130
 72 Li    0.00329    0.00088    0.12675
 73 Li   -0.00079   -0.00002    0.12545
 74 Li    0.00033    0.00033   -0.05751
 75 Li   -0.00186   -0.00003   -0.05726
 76 Li    0.00381    0.00175   -0.03736
 77 Li    0.00564   -0.00180   -0.08299
 78 Li    0.00053    0.00059    0.00959
 79 Li    0.00008    0.00050   -0.00481
 80 Li    0.00939   -0.00102   -0.01044
 81 Li    0.01382   -0.00480    0.00422
 82 Li    0.00211   -0.00596   -0.01891
 83 Li   -0.02401   -0.00062   -0.03725
 84 Li    0.00350   -0.00034    0.12557
 85 Li   -0.00007   -0.00053    0.12518
 86 Li    0.00051   -0.00047   -0.05636
 87 Li   -0.00145    0.00033   -0.05934
 88 Li    0.00289   -0.00114   -0.03692
 89 Li    0.00344    0.00303   -0.08079
 90 Li    0.00047   -0.00016    0.00577
 91 Li    0.00030   -0.00093   -0.00491
 92 Li    0.01044    0.00158   -0.01047
 93 Li    0.01774    0.00455    0.00119
 94 Li    0.00633    0.00423   -0.01513
 95 Li   -0.01361   -0.01811   -0.01596
 96 Li    0.00021    0.00014    0.12397
 97 Li    0.00071    0.00047    0.12326
 98 Li   -0.00002    0.00037   -0.05959
 99 Li    0.00138    0.00010   -0.05786
100 Li   -0.00420    0.00051   -0.05537
101 Li    0.00406   -0.00001   -0.05505
102 Li   -0.00209   -0.00107    0.02382
[...]
139 Li   -0.00000   -0.00006   -0.06048
140 Li   -0.00388    0.01375   -0.08448
141 Li   -0.00233   -0.00435   -0.03222
142 Li    0.00191   -0.00218   -0.00101
143 Li    0.00211   -0.00014    0.00477
144 Li   -0.00900    0.00031    0.00203
145 Li   -0.00293   -0.00096   -0.00525
146 Li   -0.00196   -0.00047    0.12555
147 Li    0.00196    0.00134    0.12281
148 Li   -0.00098   -0.00017   -0.05586
149 Li    0.00025   -0.00022   -0.06017
150 Li   -0.00003   -0.00474   -0.06614
151 Li   -0.00368    0.01057   -0.02831
152 Li   -0.00147   -0.00031   -0.00189
153 Li    0.00190   -0.00152    0.00322
154 Li   -0.00776    0.00054   -0.00211
155 Li   -0.00402    0.00232   -0.00534
156 Li    0.00032    0.00022    0.12459
157 Li    0.00206    0.00003    0.12184
158 Li   -0.00176   -0.00018   -0.05854
159 Li   -0.00011    0.00021   -0.06070
160 Li   -0.00610   -0.01235   -0.08339
161 Li   -0.00706    0.00091   -0.03314
162 Li   -0.00002    0.00112   -0.00478
163 Li   -0.00646    0.00228    0.00435
164 Li   -0.01364   -0.00573   -0.00903
165 Li   -0.01412   -0.00173   -0.01974
166 Li    0.00056   -0.00033    0.12479
167 Li    0.00255   -0.00085    0.12238
168 Li   -0.00149   -0.00010   -0.05791
169 Li   -0.00002   -0.00003   -0.06030
170 Li   -0.00541    0.00369   -0.07361
171 Li   -0.00547   -0.00753   -0.03059
172 Li   -0.00229    0.00108   -0.00605
173 Li   -0.00335   -0.00087    0.00171
174 Li   -0.00917    0.00111   -0.01024
175 Li   -0.01078    0.00131   -0.01025
176 Li   -0.00578   -0.06789    0.04058

System changes: positions 

Initializing position-dependent things.

Density initialized from wave functions
          .------------------------------------------------.  
         /|                                                |  
        / |                                                |  
       /  |                                                |  
      /   |                                                |  
     /    |                                                |  
    /     |                                                |  
   /      |                                                |  
  /       |                                                |  
 *        |                                                |  
 |        |                                                |  
 |        |                                                |  
 |        |                                                |  
 |        |  Li Li           Li                            |  
 |        |          Li                                   Li  
 |        |   Li      Li  Li                               |  
 |     Li Li       Li                          Li          |  
 |        | Li Li       Li Li          Li           Li     |  
 |      Li|      Li Li          Li           Li      Li    |  
 |       Li  Li          Li Li       Li  Li       Li Li    |  
 |    Li Li   Li  Li LLi      Li Li       Li  Li           |  
 |        |Li Li      Li  Li       Li Li        Li Li      |  
 |  Li Li |    Li  Li      Li  Li       Li Li              |  
 |      Li| Li Li       Li Li       Li Li    Li Li  Li     |  
 |  Li  Li|      Li Li       Li LLi      Li  Li            |  
 |       Li  Li       Li Li       Li Li       Li  Li       |  
 |Li Li  Li   Li  Li Li    Li Li Li    Li Li  Li           |  
 |        Li  Li       Li Li       Li Li       Li  Li      |  
 | Li  Li |    Li  Li       Li Li       Li Li              |  
 |      Li| Li Li    Li Li Li    Li Li Li    Li Li  Li     |  
 |  Li  Li|      Li Li       Li Li       Li  Li            |  
 Li      Li  Li       Li Li       Li LLi      Li  Li       |  
 |Li Li   |   Li  Li       Li Li       Li Li               |  
 |        Li           Li          Li          Li          |  
 | Li  Li |    Li  Li       Li  Li      Li  Li             |  
 |        |                                                |  
 |      Li|          Li          Li          Li            |  
 Li       |  Li          Li           Li                   |  
 |        |                                                |  
 |        |                                                |  
 |        .------------------------------------------------.  
 |       /                                                /   
 |      /                                                /    
 |     /                                                /     
 |    /                                                /      
 |   /                                                /       
 |  /                                                /        
 | /                                                /         
 |/                                                /          
 *------------------------------------------------*           

Atomic positions and initial magnetic moments

Positions:
   0 Li     0.000000    0.000000   10.000000    ( 0.0000,  0.0000,  0.0000)
   1 Li     2.467803    1.745000   10.000000    ( 0.0000,  0.0000,  0.0000)
   2 Li     2.467803    0.000000   12.467803    ( 0.0000,  0.0000,  0.0000)
   3 Li     0.000000    1.745000   12.467803    ( 0.0000,  0.0000,  0.0000)
   4 Li     4.935605    0.000000   14.935605    ( 0.0000,  0.0000,  0.0000)
   5 Li     2.467803    1.745000   14.935605    ( 0.0000,  0.0000,  0.0000)
   6 Li     2.469502    0.024484   17.339626    ( 0.0000,  0.0000,  0.0000)
   7 Li     4.933403    1.737913   17.394520    ( 0.0000,  0.0000,  0.0000)
   8 Li     4.902051   -0.031695   19.845600    ( 0.0000,  0.0000,  0.0000)
   9 Li     2.518966    1.723702   19.797357    ( 0.0000,  0.0000,  0.0000)
  10 Li     2.418344   -0.059638   22.115659    ( 0.0000,  0.0000,  0.0000)
  11 Li    -0.124528    1.731620   22.014059    ( 0.0000,  0.0000,  0.0000)
  12 Li     0.000000    3.490000   10.000000    ( 0.0000,  0.0000,  0.0000)
  13 Li     2.467803    5.235000   10.000000    ( 0.0000,  0.0000,  0.0000)
  14 Li     2.467803    3.490000   12.467803    ( 0.0000,  0.0000,  0.0000)
  15 Li     0.000000    5.235000   12.467803    ( 0.0000,  0.0000,  0.0000)
  16 Li     4.935605    3.490000   14.935605    ( 0.0000,  0.0000,  0.0000)
  17 Li     2.467803    5.235000   14.935605    ( 0.0000,  0.0000,  0.0000)
  18 Li     2.472609    3.487150   17.371117    ( 0.0000,  0.0000,  0.0000)
  19 Li     4.935544    5.238562   17.382836    ( 0.0000,  0.0000,  0.0000)
  20 Li     4.882397    3.501587   19.826965    ( 0.0000,  0.0000,  0.0000)
  21 Li     2.519869    5.262806   19.777072    ( 0.0000,  0.0000,  0.0000)
  22 Li     2.406836    3.500470   22.104543    ( 0.0000,  0.0000,  0.0000)
  23 Li    -0.096864    5.291120   22.036793    ( 0.0000,  0.0000,  0.0000)
  24 Li     0.000000    6.980000   10.000000    ( 0.0000,  0.0000,  0.0000)
  25 Li     2.467803    8.725000   10.000000    ( 0.0000,  0.0000,  0.0000)
  26 Li     2.467803    6.980000   12.467803    ( 0.0000,  0.0000,  0.0000)
  27 Li     0.000000    8.725000   12.467803    ( 0.0000,  0.0000,  0.0000)
  28 Li     4.935605    6.980000   14.935605    ( 0.0000,  0.0000,  0.0000)
  29 Li     2.467803    8.725000   14.935605    ( 0.0000,  0.0000,  0.0000)
  30 Li     2.469683    6.939476   17.319198    ( 0.0000,  0.0000,  0.0000)
  31 Li     4.927543    8.712513   17.353035    ( 0.0000,  0.0000,  0.0000)
  32 Li     4.907643    7.004739   19.827913    ( 0.0000,  0.0000,  0.0000)
  33 Li     2.527785    8.689604   19.625070    ( 0.0000,  0.0000,  0.0000)
  34 Li     2.446080    7.048978   22.066179    ( 0.0000,  0.0000,  0.0000)
  35 Li     0.032411    8.777171   22.122601    ( 0.0000,  0.0000,  0.0000)
  36 Li     0.000000   10.470000   10.000000    ( 0.0000,  0.0000,  0.0000)
  37 Li     2.467803   12.215000   10.000000    ( 0.0000,  0.0000,  0.0000)
  38 Li     2.467803   10.470000   12.467803    ( 0.0000,  0.0000,  0.0000)
  39 Li     0.000000   12.215000   12.467803    ( 0.0000,  0.0000,  0.0000)
  40 Li     4.935605   10.470000   14.935605    ( 0.0000,  0.0000,  0.0000)
  41 Li     2.467803   12.215000   14.935605    ( 0.0000,  0.0000,  0.0000)
  42 Li     2.473169   10.488732   17.328688    ( 0.0000,  0.0000,  0.0000)
  43 Li     4.933064   12.231153   17.362385    ( 0.0000,  0.0000,  0.0000)
  44 Li     4.894612   10.464903   19.781048    ( 0.0000,  0.0000,  0.0000)
  45 Li     2.524998   12.245711   19.685736    ( 0.0000,  0.0000,  0.0000)
  46 Li     2.450990   10.477573   21.815147    ( 0.0000,  0.0000,  0.0000)
  47 Li    -0.056035   12.115540   22.075368    ( 0.0000,  0.0000,  0.0000)
  48 Li     4.935605    0.000000   10.000000    ( 0.0000,  0.0000,  0.0000)
  49 Li     7.403408    1.745000   10.000000    ( 0.0000,  0.0000,  0.0000)
  50 Li     7.403408    0.000000   12.467803    ( 0.0000,  0.0000,  0.0000)
  51 Li     4.935605    1.745000   12.467803    ( 0.0000,  0.0000,  0.0000)
  52 Li     9.871211    0.000000   14.935605    ( 0.0000,  0.0000,  0.0000)
  53 Li     7.403408    1.745000   14.935605    ( 0.0000,  0.0000,  0.0000)
  54 Li     7.394100   -0.001496   17.317784    ( 0.0000,  0.0000,  0.0000)
  55 Li     9.868131    1.744348   17.362729    ( 0.0000,  0.0000,  0.0000)
  56 Li     9.721639    0.001835   19.757139    ( 0.0000,  0.0000,  0.0000)
  57 Li     7.253401    1.743650   19.672482    ( 0.0000,  0.0000,  0.0000)
  58 Li     7.484254   -0.031016   22.001993    ( 0.0000,  0.0000,  0.0000)
  59 Li     4.962930    1.744493   22.144098    ( 0.0000,  0.0000,  0.0000)
  60 Li     4.935605    3.490000   10.000000    ( 0.0000,  0.0000,  0.0000)
  61 Li     7.403408    5.235000   10.000000    ( 0.0000,  0.0000,  0.0000)
  62 Li     7.403408    3.490000   12.467803    ( 0.0000,  0.0000,  0.0000)
  63 Li     4.935605    5.235000   12.467803    ( 0.0000,  0.0000,  0.0000)
  64 Li     9.871211    3.490000   14.935605    ( 0.0000,  0.0000,  0.0000)
  65 Li     7.403408    5.235000   14.935605    ( 0.0000,  0.0000,  0.0000)
  66 Li     7.388264    3.490824   17.318747    ( 0.0000,  0.0000,  0.0000)
  67 Li     9.867200    5.239749   17.368314    ( 0.0000,  0.0000,  0.0000)
  68 Li     9.726389    3.488112   19.747578    ( 0.0000,  0.0000,  0.0000)
  69 Li     7.257090    5.241350   19.669613    ( 0.0000,  0.0000,  0.0000)
  70 Li     7.506324    3.501361   21.998078    ( 0.0000,  0.0000,  0.0000)
  71 Li     4.949560    5.250784   22.169578    ( 0.0000,  0.0000,  0.0000)
  72 Li     4.935605    6.980000   10.000000    ( 0.0000,  0.0000,  0.0000)
  73 Li     7.403408    8.725000   10.000000    ( 0.0000,  0.0000,  0.0000)
  74 Li     7.403408    6.980000   12.467803    ( 0.0000,  0.0000,  0.0000)
  75 Li     4.935605    8.725000   12.467803    ( 0.0000,  0.0000,  0.0000)
  76 Li     9.871211    6.980000   14.935605    ( 0.0000,  0.0000,  0.0000)
  77 Li     7.403408    8.725000   14.935605    ( 0.0000,  0.0000,  0.0000)
  78 Li     7.389258    6.980309   17.312719    ( 0.0000,  0.0000,  0.0000)
  79 Li     9.866069    8.726246   17.371702    ( 0.0000,  0.0000,  0.0000)
  80 Li     9.714597    6.982941   19.771939    ( 0.0000,  0.0000,  0.0000)
  81 Li     7.255554    8.734872   19.653307    ( 0.0000,  0.0000,  0.0000)
  82 Li     7.458449    7.020947   22.004779    ( 0.0000,  0.0000,  0.0000)
  83 Li     4.893455    8.769673   22.222313    ( 0.0000,  0.0000,  0.0000)
  84 Li     4.935605   10.470000   10.000000    ( 0.0000,  0.0000,  0.0000)
  85 Li     7.403408   12.215000   10.000000    ( 0.0000,  0.0000,  0.0000)
  86 Li     7.403408   10.470000   12.467803    ( 0.0000,  0.0000,  0.0000)
  87 Li     4.935605   12.215000   12.467803    ( 0.0000,  0.0000,  0.0000)
  88 Li     9.871211   10.470000   14.935605    ( 0.0000,  0.0000,  0.0000)
  89 Li     7.403408   12.215000   14.935605    ( 0.0000,  0.0000,  0.0000)
  90 Li     7.380415   10.470243   17.307297    ( 0.0000,  0.0000,  0.0000)
  91 Li     9.867444   12.209669   17.369884    ( 0.0000,  0.0000,  0.0000)
  92 Li     9.719804   10.467148   19.770264    ( 0.0000,  0.0000,  0.0000)
  93 Li     7.261819   12.199865   19.662087    ( 0.0000,  0.0000,  0.0000)
  94 Li     7.477596   10.448337   22.005621    ( 0.0000,  0.0000,  0.0000)
  95 Li     4.927186   12.149874   22.206485    ( 0.0000,  0.0000,  0.0000)
  96 Li     9.871211    0.000000   10.000000    ( 0.0000,  0.0000,  0.0000)
  97 Li    12.339013    1.745000   10.000000    ( 0.0000,  0.0000,  0.0000)
  98 Li    12.339013    0.000000   12.467803    ( 0.0000,  0.0000,  0.0000)
  99 Li     9.871211    1.745000   12.467803    ( 0.0000,  0.0000,  0.0000)
 100 Li    14.806816    0.000000   14.935605    ( 0.0000,  0.0000,  0.0000)
 101 Li    12.339013    1.745000   14.935605    ( 0.0000,  0.0000,  0.0000)
 102 Li    12.337039   -0.000637   17.336675    ( 0.0000,  0.0000,  0.0000)
 103 Li    14.807510    1.745437   17.334289    ( 0.0000,  0.0000,  0.0000)
 104 Li    14.860536   -0.001143   19.665189    ( 0.0000,  0.0000,  0.0000)
 105 Li    12.284201    1.744278   19.666576    ( 0.0000,  0.0000,  0.0000)
 106 Li     9.871211    3.490000   10.000000    ( 0.0000,  0.0000,  0.0000)
 107 Li    12.339013    5.235000   10.000000    ( 0.0000,  0.0000,  0.0000)
 108 Li    12.339013    3.490000   12.467803    ( 0.0000,  0.0000,  0.0000)
 109 Li     9.871211    5.235000   12.467803    ( 0.0000,  0.0000,  0.0000)
 110 Li    14.806816    3.490000   14.935605    ( 0.0000,  0.0000,  0.0000)
 111 Li    12.339013    5.235000   14.935605    ( 0.0000,  0.0000,  0.0000)
 112 Li    12.336718    3.490716   17.336565    ( 0.0000,  0.0000,  0.0000)
 113 Li    14.809110    5.236213   17.334441    ( 0.0000,  0.0000,  0.0000)
 114 Li    14.857449    3.490500   19.664836    ( 0.0000,  0.0000,  0.0000)
 115 Li    12.283648    5.239262   19.666820    ( 0.0000,  0.0000,  0.0000)
 116 Li     9.871211    6.980000   10.000000    ( 0.0000,  0.0000,  0.0000)
 117 Li    12.339013    8.725000   10.000000    ( 0.0000,  0.0000,  0.0000)
 118 Li    12.339013    6.980000   12.467803    ( 0.0000,  0.0000,  0.0000)
 119 Li     9.871211    8.725000   12.467803    ( 0.0000,  0.0000,  0.0000)
 120 Li    14.806816    6.980000   14.935605    ( 0.0000,  0.0000,  0.0000)
 121 Li    12.339013    8.725000   14.935605    ( 0.0000,  0.0000,  0.0000)
 122 Li    12.338258    6.980438   17.335587    ( 0.0000,  0.0000,  0.0000)
 123 Li    14.802484    8.725943   17.330016    ( 0.0000,  0.0000,  0.0000)
 124 Li    14.870698    6.985215   19.665160    ( 0.0000,  0.0000,  0.0000)
 125 Li    12.284201    8.724826   19.666304    ( 0.0000,  0.0000,  0.0000)
 126 Li     9.871211   10.470000   10.000000    ( 0.0000,  0.0000,  0.0000)
 127 Li    12.339013   12.215000   10.000000    ( 0.0000,  0.0000,  0.0000)
 128 Li    12.339013   10.470000   12.467803    ( 0.0000,  0.0000,  0.0000)
 129 Li     9.871211   12.215000   12.467803    ( 0.0000,  0.0000,  0.0000)
 130 Li    14.806816   10.470000   14.935605    ( 0.0000,  0.0000,  0.0000)
 131 Li    12.339013   12.215000   14.935605    ( 0.0000,  0.0000,  0.0000)
 132 Li    12.338786   10.469452   17.335441    ( 0.0000,  0.0000,  0.0000)
 133 Li    14.807281   12.212434   17.333555    ( 0.0000,  0.0000,  0.0000)
 134 Li    14.869779   10.465447   19.664036    ( 0.0000,  0.0000,  0.0000)
 135 Li    12.283639   12.211627   19.667003    ( 0.0000,  0.0000,  0.0000)
 136 Li    14.806816    0.000000   10.000000    ( 0.0000,  0.0000,  0.0000)
 137 Li    17.274619    1.745000   10.000000    ( 0.0000,  0.0000,  0.0000)
 138 Li    17.274619    0.000000   12.467803    ( 0.0000,  0.0000,  0.0000)
 139 Li    14.806816    1.745000   12.467803    ( 0.0000,  0.0000,  0.0000)
 140 Li    19.742421    0.000000   14.935605    ( 0.0000,  0.0000,  0.0000)
 141 Li    17.274619    1.745000   14.935605    ( 0.0000,  0.0000,  0.0000)
 142 Li    17.273038   -0.008975   17.372773    ( 0.0000,  0.0000,  0.0000)
 143 Li    19.749933    1.741539   17.337053    ( 0.0000,  0.0000,  0.0000)
 144 Li    19.886264   -0.029818   19.702119    ( 0.0000,  0.0000,  0.0000)
 145 Li    17.419372    1.749140   19.745049    ( 0.0000,  0.0000,  0.0000)
 146 Li    14.806816    3.490000   10.000000    ( 0.0000,  0.0000,  0.0000)
 147 Li    17.274619    5.235000   10.000000    ( 0.0000,  0.0000,  0.0000)
 148 Li    17.274619    3.490000   12.467803    ( 0.0000,  0.0000,  0.0000)
 149 Li    14.806816    5.235000   12.467803    ( 0.0000,  0.0000,  0.0000)
 150 Li    19.742421    3.490000   14.935605    ( 0.0000,  0.0000,  0.0000)
 151 Li    17.274619    5.235000   14.935605    ( 0.0000,  0.0000,  0.0000)
 152 Li    17.274961    3.492809   17.363111    ( 0.0000,  0.0000,  0.0000)
 153 Li    19.748222    5.233644   17.324098    ( 0.0000,  0.0000,  0.0000)
 154 Li    19.897086    3.500386   19.695330    ( 0.0000,  0.0000,  0.0000)
 155 Li    17.423987    5.223520   19.763449    ( 0.0000,  0.0000,  0.0000)
 156 Li    14.806816    6.980000   10.000000    ( 0.0000,  0.0000,  0.0000)
 157 Li    17.274619    8.725000   10.000000    ( 0.0000,  0.0000,  0.0000)
 158 Li    17.274619    6.980000   12.467803    ( 0.0000,  0.0000,  0.0000)
 159 Li    14.806816    8.725000   12.467803    ( 0.0000,  0.0000,  0.0000)
 160 Li    19.742421    6.980000   14.935605    ( 0.0000,  0.0000,  0.0000)
 161 Li    17.274619    8.725000   14.935605    ( 0.0000,  0.0000,  0.0000)
 162 Li    17.280048    6.998091   17.393451    ( 0.0000,  0.0000,  0.0000)
 163 Li    19.769294    8.713751   17.299215    ( 0.0000,  0.0000,  0.0000)
 164 Li    19.886017    7.003050   19.680016    ( 0.0000,  0.0000,  0.0000)
 165 Li    17.453294    8.730164   19.850808    ( 0.0000,  0.0000,  0.0000)
 166 Li    14.806816   10.470000   10.000000    ( 0.0000,  0.0000,  0.0000)
 167 Li    17.274619   12.215000   10.000000    ( 0.0000,  0.0000,  0.0000)
 168 Li    17.274619   10.470000   12.467803    ( 0.0000,  0.0000,  0.0000)
 169 Li    14.806816   12.215000   12.467803    ( 0.0000,  0.0000,  0.0000)
 170 Li    19.742421   10.470000   14.935605    ( 0.0000,  0.0000,  0.0000)
 171 Li    17.274619   12.215000   14.935605    ( 0.0000,  0.0000,  0.0000)
 172 Li    17.288125   10.457960   17.396386    ( 0.0000,  0.0000,  0.0000)
 173 Li    19.756644   12.231123   17.304877    ( 0.0000,  0.0000,  0.0000)
 174 Li    19.891892   10.465803   19.638316    ( 0.0000,  0.0000,  0.0000)
 175 Li    17.429855   12.217399   19.793179    ( 0.0000,  0.0000,  0.0000)
 176 Li     2.462769    9.298449   24.253912    ( 0.0000,  0.0000,  0.0000)

Unit cell:
           periodic     x           y           z      points  spacing
  1. axis:    yes   19.742421    0.000000    0.000000   100     0.1974
  2. axis:    yes    0.000000   13.960000    0.000000    68     0.2053
  3. axis:    no     0.000000    0.000000   32.339013   160     0.2021

  Lengths:  19.742421  13.960000  32.339013
  Angles:   90.000000  90.000000  90.000000

Effective grid spacing dv^(1/3) = 0.2016

     iter     time        total  log10-change:
                         energy   eigst   dens
iter:   1 08:51:09  -310.491256        c
iter:   2 08:52:16  -310.491288        c -3.45
iter:   3 08:53:15  -310.491158c       c -3.59
iter:   4 08:54:03  -310.491145c       c -3.71
iter:   5 08:55:04  -310.491144c       c -4.01c

Converged after 5 iterations.

Dipole moment: (-39.419701, -17.130014, 0.771072) |e|*Ang

Energy contributions relative to reference atoms: (reference = -35893.444183)

Kinetic:       +329.495831
Potential:     -280.128919
External:        +0.000000
XC:            -354.717159
Entropy (-ST):   -5.747389
Local:           -2.267202
SIC:             +0.000000
--------------------------
Free energy:   -313.364838
Extrapolated:  -310.491144

Showing all kpts
 Kpt  Band  Eigenvalues  Occupancy
  0    86     -2.88708    1.14006
  0    87     -2.87177    1.08973
  0    88     -2.84015    0.98457
  0    89     -2.83143    0.95551

  1    86     -2.88689    1.13946
  1    87     -2.87172    1.08954
  1    88     -2.84147    0.98897
  1    89     -2.82990    0.95043


Fermi level: -2.84478

Gap: 0.030 eV
Transition (v -> c):
  (s=0, k=1, n=87, [0.25, 0.25, 0.00]) -> (s=0, k=1, n=88, [0.25, 0.25, 0.00])
No difference between direct/indirect transitions
