
  ___ ___ ___ _ _ _  
 |   |   |_  | | | | 
 | | | | | . | | | | 
 |__ |  _|___|_____|  25.7.0
 |___|_|             

User:   tew@Mathuss-MacBook-Air-357.local
Date:   Wed Nov 26 03:04:02 2025
Arch:   arm64
Pid:    56558
CWD:    /Users/tew/Documents/Project/GitHub/chem-com/step
Python: 3.13.5
gpaw:   /Users/tew/Documents/Project/GitHub/chem-com/.venv/lib/python3.13/site-packages/gpaw
_gpaw:  /Users/tew/Documents/Project/GitHub/chem-com/.venv/lib/python3.13/site-packages/
        _gpaw.cpython-313-darwin.so
ase:    /Users/tew/Documents/Project/GitHub/chem-com/.venv/lib/python3.13/site-packages/ase (version 3.26.0)
numpy:  /Users/tew/Documents/Project/GitHub/chem-com/.venv/lib/python3.13/site-packages/numpy (version 2.3.5)
scipy:  /Users/tew/Documents/Project/GitHub/chem-com/.venv/lib/python3.13/site-packages/scipy (version 1.16.3)
libxc:  2.x.y
units:  Angstrom and eV
cores: 1
OpenMP: False
OMP_NUM_THREADS: 1

Input parameters:
  basis: dzp
  convergence: {density: 0.0001,
                eigenstates: 5e-06}
  kpts: [2 2 1]
  mode: {interpolation: 3,
         name: lcao}
  occupations: {fixmagmom: False,
                name: fermi-dirac,
                width: 0.15}
  xc: PBE

System changes: positions, numbers, cell, pbc, initial_charges, initial_magmoms 

Initialize ...

species:
  Li:
    name: Lithium
    id: 830b4218f175192f93f959cfc0aad614
    Z: 3.0
    valence: 1
    core: 2
    charge: 0.0
    file: /Users/tew/Documents/Project/GitHub/chem-com/.venv/lib/python3.13/site-packages/gpaw_data/setups/Li.PBE.gz
    compensation charges: {type: gauss,
                           rc: 0.33,
                           lmax: 2}
    cutoffs: {filter: 1.91,
              core: 2.55}
    projectors:
      #              energy  rcut
      - 2s(1.00)    -2.874   1.058
      - 2p(0.00)    -1.090   1.058
      -  s          24.337   1.058
  
    # LCAO basis set for Li:
    #   Name: dzp
    #   File: /Users/tew/Documents/Project/GitHub/chem-com/.venv/lib/python3.13/site-packages/gpaw_data/setups/Li.dzp.basis.gz
    #   Number of radial functions: 3
    #   Number of spherical harmonics: 5
    #     l=0, rc=10.8906 Bohr: 2s-sz confined orbital
    #     l=0, rc=6.6719 Bohr: 2s-dz split-valence wave
    #     l=1, rc=10.8906 Bohr: p-type Gaussian polarization
    #   Number of RI-basis functions 0

Reference energy: -35893.444183  # eV

Spin-paired calculation

Convergence criteria:
 Maximum [total energy] change in last 3 cyles: 0.0005 eV / valence electron
 Maximum integral of absolute [dens]ity change: 0.0001 electrons / valence electron
 Maximum integral of absolute [eigenst]ate change: 5e-06 eV^2 / valence electron
 Maximum number of scf [iter]ations: 333
 (Square brackets indicate name in SCF output, whereas a 'c' in
 the SCF output indicates the quantity has converged.)

Symmetries present (total): 1

  ( 1  0  0)
  ( 0  1  0)
  ( 0  0  1)

4 k-points: 2 x 2 x 1 Monkhorst-Pack grid
2 k-points in the irreducible part of the Brillouin zone
       k-points in crystal coordinates                weights
   0:     0.25000000   -0.25000000    0.00000000          2/4
   1:     0.25000000    0.25000000    0.00000000          2/4

Wave functions: LCAO
  Diagonalizer: Serial LAPACK
  Atomic Correction: dense with blas
  Data-type: complex
 

Occupation numbers: Fermi-Dirac:
  width: 0.1500  # eV
 

Eigensolver
   LCAO using direct dense diagonalizer 

Densities:
  Coarse grid: 100*68*160 grid
  Fine grid: 200*136*320 grid
  Total Charge: 0.000000 

Density mixing:
  Method: separate
  Backend: pulay
  Linear mixing parameter: 0.05
  old densities: 5
  Damping of long wavelength oscillations: 50 

Hamiltonian:
  XC and Coulomb potentials evaluated on a 200*136*320 grid
  Using the PBE Exchange-Correlation functional
  Interpolation: tri-quintic (5. degree polynomial)
  Poisson solver: FastPoissonSolver using
    Stencil: 6*3+1=19 point O(h^6) finite-difference Laplacian
    FFT axes: [np.int64(0), np.int64(1)]
    FST axes: [np.int64(2)]
 

XC parameters: PBE with 2 nearest neighbor stencil

Memory estimate:
  Process memory now: 3793.11 MiB
  Calculator: 1570.72 MiB
    Density: 780.53 MiB
      Arrays: 215.09 MiB
      Localized functions: 482.94 MiB
      Mixer: 82.49 MiB
    Hamiltonian: 178.84 MiB
      Arrays: 140.65 MiB
      XC: 0.00 MiB
      Poisson: 0.00 MiB
      vbar: 38.19 MiB
    Wavefunctions: 611.36 MiB
      C [qnM]: 3.00 MiB
      S, T [2 x qmm]: 47.80 MiB
      P [aqMi]: 1.49 MiB
      BasisFunctions: 559.07 MiB
      Eigensolver: 0.00 MiB

Total number of cores used: 1

Number of atoms: 177
Number of atomic orbitals: 885
Number of bands in calculation: 111
Number of valence electrons: 177
Bands to converge: occupied

... initialized

Initializing position-dependent things.

Density initialized from atomic densities
          .------------------------------------------------.  
         /|                                                |  
        / |                                                |  
       /  |                                                |  
      /   |                                                |  
     /    |                                                |  
    /     |                                                |  
   /      |                                                |  
  /       |                                                |  
 *        |                                                |  
 |        |                                                |  
 |        |                                                |  
 |        |   Li                                           |  
 |        |     Li          Li                             |  
 |       Li          Li                                    |  
 |        |           Li  Li                               |  
 |     Li Li  Li   Li                          Li          |  
 |        | Li Li       Li Li          Li           Li     |  
 |      Li|      Li Li          Li           Li      Li    |  
 |       Li  Li          Li Li       Li           Li       |  
 |    Li Li   Li  Li LLi      Li Li       Li  Li           |  
 |        |Li Li      Li  Li       Li Li        Li Li      |  
 |  Li Li |    Li  Li      Li  Li       Li Li              |  
 |      Li| Li Li       Li Li       Li Li    Li Li  Li     |  
 |      Li|      Li Li       Li LLi      Li  Li      Li    |  
 |       Li  Li       Li Li       Li Li       Li  Li       |  
 |   Li  Li   Li  Li Li    Li Li Li    Li Li  Li   Li      |  
 |        Li  Li       Li Li       Li Li       Li  Li      |  
 | Li  Li |    Li  Li       Li LLi      Li Li              |  
 |      Li| Li Li    Li Li Li    Li Li Li    Li Li  Li     |  
 |  Li  Li|      Li Li       Li Li       Li  Li            |  
 Li      Li  Li       Li Li       Li LLi      Li  Li       |  
 |Li Li   |   Li  Li       Li Li       Li Li               |  
 |        Li           Li          Li          Li          |  
 | Li  Li |    Li  Li       Li  Li      Li  Li             |  
 |        |                                                |  
 |      Li|          Li          Li          Li            |  
 Li       |  Li          Li           Li                   |  
 |        |                                                |  
 |        |                                                |  
 |        .------------------------------------------------.  
 |       /                                                /   
 |      /                                                /    
 |     /                                                /     
 |    /                                                /      
 |   /                                                /       
 |  /                                                /        
 | /                                                /         
 |/                                                /          
 *------------------------------------------------*           

Atomic positions and initial magnetic moments

Positions:
   0 Li     0.000000    0.000000   10.000000    ( 0.0000,  0.0000,  0.0000)
   1 Li     2.467803    1.745000   10.000000    ( 0.0000,  0.0000,  0.0000)
   2 Li     2.467803    0.000000   12.467803    ( 0.0000,  0.0000,  0.0000)
   3 Li     0.000000    1.745000   12.467803    ( 0.0000,  0.0000,  0.0000)
   4 Li     4.935605    0.000000   14.935605    ( 0.0000,  0.0000,  0.0000)
   5 Li     2.467803    1.745000   14.935605    ( 0.0000,  0.0000,  0.0000)
   6 Li     2.465478    0.062727   17.323799    ( 0.0000,  0.0000,  0.0000)
   7 Li     4.937904    1.724154   17.422641    ( 0.0000,  0.0000,  0.0000)
   8 Li     4.917882   -0.061151   19.899487    ( 0.0000,  0.0000,  0.0000)
   9 Li     2.522304    1.679133   19.846385    ( 0.0000,  0.0000,  0.0000)
  10 Li     2.433442   -0.155919   22.187137    ( 0.0000,  0.0000,  0.0000)
  11 Li    -0.111217    1.707987   22.050348    ( 0.0000,  0.0000,  0.0000)
  12 Li     0.000000    3.490000   10.000000    ( 0.0000,  0.0000,  0.0000)
  13 Li     2.467803    5.235000   10.000000    ( 0.0000,  0.0000,  0.0000)
  14 Li     2.467803    3.490000   12.467803    ( 0.0000,  0.0000,  0.0000)
  15 Li     0.000000    5.235000   12.467803    ( 0.0000,  0.0000,  0.0000)
  16 Li     4.935605    3.490000   14.935605    ( 0.0000,  0.0000,  0.0000)
  17 Li     2.467803    5.235000   14.935605    ( 0.0000,  0.0000,  0.0000)
  18 Li     2.475459    3.490000   17.414104    ( 0.0000,  0.0000,  0.0000)
  19 Li     4.937904    5.255846   17.422641    ( 0.0000,  0.0000,  0.0000)
  20 Li     4.857590    3.490000   19.844646    ( 0.0000,  0.0000,  0.0000)
  21 Li     2.522304    5.300867   19.846385    ( 0.0000,  0.0000,  0.0000)
  22 Li     2.398788    3.490000   22.152802    ( 0.0000,  0.0000,  0.0000)
  23 Li    -0.111217    5.272013   22.050348    ( 0.0000,  0.0000,  0.0000)
  24 Li     0.000000    6.980000   10.000000    ( 0.0000,  0.0000,  0.0000)
  25 Li     2.467803    8.725000   10.000000    ( 0.0000,  0.0000,  0.0000)
  26 Li     2.467803    6.980000   12.467803    ( 0.0000,  0.0000,  0.0000)
  27 Li     0.000000    8.725000   12.467803    ( 0.0000,  0.0000,  0.0000)
  28 Li     4.935605    6.980000   14.935605    ( 0.0000,  0.0000,  0.0000)
  29 Li     2.467803    8.725000   14.935605    ( 0.0000,  0.0000,  0.0000)
  30 Li     2.465478    6.917273   17.323799    ( 0.0000,  0.0000,  0.0000)
  31 Li     4.926664    8.686644   17.362787    ( 0.0000,  0.0000,  0.0000)
  32 Li     4.917882    7.041151   19.899487    ( 0.0000,  0.0000,  0.0000)
  33 Li     2.536994    8.618986   19.591275    ( 0.0000,  0.0000,  0.0000)
  34 Li     2.433442    7.135919   22.187137    ( 0.0000,  0.0000,  0.0000)
  35 Li     0.005262    8.878706   22.156794    ( 0.0000,  0.0000,  0.0000)
  36 Li     0.000000   10.470000   10.000000    ( 0.0000,  0.0000,  0.0000)
  37 Li     2.467803   12.215000   10.000000    ( 0.0000,  0.0000,  0.0000)
  38 Li     2.467803   10.470000   12.467803    ( 0.0000,  0.0000,  0.0000)
  39 Li     0.000000   12.215000   12.467803    ( 0.0000,  0.0000,  0.0000)
  40 Li     4.935605   10.470000   14.935605    ( 0.0000,  0.0000,  0.0000)
  41 Li     2.467803   12.215000   14.935605    ( 0.0000,  0.0000,  0.0000)
  42 Li     2.475523   10.470000   17.345006    ( 0.0000,  0.0000,  0.0000)
  43 Li     4.926664   12.253356   17.362787    ( 0.0000,  0.0000,  0.0000)
  44 Li     4.880803   10.470000   19.762254    ( 0.0000,  0.0000,  0.0000)
  45 Li     2.536994   12.321014   19.591275    ( 0.0000,  0.0000,  0.0000)
  46 Li     2.452869   10.470000   21.562050    ( 0.0000,  0.0000,  0.0000)
  47 Li     0.005262   12.061294   22.156794    ( 0.0000,  0.0000,  0.0000)
  48 Li     4.935605    0.000000   10.000000    ( 0.0000,  0.0000,  0.0000)
  49 Li     7.403408    1.745000   10.000000    ( 0.0000,  0.0000,  0.0000)
  50 Li     7.403408    0.000000   12.467803    ( 0.0000,  0.0000,  0.0000)
  51 Li     4.935605    1.745000   12.467803    ( 0.0000,  0.0000,  0.0000)
  52 Li     9.871211    0.000000   14.935605    ( 0.0000,  0.0000,  0.0000)
  53 Li     7.403408    1.745000   14.935605    ( 0.0000,  0.0000,  0.0000)
  54 Li     7.400578   -0.001383   17.326503    ( 0.0000,  0.0000,  0.0000)
  55 Li     9.868877    1.743607   17.382171    ( 0.0000,  0.0000,  0.0000)
  56 Li     9.706905    0.000087   19.795544    ( 0.0000,  0.0000,  0.0000)
  57 Li     7.242581    1.740726   19.693864    ( 0.0000,  0.0000,  0.0000)
  58 Li     7.450468   -0.058009   22.029647    ( 0.0000,  0.0000,  0.0000)
  59 Li     4.956088    1.744602   22.178897    ( 0.0000,  0.0000,  0.0000)
  60 Li     4.935605    3.490000   10.000000    ( 0.0000,  0.0000,  0.0000)
  61 Li     7.403408    5.235000   10.000000    ( 0.0000,  0.0000,  0.0000)
  62 Li     7.403408    3.490000   12.467803    ( 0.0000,  0.0000,  0.0000)
  63 Li     4.935605    5.235000   12.467803    ( 0.0000,  0.0000,  0.0000)
  64 Li     9.871211    3.490000   14.935605    ( 0.0000,  0.0000,  0.0000)
  65 Li     7.403408    5.235000   14.935605    ( 0.0000,  0.0000,  0.0000)
  66 Li     7.381549    3.490000   17.329995    ( 0.0000,  0.0000,  0.0000)
  67 Li     9.868877    5.236393   17.382171    ( 0.0000,  0.0000,  0.0000)
  68 Li     9.722027    3.490000   19.766403    ( 0.0000,  0.0000,  0.0000)
  69 Li     7.242581    5.239274   19.693864    ( 0.0000,  0.0000,  0.0000)
  70 Li     7.517064    3.490000   22.015263    ( 0.0000,  0.0000,  0.0000)
  71 Li     4.956088    5.235398   22.178897    ( 0.0000,  0.0000,  0.0000)
  72 Li     4.935605    6.980000   10.000000    ( 0.0000,  0.0000,  0.0000)
  73 Li     7.403408    8.725000   10.000000    ( 0.0000,  0.0000,  0.0000)
  74 Li     7.403408    6.980000   12.467803    ( 0.0000,  0.0000,  0.0000)
  75 Li     4.935605    8.725000   12.467803    ( 0.0000,  0.0000,  0.0000)
  76 Li     9.871211    6.980000   14.935605    ( 0.0000,  0.0000,  0.0000)
  77 Li     7.403408    8.725000   14.935605    ( 0.0000,  0.0000,  0.0000)
  78 Li     7.400578    6.981383   17.326503    ( 0.0000,  0.0000,  0.0000)
  79 Li     9.869500    8.728371   17.386997    ( 0.0000,  0.0000,  0.0000)
  80 Li     9.706905    6.979913   19.795544    ( 0.0000,  0.0000,  0.0000)
  81 Li     7.252592    8.757100   19.671862    ( 0.0000,  0.0000,  0.0000)
  82 Li     7.450468    7.038009   22.029647    ( 0.0000,  0.0000,  0.0000)
  83 Li     4.895888    8.857090   22.278338    ( 0.0000,  0.0000,  0.0000)
  84 Li     4.935605   10.470000   10.000000    ( 0.0000,  0.0000,  0.0000)
  85 Li     7.403408   12.215000   10.000000    ( 0.0000,  0.0000,  0.0000)
  86 Li     7.403408   10.470000   12.467803    ( 0.0000,  0.0000,  0.0000)
  87 Li     4.935605   12.215000   12.467803    ( 0.0000,  0.0000,  0.0000)
  88 Li     9.871211   10.470000   14.935605    ( 0.0000,  0.0000,  0.0000)
  89 Li     7.403408   12.215000   14.935605    ( 0.0000,  0.0000,  0.0000)
  90 Li     7.374479   10.470000   17.312844    ( 0.0000,  0.0000,  0.0000)
  91 Li     9.869500   12.211629   17.386997    ( 0.0000,  0.0000,  0.0000)
  92 Li     9.721625   10.470000   19.790608    ( 0.0000,  0.0000,  0.0000)
  93 Li     7.252592   12.182900   19.671862    ( 0.0000,  0.0000,  0.0000)
  94 Li     7.504306   10.470000   22.029810    ( 0.0000,  0.0000,  0.0000)
  95 Li     4.895888   12.082910   22.278338    ( 0.0000,  0.0000,  0.0000)
  96 Li     9.871211    0.000000   10.000000    ( 0.0000,  0.0000,  0.0000)
  97 Li    12.339013    1.745000   10.000000    ( 0.0000,  0.0000,  0.0000)
  98 Li    12.339013    0.000000   12.467803    ( 0.0000,  0.0000,  0.0000)
  99 Li     9.871211    1.745000   12.467803    ( 0.0000,  0.0000,  0.0000)
 100 Li    14.806816    0.000000   14.935605    ( 0.0000,  0.0000,  0.0000)
 101 Li    12.339013    1.745000   14.935605    ( 0.0000,  0.0000,  0.0000)
 102 Li    12.339018    0.000323   17.331139    ( 0.0000,  0.0000,  0.0000)
 103 Li    14.807154    1.746869   17.328180    ( 0.0000,  0.0000,  0.0000)
 104 Li    14.871272   -0.001588   19.678348    ( 0.0000,  0.0000,  0.0000)
 105 Li    12.279397    1.743190   19.678365    ( 0.0000,  0.0000,  0.0000)
 106 Li     9.871211    3.490000   10.000000    ( 0.0000,  0.0000,  0.0000)
 107 Li    12.339013    5.235000   10.000000    ( 0.0000,  0.0000,  0.0000)
 108 Li    12.339013    3.490000   12.467803    ( 0.0000,  0.0000,  0.0000)
 109 Li     9.871211    5.235000   12.467803    ( 0.0000,  0.0000,  0.0000)
 110 Li    14.806816    3.490000   14.935605    ( 0.0000,  0.0000,  0.0000)
 111 Li    12.339013    5.235000   14.935605    ( 0.0000,  0.0000,  0.0000)
 112 Li    12.338167    3.490000   17.330642    ( 0.0000,  0.0000,  0.0000)
 113 Li    14.807154    5.233131   17.328180    ( 0.0000,  0.0000,  0.0000)
 114 Li    14.862923    3.490000   19.677442    ( 0.0000,  0.0000,  0.0000)
 115 Li    12.279397    5.236810   19.678365    ( 0.0000,  0.0000,  0.0000)
 116 Li     9.871211    6.980000   10.000000    ( 0.0000,  0.0000,  0.0000)
 117 Li    12.339013    8.725000   10.000000    ( 0.0000,  0.0000,  0.0000)
 118 Li    12.339013    6.980000   12.467803    ( 0.0000,  0.0000,  0.0000)
 119 Li     9.871211    8.725000   12.467803    ( 0.0000,  0.0000,  0.0000)
 120 Li    14.806816    6.980000   14.935605    ( 0.0000,  0.0000,  0.0000)
 121 Li    12.339013    8.725000   14.935605    ( 0.0000,  0.0000,  0.0000)
 122 Li    12.339018    6.979677   17.331139    ( 0.0000,  0.0000,  0.0000)
 123 Li    14.801827    8.727032   17.325585    ( 0.0000,  0.0000,  0.0000)
 124 Li    14.871272    6.981588   19.678348    ( 0.0000,  0.0000,  0.0000)
 125 Li    12.278874    8.724752   19.678910    ( 0.0000,  0.0000,  0.0000)
 126 Li     9.871211   10.470000   10.000000    ( 0.0000,  0.0000,  0.0000)
 127 Li    12.339013   12.215000   10.000000    ( 0.0000,  0.0000,  0.0000)
 128 Li    12.339013   10.470000   12.467803    ( 0.0000,  0.0000,  0.0000)
 129 Li     9.871211   12.215000   12.467803    ( 0.0000,  0.0000,  0.0000)
 130 Li    14.806816   10.470000   14.935605    ( 0.0000,  0.0000,  0.0000)
 131 Li    12.339013   12.215000   14.935605    ( 0.0000,  0.0000,  0.0000)
 132 Li    12.340893   10.470000   17.330158    ( 0.0000,  0.0000,  0.0000)
 133 Li    14.801827   12.212968   17.325585    ( 0.0000,  0.0000,  0.0000)
 134 Li    14.869202   10.470000   19.674826    ( 0.0000,  0.0000,  0.0000)
 135 Li    12.278874   12.215248   19.678910    ( 0.0000,  0.0000,  0.0000)
 136 Li    14.806816    0.000000   10.000000    ( 0.0000,  0.0000,  0.0000)
 137 Li    17.274619    1.745000   10.000000    ( 0.0000,  0.0000,  0.0000)
 138 Li    17.274619    0.000000   12.467803    ( 0.0000,  0.0000,  0.0000)
 139 Li    14.806816    1.745000   12.467803    ( 0.0000,  0.0000,  0.0000)
 140 Li    19.742421    0.000000   14.935605    ( 0.0000,  0.0000,  0.0000)
 141 Li    17.274619    1.745000   14.935605    ( 0.0000,  0.0000,  0.0000)
 142 Li    17.269123   -0.016110   17.402349    ( 0.0000,  0.0000,  0.0000)
 143 Li    19.740302    1.734719   17.359035    ( 0.0000,  0.0000,  0.0000)
 144 Li    19.884275   -0.059495   19.740538    ( 0.0000,  0.0000,  0.0000)
 145 Li    17.427043    1.758023   19.773320    ( 0.0000,  0.0000,  0.0000)
 146 Li    14.806816    3.490000   10.000000    ( 0.0000,  0.0000,  0.0000)
 147 Li    17.274619    5.235000   10.000000    ( 0.0000,  0.0000,  0.0000)
 148 Li    17.274619    3.490000   12.467803    ( 0.0000,  0.0000,  0.0000)
 149 Li    14.806816    5.235000   12.467803    ( 0.0000,  0.0000,  0.0000)
 150 Li    19.742421    3.490000   14.935605    ( 0.0000,  0.0000,  0.0000)
 151 Li    17.274619    5.235000   14.935605    ( 0.0000,  0.0000,  0.0000)
 152 Li    17.277394    3.490000   17.374632    ( 0.0000,  0.0000,  0.0000)
 153 Li    19.740302    5.245281   17.359035    ( 0.0000,  0.0000,  0.0000)
 154 Li    19.914798    3.490000   19.722964    ( 0.0000,  0.0000,  0.0000)
 155 Li    17.427043    5.221977   19.773320    ( 0.0000,  0.0000,  0.0000)
 156 Li    14.806816    6.980000   10.000000    ( 0.0000,  0.0000,  0.0000)
 157 Li    17.274619    8.725000   10.000000    ( 0.0000,  0.0000,  0.0000)
 158 Li    17.274619    6.980000   12.467803    ( 0.0000,  0.0000,  0.0000)
 159 Li    14.806816    8.725000   12.467803    ( 0.0000,  0.0000,  0.0000)
 160 Li    19.742421    6.980000   14.935605    ( 0.0000,  0.0000,  0.0000)
 161 Li    17.274619    8.725000   14.935605    ( 0.0000,  0.0000,  0.0000)
 162 Li    17.269123    6.996110   17.402349    ( 0.0000,  0.0000,  0.0000)
 163 Li    19.769195    8.689991   17.303426    ( 0.0000,  0.0000,  0.0000)
 164 Li    19.884275    7.039495   19.740538    ( 0.0000,  0.0000,  0.0000)
 165 Li    17.449823    8.741678   19.864968    ( 0.0000,  0.0000,  0.0000)
 166 Li    14.806816   10.470000   10.000000    ( 0.0000,  0.0000,  0.0000)
 167 Li    17.274619   12.215000   10.000000    ( 0.0000,  0.0000,  0.0000)
 168 Li    17.274619   10.470000   12.467803    ( 0.0000,  0.0000,  0.0000)
 169 Li    14.806816   12.215000   12.467803    ( 0.0000,  0.0000,  0.0000)
 170 Li    19.742421   10.470000   14.935605    ( 0.0000,  0.0000,  0.0000)
 171 Li    17.274619   12.215000   14.935605    ( 0.0000,  0.0000,  0.0000)
 172 Li    17.294383   10.470000   17.411921    ( 0.0000,  0.0000,  0.0000)
 173 Li    19.769195   12.250009   17.303426    ( 0.0000,  0.0000,  0.0000)
 174 Li    19.896181   10.470000   19.616866    ( 0.0000,  0.0000,  0.0000)
 175 Li    17.449823   12.198322   19.864968    ( 0.0000,  0.0000,  0.0000)
 176 Li     2.479060   10.470000   24.133832    ( 0.0000,  0.0000,  0.0000)

Unit cell:
           periodic     x           y           z      points  spacing
  1. axis:    yes   19.742421    0.000000    0.000000   100     0.1974
  2. axis:    yes    0.000000   13.960000    0.000000    68     0.2053
  3. axis:    no     0.000000    0.000000   32.339013   160     0.2021

  Lengths:  19.742421  13.960000  32.339013
  Angles:   90.000000  90.000000  90.000000

Effective grid spacing dv^(1/3) = 0.2016

     iter     time        total  log10-change:
                         energy   eigst   dens
iter:   1 09:49:31  -329.026833        c
iter:   2 09:50:20  -318.076887        c -0.66
iter:   3 09:51:30  -315.572691        c -0.85
iter:   4 09:52:22  -314.609699        c -0.92
iter:   5 09:53:03  -311.924698        c -0.97
iter:   6 09:54:04  -311.162757        c -1.18
iter:   7 09:55:31  -310.856624        c -1.30
iter:   8 09:56:38  -310.632763        c -1.41
iter:   9 09:57:32  -310.550018        c -1.58
iter:  10 09:58:30  -310.509696        c -1.70
iter:  11 09:59:39  -310.485374c       c -1.81
iter:  12 10:00:51  -310.475111c       c -1.90
iter:  13 10:02:15  -310.460671c       c -1.96
iter:  14 10:03:32  -310.457236c       c -2.12
iter:  15 10:04:38  -310.454531c       c -2.19
iter:  16 10:06:13  -310.453924c       c -2.27
iter:  17 10:07:26  -310.453171c       c -2.34
iter:  18 10:08:50  -310.451628c       c -2.40
iter:  19 10:09:59  -310.451312c       c -2.50
iter:  20 10:11:10  -310.450453c       c -2.55
iter:  21 10:12:13  -310.450253c       c -2.64
iter:  22 10:13:24  -310.449908c       c -2.73
iter:  23 10:14:37  -310.449737c       c -2.80
iter:  24 10:15:45  -310.449755c       c -2.88
iter:  25 10:16:55  -310.449484c       c -2.96
iter:  26 10:17:57  -310.449494c       c -3.06
iter:  27 10:19:06  -310.449375c       c -3.14
iter:  28 10:20:43  -310.449428c       c -3.27
iter:  29 10:22:10  -310.449431c       c -3.36
iter:  30 10:23:26  -310.449413c       c -3.42
iter:  31 10:25:00  -310.449468c       c -3.47
iter:  32 10:26:17  -310.449446c       c -3.54
iter:  33 10:27:00  -310.449457c       c -3.60
iter:  34 10:27:44  -310.449428c       c -3.66
iter:  35 10:28:35  -310.449421c       c -3.73
iter:  36 10:29:29  -310.449422c       c -3.81
iter:  37 10:30:28  -310.449393c       c -3.88
iter:  38 10:31:23  -310.449404c       c -3.93
iter:  39 10:32:18  -310.449397c       c -4.08c

Converged after 39 iterations.

Dipole moment: (-40.509909, -14.148206, 0.732760) |e|*Ang

Energy contributions relative to reference atoms: (reference = -35893.444183)

Kinetic:       +328.111140
Potential:     -279.311587
External:        +0.000000
XC:            -354.146995
Entropy (-ST):   -5.739909
Local:           -2.232002
SIC:             +0.000000
--------------------------
Free energy:   -313.319351
Extrapolated:  -310.449397

Showing all kpts
 Kpt  Band  Eigenvalues  Occupancy
  0    86     -2.89253    1.13441
  0    87     -2.87530    1.07761
  0    88     -2.85051    0.99516
  0    89     -2.83617    0.94740

  1    86     -2.89253    1.13441
  1    87     -2.87530    1.07761
  1    88     -2.85051    0.99516
  1    89     -2.83617    0.94740


Fermi level: -2.85197

Gap: 0.025 eV
Transition (v -> c):
  (s=0, k=1, n=87, [0.25, 0.25, 0.00]) -> (s=0, k=0, n=88, [0.25, -0.25, 0.00])
Direct/indirect transitions are different
Direct gap: 0.025 eV
Transition at: (s=0, k=1, n=87, [0.25, 0.25, 0.00])
