
  ___ ___ ___ _ _ _  
 |   |   |_  | | | | 
 | | | | | . | | | | 
 |__ |  _|___|_____|  25.7.0
 |___|_|             

User:   tew@Mathuss-MacBook-Air-357.local
Date:   Tue Nov 25 15:57:24 2025
Arch:   arm64
Pid:    56558
CWD:    /Users/tew/Documents/Project/GitHub/chem-com/step
Python: 3.13.5
gpaw:   /Users/tew/Documents/Project/GitHub/chem-com/.venv/lib/python3.13/site-packages/gpaw
_gpaw:  /Users/tew/Documents/Project/GitHub/chem-com/.venv/lib/python3.13/site-packages/
        _gpaw.cpython-313-darwin.so
ase:    /Users/tew/Documents/Project/GitHub/chem-com/.venv/lib/python3.13/site-packages/ase (version 3.26.0)
numpy:  /Users/tew/Documents/Project/GitHub/chem-com/.venv/lib/python3.13/site-packages/numpy (version 2.3.5)
scipy:  /Users/tew/Documents/Project/GitHub/chem-com/.venv/lib/python3.13/site-packages/scipy (version 1.16.3)
libxc:  2.x.y
units:  Angstrom and eV
cores: 1
OpenMP: False
OMP_NUM_THREADS: 1

Input parameters:
  basis: dzp
  convergence: {density: 0.0001,
                eigenstates: 5e-06}
  kpts: [2 2 1]
  mode: {interpolation: 3,
         name: lcao}
  occupations: {fixmagmom: False,
                name: fermi-dirac,
                width: 0.15}
  xc: PBE

System changes: positions, numbers, cell, pbc, initial_charges, initial_magmoms 

Initialize ...

species:
  Li:
    name: Lithium
    id: 830b4218f175192f93f959cfc0aad614
    Z: 3.0
    valence: 1
    core: 2
    charge: 0.0
    file: /Users/tew/Documents/Project/GitHub/chem-com/.venv/lib/python3.13/site-packages/gpaw_data/setups/Li.PBE.gz
    compensation charges: {type: gauss,
                           rc: 0.33,
                           lmax: 2}
    cutoffs: {filter: 1.91,
              core: 2.55}
    projectors:
      #              energy  rcut
      - 2s(1.00)    -2.874   1.058
      - 2p(0.00)    -1.090   1.058
      -  s          24.337   1.058
  
    # LCAO basis set for Li:
    #   Name: dzp
    #   File: /Users/tew/Documents/Project/GitHub/chem-com/.venv/lib/python3.13/site-packages/gpaw_data/setups/Li.dzp.basis.gz
    #   Number of radial functions: 3
    #   Number of spherical harmonics: 5
    #     l=0, rc=10.8906 Bohr: 2s-sz confined orbital
    #     l=0, rc=6.6719 Bohr: 2s-dz split-valence wave
    #     l=1, rc=10.8906 Bohr: p-type Gaussian polarization
    #   Number of RI-basis functions 0

Reference energy: -35893.444183  # eV

Spin-paired calculation

Convergence criteria:
 Maximum [total energy] change in last 3 cyles: 0.0005 eV / valence electron
 Maximum integral of absolute [dens]ity change: 0.0001 electrons / valence electron
 Maximum integral of absolute [eigenst]ate change: 5e-06 eV^2 / valence electron
 Maximum number of scf [iter]ations: 333
 (Square brackets indicate name in SCF output, whereas a 'c' in
 the SCF output indicates the quantity has converged.)

Symmetries present (total): 1

  ( 1  0  0)
  ( 0  1  0)
  ( 0  0  1)

4 k-points: 2 x 2 x 1 Monkhorst-Pack grid
2 k-points in the irreducible part of the Brillouin zone
       k-points in crystal coordinates                weights
   0:     0.25000000   -0.25000000    0.00000000          2/4
   1:     0.25000000    0.25000000    0.00000000          2/4

Wave functions: LCAO
  Diagonalizer: Serial LAPACK
  Atomic Correction: dense with blas
  Data-type: complex
 

Occupation numbers: Fermi-Dirac:
  width: 0.1500  # eV
 

Eigensolver
   LCAO using direct dense diagonalizer 

Densities:
  Coarse grid: 100*68*160 grid
  Fine grid: 200*136*320 grid
  Total Charge: 0.000000 

Density mixing:
  Method: separate
  Backend: pulay
  Linear mixing parameter: 0.05
  old densities: 5
  Damping of long wavelength oscillations: 50 

Hamiltonian:
  XC and Coulomb potentials evaluated on a 200*136*320 grid
  Using the PBE Exchange-Correlation functional
  Interpolation: tri-quintic (5. degree polynomial)
  Poisson solver: FastPoissonSolver using
    Stencil: 6*3+1=19 point O(h^6) finite-difference Laplacian
    FFT axes: [np.int64(0), np.int64(1)]
    FST axes: [np.int64(2)]
 

XC parameters: PBE with 2 nearest neighbor stencil

Memory estimate:
  Process memory now: 2928.23 MiB
  Calculator: 1570.72 MiB
    Density: 780.53 MiB
      Arrays: 215.09 MiB
      Localized functions: 482.94 MiB
      Mixer: 82.49 MiB
    Hamiltonian: 178.84 MiB
      Arrays: 140.65 MiB
      XC: 0.00 MiB
      Poisson: 0.00 MiB
      vbar: 38.19 MiB
    Wavefunctions: 611.36 MiB
      C [qnM]: 3.00 MiB
      S, T [2 x qmm]: 47.80 MiB
      P [aqMi]: 1.49 MiB
      BasisFunctions: 559.07 MiB
      Eigensolver: 0.00 MiB

Total number of cores used: 1

Number of atoms: 177
Number of atomic orbitals: 885
Number of bands in calculation: 111
Number of valence electrons: 177
Bands to converge: occupied

... initialized

Initializing position-dependent things.

Density initialized from atomic densities
          .------------------------------------------------.  
         /|                                                |  
        / |                                                |  
       /  |                                                |  
      /   |                                                |  
     /    |                                                |  
    /     |                                                |  
   /      |                                                |  
  /       |                                                |  
 *        |                                                |  
 |        |                                                |  
 |        |                                                |  
 |        |                                                |  
 |       Li  Li      Li                                    |  
 |        |                                                |  
 |        |   Li          Li                               |  
 |     Li |        Li                                      |  
 |        | Li Li       Li Li          Li           Li     |  
 |  Li  Li|      Li Li          Li           Li            |  
 |       Li  Li       Li Li          Li           Li       |  
 |Li Li  Li   Li  Li Li       Li Li       Li  Li           |  
 |     Li Li  Li   Li  Li Li       Li Li       Li  Li      |  
 | Li  Li |    Li  Li       Li Li       Li Li              |  
 |      Li| Li Li    Li Li Li    Li Li Li    Li Li  Li     |  
 Li Li  Li|  Li  Li Li   Li  Li Li    Li Li  Li            |  
 |       Li  Li       Li Li       Li Li       Li  Li       |  
 |Li Li  Li   Li  Li Li    Li Li Li    Li Li  Li           |  
 |     Li Li  Li   Li  Li Li    Li Li Li    Li Li  Li      |  
 | Li  Li |    Li  Li       Li Li       Li Li              |  
 |      Li| Li Li    Li Li Li    Li Li Li    Li Li  Li     |  
 |  Li  Li|      Li Li       Li Li       Li  Li            |  
 Li      Li  Li       Li Li       Li LLi      Li  Li       |  
 |Li Li   |   Li  Li       Li Li       Li Li               |  
 |        Li           Li          Li          Li          |  
 | Li  Li |    Li  Li       Li  Li      Li  Li             |  
 |        |                                                |  
 |      Li|          Li          Li          Li            |  
 Li       |  Li          Li           Li                   |  
 |        |                                                |  
 |        |                                                |  
 |        .------------------------------------------------.  
 |       /                                                /   
 |      /                                                /    
 |     /                                                /     
 |    /                                                /      
 |   /                                                /       
 |  /                                                /        
 | /                                                /         
 |/                                                /          
 *------------------------------------------------*           

Atomic positions and initial magnetic moments

Positions:
   0 Li     0.000000    0.000000   10.000000    ( 0.0000,  0.0000,  0.0000)
   1 Li     2.467803    1.745000   10.000000    ( 0.0000,  0.0000,  0.0000)
   2 Li     2.467803    0.000000   12.467803    ( 0.0000,  0.0000,  0.0000)
   3 Li     0.000000    1.745000   12.467803    ( 0.0000,  0.0000,  0.0000)
   4 Li     4.935605    0.000000   14.935605    ( 0.0000,  0.0000,  0.0000)
   5 Li     2.467803    1.745000   14.935605    ( 0.0000,  0.0000,  0.0000)
   6 Li     2.467803    0.000000   17.403408    ( 0.0000,  0.0000,  0.0000)
   7 Li     4.935605    1.745000   17.403408    ( 0.0000,  0.0000,  0.0000)
   8 Li     4.935605    0.000000   19.871211    ( 0.0000,  0.0000,  0.0000)
   9 Li     2.467803    1.745000   19.871211    ( 0.0000,  0.0000,  0.0000)
  10 Li     2.467803    0.000000   22.339013    ( 0.0000,  0.0000,  0.0000)
  11 Li     0.000000    1.745000   22.339013    ( 0.0000,  0.0000,  0.0000)
  12 Li     0.000000    3.490000   10.000000    ( 0.0000,  0.0000,  0.0000)
  13 Li     2.467803    5.235000   10.000000    ( 0.0000,  0.0000,  0.0000)
  14 Li     2.467803    3.490000   12.467803    ( 0.0000,  0.0000,  0.0000)
  15 Li     0.000000    5.235000   12.467803    ( 0.0000,  0.0000,  0.0000)
  16 Li     4.935605    3.490000   14.935605    ( 0.0000,  0.0000,  0.0000)
  17 Li     2.467803    5.235000   14.935605    ( 0.0000,  0.0000,  0.0000)
  18 Li     2.467803    3.490000   17.403408    ( 0.0000,  0.0000,  0.0000)
  19 Li     4.935605    5.235000   17.403408    ( 0.0000,  0.0000,  0.0000)
  20 Li     4.935605    3.490000   19.871211    ( 0.0000,  0.0000,  0.0000)
  21 Li     2.467803    5.235000   19.871211    ( 0.0000,  0.0000,  0.0000)
  22 Li     2.467803    3.490000   22.339013    ( 0.0000,  0.0000,  0.0000)
  23 Li     0.000000    5.235000   22.339013    ( 0.0000,  0.0000,  0.0000)
  24 Li     0.000000    6.980000   10.000000    ( 0.0000,  0.0000,  0.0000)
  25 Li     2.467803    8.725000   10.000000    ( 0.0000,  0.0000,  0.0000)
  26 Li     2.467803    6.980000   12.467803    ( 0.0000,  0.0000,  0.0000)
  27 Li     0.000000    8.725000   12.467803    ( 0.0000,  0.0000,  0.0000)
  28 Li     4.935605    6.980000   14.935605    ( 0.0000,  0.0000,  0.0000)
  29 Li     2.467803    8.725000   14.935605    ( 0.0000,  0.0000,  0.0000)
  30 Li     2.467803    6.980000   17.403408    ( 0.0000,  0.0000,  0.0000)
  31 Li     4.935605    8.725000   17.403408    ( 0.0000,  0.0000,  0.0000)
  32 Li     4.935605    6.980000   19.871211    ( 0.0000,  0.0000,  0.0000)
  33 Li     2.467803    8.725000   19.871211    ( 0.0000,  0.0000,  0.0000)
  34 Li     2.467803    6.980000   22.339013    ( 0.0000,  0.0000,  0.0000)
  35 Li     0.000000    8.725000   22.339013    ( 0.0000,  0.0000,  0.0000)
  36 Li     0.000000   10.470000   10.000000    ( 0.0000,  0.0000,  0.0000)
  37 Li     2.467803   12.215000   10.000000    ( 0.0000,  0.0000,  0.0000)
  38 Li     2.467803   10.470000   12.467803    ( 0.0000,  0.0000,  0.0000)
  39 Li     0.000000   12.215000   12.467803    ( 0.0000,  0.0000,  0.0000)
  40 Li     4.935605   10.470000   14.935605    ( 0.0000,  0.0000,  0.0000)
  41 Li     2.467803   12.215000   14.935605    ( 0.0000,  0.0000,  0.0000)
  42 Li     2.467803   10.470000   17.403408    ( 0.0000,  0.0000,  0.0000)
  43 Li     4.935605   12.215000   17.403408    ( 0.0000,  0.0000,  0.0000)
  44 Li     4.935605   10.470000   19.871211    ( 0.0000,  0.0000,  0.0000)
  45 Li     2.467803   12.215000   19.871211    ( 0.0000,  0.0000,  0.0000)
  46 Li     2.467803   10.470000   22.339013    ( 0.0000,  0.0000,  0.0000)
  47 Li     0.000000   12.215000   22.339013    ( 0.0000,  0.0000,  0.0000)
  48 Li     4.935605    0.000000   10.000000    ( 0.0000,  0.0000,  0.0000)
  49 Li     7.403408    1.745000   10.000000    ( 0.0000,  0.0000,  0.0000)
  50 Li     7.403408    0.000000   12.467803    ( 0.0000,  0.0000,  0.0000)
  51 Li     4.935605    1.745000   12.467803    ( 0.0000,  0.0000,  0.0000)
  52 Li     9.871211    0.000000   14.935605    ( 0.0000,  0.0000,  0.0000)
  53 Li     7.403408    1.745000   14.935605    ( 0.0000,  0.0000,  0.0000)
  54 Li     7.403408    0.000000   17.403408    ( 0.0000,  0.0000,  0.0000)
  55 Li     9.871211    1.745000   17.403408    ( 0.0000,  0.0000,  0.0000)
  56 Li     9.871211    0.000000   19.871211    ( 0.0000,  0.0000,  0.0000)
  57 Li     7.403408    1.745000   19.871211    ( 0.0000,  0.0000,  0.0000)
  58 Li     7.403408    0.000000   22.339013    ( 0.0000,  0.0000,  0.0000)
  59 Li     4.935605    1.745000   22.339013    ( 0.0000,  0.0000,  0.0000)
  60 Li     4.935605    3.490000   10.000000    ( 0.0000,  0.0000,  0.0000)
  61 Li     7.403408    5.235000   10.000000    ( 0.0000,  0.0000,  0.0000)
  62 Li     7.403408    3.490000   12.467803    ( 0.0000,  0.0000,  0.0000)
  63 Li     4.935605    5.235000   12.467803    ( 0.0000,  0.0000,  0.0000)
  64 Li     9.871211    3.490000   14.935605    ( 0.0000,  0.0000,  0.0000)
  65 Li     7.403408    5.235000   14.935605    ( 0.0000,  0.0000,  0.0000)
  66 Li     7.403408    3.490000   17.403408    ( 0.0000,  0.0000,  0.0000)
  67 Li     9.871211    5.235000   17.403408    ( 0.0000,  0.0000,  0.0000)
  68 Li     9.871211    3.490000   19.871211    ( 0.0000,  0.0000,  0.0000)
  69 Li     7.403408    5.235000   19.871211    ( 0.0000,  0.0000,  0.0000)
  70 Li     7.403408    3.490000   22.339013    ( 0.0000,  0.0000,  0.0000)
  71 Li     4.935605    5.235000   22.339013    ( 0.0000,  0.0000,  0.0000)
  72 Li     4.935605    6.980000   10.000000    ( 0.0000,  0.0000,  0.0000)
  73 Li     7.403408    8.725000   10.000000    ( 0.0000,  0.0000,  0.0000)
  74 Li     7.403408    6.980000   12.467803    ( 0.0000,  0.0000,  0.0000)
  75 Li     4.935605    8.725000   12.467803    ( 0.0000,  0.0000,  0.0000)
  76 Li     9.871211    6.980000   14.935605    ( 0.0000,  0.0000,  0.0000)
  77 Li     7.403408    8.725000   14.935605    ( 0.0000,  0.0000,  0.0000)
  78 Li     7.403408    6.980000   17.403408    ( 0.0000,  0.0000,  0.0000)
  79 Li     9.871211    8.725000   17.403408    ( 0.0000,  0.0000,  0.0000)
  80 Li     9.871211    6.980000   19.871211    ( 0.0000,  0.0000,  0.0000)
  81 Li     7.403408    8.725000   19.871211    ( 0.0000,  0.0000,  0.0000)
  82 Li     7.403408    6.980000   22.339013    ( 0.0000,  0.0000,  0.0000)
  83 Li     4.935605    8.725000   22.339013    ( 0.0000,  0.0000,  0.0000)
  84 Li     4.935605   10.470000   10.000000    ( 0.0000,  0.0000,  0.0000)
  85 Li     7.403408   12.215000   10.000000    ( 0.0000,  0.0000,  0.0000)
  86 Li     7.403408   10.470000   12.467803    ( 0.0000,  0.0000,  0.0000)
  87 Li     4.935605   12.215000   12.467803    ( 0.0000,  0.0000,  0.0000)
  88 Li     9.871211   10.470000   14.935605    ( 0.0000,  0.0000,  0.0000)
  89 Li     7.403408   12.215000   14.935605    ( 0.0000,  0.0000,  0.0000)
  90 Li     7.403408   10.470000   17.403408    ( 0.0000,  0.0000,  0.0000)
  91 Li     9.871211   12.215000   17.403408    ( 0.0000,  0.0000,  0.0000)
  92 Li     9.871211   10.470000   19.871211    ( 0.0000,  0.0000,  0.0000)
  93 Li     7.403408   12.215000   19.871211    ( 0.0000,  0.0000,  0.0000)
  94 Li     7.403408   10.470000   22.339013    ( 0.0000,  0.0000,  0.0000)
  95 Li     4.935605   12.215000   22.339013    ( 0.0000,  0.0000,  0.0000)
  96 Li     9.871211    0.000000   10.000000    ( 0.0000,  0.0000,  0.0000)
  97 Li    12.339013    1.745000   10.000000    ( 0.0000,  0.0000,  0.0000)
  98 Li    12.339013    0.000000   12.467803    ( 0.0000,  0.0000,  0.0000)
  99 Li     9.871211    1.745000   12.467803    ( 0.0000,  0.0000,  0.0000)
 100 Li    14.806816    0.000000   14.935605    ( 0.0000,  0.0000,  0.0000)
 101 Li    12.339013    1.745000   14.935605    ( 0.0000,  0.0000,  0.0000)
 102 Li    12.339013    0.000000   17.403408    ( 0.0000,  0.0000,  0.0000)
 103 Li    14.806816    1.745000   17.403408    ( 0.0000,  0.0000,  0.0000)
 104 Li    14.806816    0.000000   19.871211    ( 0.0000,  0.0000,  0.0000)
 105 Li    12.339013    1.745000   19.871211    ( 0.0000,  0.0000,  0.0000)
 106 Li     9.871211    3.490000   10.000000    ( 0.0000,  0.0000,  0.0000)
 107 Li    12.339013    5.235000   10.000000    ( 0.0000,  0.0000,  0.0000)
 108 Li    12.339013    3.490000   12.467803    ( 0.0000,  0.0000,  0.0000)
 109 Li     9.871211    5.235000   12.467803    ( 0.0000,  0.0000,  0.0000)
 110 Li    14.806816    3.490000   14.935605    ( 0.0000,  0.0000,  0.0000)
 111 Li    12.339013    5.235000   14.935605    ( 0.0000,  0.0000,  0.0000)
 112 Li    12.339013    3.490000   17.403408    ( 0.0000,  0.0000,  0.0000)
 113 Li    14.806816    5.235000   17.403408    ( 0.0000,  0.0000,  0.0000)
 114 Li    14.806816    3.490000   19.871211    ( 0.0000,  0.0000,  0.0000)
 115 Li    12.339013    5.235000   19.871211    ( 0.0000,  0.0000,  0.0000)
 116 Li     9.871211    6.980000   10.000000    ( 0.0000,  0.0000,  0.0000)
 117 Li    12.339013    8.725000   10.000000    ( 0.0000,  0.0000,  0.0000)
 118 Li    12.339013    6.980000   12.467803    ( 0.0000,  0.0000,  0.0000)
 119 Li     9.871211    8.725000   12.467803    ( 0.0000,  0.0000,  0.0000)
 120 Li    14.806816    6.980000   14.935605    ( 0.0000,  0.0000,  0.0000)
 121 Li    12.339013    8.725000   14.935605    ( 0.0000,  0.0000,  0.0000)
 122 Li    12.339013    6.980000   17.403408    ( 0.0000,  0.0000,  0.0000)
 123 Li    14.806816    8.725000   17.403408    ( 0.0000,  0.0000,  0.0000)
 124 Li    14.806816    6.980000   19.871211    ( 0.0000,  0.0000,  0.0000)
 125 Li    12.339013    8.725000   19.871211    ( 0.0000,  0.0000,  0.0000)
 126 Li     9.871211   10.470000   10.000000    ( 0.0000,  0.0000,  0.0000)
 127 Li    12.339013   12.215000   10.000000    ( 0.0000,  0.0000,  0.0000)
 128 Li    12.339013   10.470000   12.467803    ( 0.0000,  0.0000,  0.0000)
 129 Li     9.871211   12.215000   12.467803    ( 0.0000,  0.0000,  0.0000)
 130 Li    14.806816   10.470000   14.935605    ( 0.0000,  0.0000,  0.0000)
 131 Li    12.339013   12.215000   14.935605    ( 0.0000,  0.0000,  0.0000)
 132 Li    12.339013   10.470000   17.403408    ( 0.0000,  0.0000,  0.0000)
 133 Li    14.806816   12.215000   17.403408    ( 0.0000,  0.0000,  0.0000)
 134 Li    14.806816   10.470000   19.871211    ( 0.0000,  0.0000,  0.0000)
 135 Li    12.339013   12.215000   19.871211    ( 0.0000,  0.0000,  0.0000)
 136 Li    14.806816    0.000000   10.000000    ( 0.0000,  0.0000,  0.0000)
 137 Li    17.274619    1.745000   10.000000    ( 0.0000,  0.0000,  0.0000)
 138 Li    17.274619    0.000000   12.467803    ( 0.0000,  0.0000,  0.0000)
 139 Li    14.806816    1.745000   12.467803    ( 0.0000,  0.0000,  0.0000)
 140 Li    19.742421    0.000000   14.935605    ( 0.0000,  0.0000,  0.0000)
 141 Li    17.274619    1.745000   14.935605    ( 0.0000,  0.0000,  0.0000)
 142 Li    17.274619    0.000000   17.403408    ( 0.0000,  0.0000,  0.0000)
 143 Li    19.742421    1.745000   17.403408    ( 0.0000,  0.0000,  0.0000)
 144 Li    19.742421    0.000000   19.871211    ( 0.0000,  0.0000,  0.0000)
 145 Li    17.274619    1.745000   19.871211    ( 0.0000,  0.0000,  0.0000)
 146 Li    14.806816    3.490000   10.000000    ( 0.0000,  0.0000,  0.0000)
 147 Li    17.274619    5.235000   10.000000    ( 0.0000,  0.0000,  0.0000)
 148 Li    17.274619    3.490000   12.467803    ( 0.0000,  0.0000,  0.0000)
 149 Li    14.806816    5.235000   12.467803    ( 0.0000,  0.0000,  0.0000)
 150 Li    19.742421    3.490000   14.935605    ( 0.0000,  0.0000,  0.0000)
 151 Li    17.274619    5.235000   14.935605    ( 0.0000,  0.0000,  0.0000)
 152 Li    17.274619    3.490000   17.403408    ( 0.0000,  0.0000,  0.0000)
 153 Li    19.742421    5.235000   17.403408    ( 0.0000,  0.0000,  0.0000)
 154 Li    19.742421    3.490000   19.871211    ( 0.0000,  0.0000,  0.0000)
 155 Li    17.274619    5.235000   19.871211    ( 0.0000,  0.0000,  0.0000)
 156 Li    14.806816    6.980000   10.000000    ( 0.0000,  0.0000,  0.0000)
 157 Li    17.274619    8.725000   10.000000    ( 0.0000,  0.0000,  0.0000)
 158 Li    17.274619    6.980000   12.467803    ( 0.0000,  0.0000,  0.0000)
 159 Li    14.806816    8.725000   12.467803    ( 0.0000,  0.0000,  0.0000)
 160 Li    19.742421    6.980000   14.935605    ( 0.0000,  0.0000,  0.0000)
 161 Li    17.274619    8.725000   14.935605    ( 0.0000,  0.0000,  0.0000)
 162 Li    17.274619    6.980000   17.403408    ( 0.0000,  0.0000,  0.0000)
 163 Li    19.742421    8.725000   17.403408    ( 0.0000,  0.0000,  0.0000)
 164 Li    19.742421    6.980000   19.871211    ( 0.0000,  0.0000,  0.0000)
 165 Li    17.274619    8.725000   19.871211    ( 0.0000,  0.0000,  0.0000)
 166 Li    14.806816   10.470000   10.000000    ( 0.0000,  0.0000,  0.0000)
 167 Li    17.274619   12.215000   10.000000    ( 0.0000,  0.0000,  0.0000)
 168 Li    17.274619   10.470000   12.467803    ( 0.0000,  0.0000,  0.0000)
 169 Li    14.806816   12.215000   12.467803    ( 0.0000,  0.0000,  0.0000)
 170 Li    19.742421   10.470000   14.935605    ( 0.0000,  0.0000,  0.0000)
 171 Li    17.274619   12.215000   14.935605    ( 0.0000,  0.0000,  0.0000)
 172 Li    17.274619   10.470000   17.403408    ( 0.0000,  0.0000,  0.0000)
 173 Li    19.742421   12.215000   17.403408    ( 0.0000,  0.0000,  0.0000)
 174 Li    19.742421   10.470000   19.871211    ( 0.0000,  0.0000,  0.0000)
 175 Li    17.274619   12.215000   19.871211    ( 0.0000,  0.0000,  0.0000)
 176 Li     2.467803    8.725000   24.339013    ( 0.0000,  0.0000,  0.0000)

Unit cell:
           periodic     x           y           z      points  spacing
  1. axis:    yes   19.742421    0.000000    0.000000   100     0.1974
  2. axis:    yes    0.000000   13.960000    0.000000    68     0.2053
  3. axis:    no     0.000000    0.000000   32.339013   160     0.2021

  Lengths:  19.742421  13.960000  32.339013
  Angles:   90.000000  90.000000  90.000000

Effective grid spacing dv^(1/3) = 0.2016

     iter     time        total  log10-change:
                         energy   eigst   dens
iter:   1 15:57:52  -326.998592        c
iter:   2 15:58:25  -316.694042        c -0.67
iter:   3 15:58:56  -314.636048        c -0.88
iter:   4 15:59:43  -313.505900        c -0.94
iter:   5 16:00:39  -311.311078        c -0.99
iter:   6 16:01:59  -310.584822        c -1.19
iter:   7 16:03:16  -310.257862        c -1.30
iter:   8 16:06:05  -310.049049        c -1.43
iter:   9 16:07:23  -309.968842        c -1.61
iter:  10 16:08:23  -309.946232        c -1.75
iter:  11 16:09:32  -309.926261c       c -1.81
iter:  12 16:10:51  -309.908256c       c -1.89
iter:  13 16:12:03  -309.899059c       c -2.00
iter:  14 16:13:15  -309.895511c       c -2.11
iter:  15 16:14:31  -309.894108c       c -2.19
iter:  16 16:16:58  -309.892468c       c -2.28
iter:  17 16:19:05  -309.892007c       c -2.35
iter:  18 16:20:57  -309.890554c       c -2.41
iter:  19 16:22:38  -309.889426c       c -2.48
iter:  20 16:24:29  -309.888963c       c -2.56
iter:  21 16:26:06  -309.888463c       c -2.63
iter:  22 16:27:14  -309.888499c       c -2.71
iter:  23 16:28:26  -309.888278c       c -2.79
iter:  24 16:29:41  -309.888093c       c -2.80
iter:  25 16:31:07  -309.887995c       c -2.91
iter:  26 16:32:32  -309.887833c       c -2.98
iter:  27 16:33:46  -309.887864c       c -3.05
iter:  28 16:35:02  -309.887818c       c -3.12
iter:  29 16:36:26  -309.887946c       c -3.21
iter:  30 16:37:42  -309.887910c       c -3.20
iter:  31 16:38:47  -309.887896c       c -3.30
iter:  32 16:39:59  -309.887888c       c -3.36
iter:  33 16:41:12  -309.887821c       c -3.43
iter:  34 16:42:26  -309.887810c       c -3.51
iter:  35 16:44:00  -309.887771c       c -3.60
iter:  36 16:45:27  -309.887776c       c -3.62
iter:  37 16:46:52  -309.887780c       c -3.67
iter:  38 16:48:13  -309.887779c       c -3.78
iter:  39 16:49:31  -309.887794c       c -3.88
iter:  40 16:50:45  -309.887787c       c -3.97
iter:  41 16:51:52  -309.887796c       c -4.07c

Converged after 41 iterations.

Dipole moment: (-31.199438, -19.720805, 0.689736) |e|*Ang

Energy contributions relative to reference atoms: (reference = -35893.444183)

Kinetic:       +316.762657
Potential:     -272.370025
External:        +0.000000
XC:            -349.220627
Entropy (-ST):   -5.782113
Local:           -2.168745
SIC:             +0.000000
--------------------------
Free energy:   -312.778853
Extrapolated:  -309.887796

Showing all kpts
 Kpt  Band  Eigenvalues  Occupancy
  0    86     -2.90854    1.15180
  0    87     -2.86253    0.99963
  0    88     -2.85791    0.98422
  0    89     -2.84812    0.95161

  1    86     -2.90854    1.15180
  1    87     -2.86253    0.99963
  1    88     -2.85791    0.98422
  1    89     -2.84812    0.95161


Fermi level: -2.86265

Gap: 0.046 eV
Transition (v -> c):
  (s=0, k=0, n=86, [0.25, -0.25, 0.00]) -> (s=0, k=1, n=87, [0.25, 0.25, 0.00])
Direct/indirect transitions are different
Direct gap: 0.046 eV
Transition at: (s=0, k=0, n=86, [0.25, -0.25, 0.00])

Forces in eV/Ang:
  0 Li   -0.00052   -0.00160    0.12615
  1 Li   -0.00341    0.00000    0.12399
  2 Li    0.00078    0.00020   -0.05909
  3 Li   -0.00015    0.00000   -0.06122
  4 Li   -0.00158    0.00078   -0.02054
  5 Li    0.00149    0.00000   -0.01843
  6 Li   -0.00818   -0.00186    0.01574
  7 Li    0.00798    0.00000    0.01788
  8 Li    0.00394   -0.00278    0.07485
  9 Li   -0.00559   -0.00000    0.07176
 10 Li   -0.01303   -0.00760   -0.11731
 11 Li   -0.09494    0.00000   -0.14064
 12 Li   -0.00052    0.00160    0.12615
 13 Li   -0.00323    0.00124    0.12403
 14 Li    0.00078   -0.00020   -0.05909
 15 Li    0.00058    0.00032   -0.05728
 16 Li   -0.00158   -0.00078   -0.02054
 17 Li    0.00187   -0.00439   -0.02020
 18 Li   -0.00818    0.00186    0.01574
 19 Li    0.00961   -0.00253    0.01256
 20 Li    0.00394    0.00278    0.07485
 21 Li   -0.00776    0.00655    0.06752
 22 Li   -0.01303    0.00760   -0.11731
 23 Li   -0.06588    0.02774   -0.09941
 24 Li   -0.00079    0.00038    0.12375
 25 Li   -0.00301   -0.00000    0.12117
 26 Li    0.00046    0.00080   -0.05374
 27 Li    0.00069    0.00000   -0.05551
 28 Li    0.00022   -0.00172   -0.01965
 29 Li    0.00158   -0.00000   -0.00834
 30 Li   -0.00585   -0.00836    0.01261
 31 Li    0.01475   -0.00000    0.01054
 32 Li    0.01465   -0.00463    0.04561
 33 Li   -0.00469   -0.00000    0.01317
 34 Li   -0.01648   -0.13953   -0.39010
 35 Li    0.02069   -0.00000   -0.04912
 36 Li   -0.00079   -0.00038    0.12375
 37 Li   -0.00323   -0.00124    0.12403
 38 Li    0.00046   -0.00080   -0.05374
 39 Li    0.00058   -0.00032   -0.05728
 40 Li    0.00022    0.00172   -0.01965
 41 Li    0.00187    0.00439   -0.02020
 42 Li   -0.00585    0.00836    0.01261
 43 Li    0.00961    0.00253    0.01256
 44 Li    0.01465    0.00463    0.04561
 45 Li   -0.00776   -0.00655    0.06752
 46 Li   -0.01648    0.13953   -0.39010
 47 Li   -0.06588   -0.02774   -0.09941
 48 Li    0.00207   -0.00160    0.12662
 49 Li    0.00208    0.00000    0.12557
 50 Li    0.00007    0.00035   -0.05900
 51 Li   -0.00046    0.00000   -0.06133
 52 Li    0.00462    0.00020   -0.00931
 53 Li    0.00202    0.00000   -0.01664
 54 Li   -0.00853   -0.00042    0.01493
 55 Li    0.00587   -0.00000    0.03562
 56 Li   -0.09201    0.00017   -0.01108
 57 Li   -0.06833   -0.00000   -0.02292
 58 Li    0.09234    0.00090   -0.14064
 59 Li    0.01540    0.00000   -0.12610
 60 Li    0.00207    0.00160    0.12662
 61 Li    0.00035    0.00095    0.12431
 62 Li    0.00007   -0.00035   -0.05900
 63 Li   -0.00104   -0.00012   -0.05921
 64 Li    0.00462   -0.00020   -0.00931
 65 Li    0.00201   -0.00045   -0.01786
 66 Li   -0.00853    0.00042    0.01493
 67 Li    0.00508   -0.00022    0.03608
 68 Li   -0.09201   -0.00017   -0.01108
 69 Li   -0.07125    0.00128   -0.02058
 70 Li    0.09234   -0.00090   -0.14064
 71 Li   -0.01556    0.02672   -0.08640
 72 Li    0.00212    0.00061    0.12447
 73 Li   -0.00048   -0.00000    0.12408
 74 Li   -0.00017    0.00032   -0.05890
 75 Li   -0.00144   -0.00000   -0.05612
 76 Li    0.00443    0.00005   -0.00886
 77 Li    0.00407   -0.00000   -0.01965
 78 Li   -0.00840   -0.00032    0.01409
 79 Li    0.00462   -0.00000    0.03618
 80 Li   -0.09320   -0.00029   -0.01109
 81 Li   -0.08124   -0.00000   -0.01503
 82 Li    0.08850    0.00335   -0.13404
 83 Li   -0.09477   -0.00000   -0.04895
 84 Li    0.00212   -0.00061    0.12447
 85 Li    0.00035   -0.00095    0.12431
 86 Li   -0.00017   -0.00032   -0.05890
 87 Li   -0.00104    0.00012   -0.05921
 88 Li    0.00443   -0.00005   -0.00886
 89 Li    0.00201    0.00045   -0.01786
 90 Li   -0.00840    0.00032    0.01409
 91 Li    0.00508    0.00022    0.03608
 92 Li   -0.09320    0.00029   -0.01109
 93 Li   -0.07125   -0.00128   -0.02058
 94 Li    0.08850   -0.00335   -0.13404
 95 Li   -0.01556   -0.02672   -0.08640
 96 Li    0.00079    0.00033    0.12389
 97 Li    0.00063   -0.00000    0.12246
 98 Li    0.00109    0.00008   -0.05835
 99 Li    0.00148   -0.00000   -0.05635
100 Li   -0.00410    0.00037   -0.00268
101 Li    0.00418    0.00000   -0.00293
102 Li   -0.00833   -0.00020    0.06312
103 Li    0.00834    0.00000    0.06395
104 Li    0.00867    0.00009   -0.11626
105 Li   -0.00902   -0.00000   -0.11584
106 Li    0.00079   -0.00033    0.12389
107 Li    0.00029   -0.00047    0.12348
108 Li    0.00109   -0.00008   -0.05835
109 Li    0.00176   -0.00041   -0.05618
110 Li   -0.00410   -0.00037   -0.00268
111 Li    0.00353   -0.00028   -0.00209
112 Li   -0.00833    0.00020    0.06312
113 Li    0.00808   -0.00018    0.06374
114 Li    0.00867   -0.00009   -0.11626
115 Li   -0.00907   -0.00039   -0.11587
116 Li   -0.00024    0.00011    0.12343
117 Li    0.00033   -0.00000    0.12412
118 Li    0.00126   -0.00006   -0.05884
119 Li    0.00157   -0.00000   -0.05649
120 Li   -0.00331    0.00034   -0.00227
121 Li    0.00359   -0.00000   -0.00195
122 Li   -0.00823    0.00002    0.06306
123 Li    0.00813   -0.00000    0.06363
124 Li    0.00962    0.00009   -0.11612
125 Li   -0.00906   -0.00000   -0.11600
126 Li   -0.00024   -0.00011    0.12343
127 Li    0.00029    0.00047    0.12348
128 Li    0.00126    0.00006   -0.05884
129 Li    0.00176    0.00041   -0.05618
130 Li   -0.00331   -0.00034   -0.00227
131 Li    0.00353    0.00028   -0.00209
132 Li   -0.00823   -0.00002    0.06306
133 Li    0.00808    0.00018    0.06374
134 Li    0.00962   -0.00009   -0.11612
135 Li   -0.00907    0.00039   -0.11587
136 Li   -0.00138    0.00049    0.12456
137 Li   -0.00011   -0.00000    0.12285
138 Li   -0.00157    0.00006   -0.05569
139 Li   -0.00135    0.00000   -0.05957
140 Li   -0.00273    0.00149   -0.01963
141 Li   -0.00348    0.00000   -0.00771
142 Li   -0.00501   -0.00024    0.03445
143 Li    0.00935    0.00000    0.01775
144 Li    0.07132   -0.00326   -0.02070
145 Li    0.09311    0.00000   -0.01079
146 Li   -0.00138   -0.00049    0.12456
147 Li    0.00169    0.00088    0.12214
148 Li   -0.00157   -0.00006   -0.05569
149 Li   -0.00140   -0.00027   -0.05947
150 Li   -0.00273   -0.00149   -0.01963
151 Li   -0.00444   -0.00068   -0.00960
152 Li   -0.00501    0.00024    0.03445
153 Li    0.00578   -0.00453    0.00951
154 Li    0.07132    0.00326   -0.02070
155 Li    0.09410   -0.00027   -0.01072
156 Li   -0.00021    0.00010    0.12415
157 Li    0.00227   -0.00000    0.12172
158 Li   -0.00135    0.00029   -0.05517
159 Li   -0.00149   -0.00000   -0.05999
160 Li   -0.00395   -0.00189   -0.01543
161 Li   -0.00711    0.00000   -0.01129
162 Li   -0.00534   -0.00051    0.03407
163 Li   -0.00011   -0.00000    0.01265
164 Li    0.06338   -0.00679   -0.05705
165 Li    0.10176   -0.00000   -0.00586
166 Li   -0.00021   -0.00010    0.12415
167 Li    0.00169   -0.00088    0.12214
168 Li   -0.00135   -0.00029   -0.05517
169 Li   -0.00140    0.00027   -0.05947
170 Li   -0.00395    0.00189   -0.01543
171 Li   -0.00444    0.00068   -0.00960
172 Li   -0.00534    0.00051    0.03407
173 Li    0.00578    0.00453    0.00951
174 Li    0.06338    0.00679   -0.05705
175 Li    0.09410    0.00027   -0.01072
176 Li    0.01107   -0.00000    0.41317

System changes: positions 

Initializing position-dependent things.

Density initialized from wave functions
          .------------------------------------------------.  
         /|                                                |  
        / |                                                |  
       /  |                                                |  
      /   |                                                |  
     /    |                                                |  
    /     |                                                |  
   /      |                                                |  
  /       |                                                |  
 *        |                                                |  
 |        |                                                |  
 |        |                                                |  
 |        |     Li                                         |  
 |        |  Li      Li                                   Li  
 |        |                                                |  
 |        Li  Li      Li  Li                               |  
 |     Li |        Li                                      |  
 |        | Li Li       Li Li          Li           Li     |  
 |      Li|     LLi Li      Li  Li       Li  Li      Li    |  
 |       Li  Li       Li Li          Li           Li       |  
 |    Li Li   Li  Li Li       Li Li       Li  Li   Li      |  
 |        Li  Li   Li  Li Li       Li Li       Li  Li      |  
 | Li     |     Li Li       Li Li       Li Li           Li |  
 |      Li| Li Li   Li  Li Li    Li Li Li    Li Li  Li     |  
 |  Li  Li|      Li Li   Li  Li Li    Li Li  Li            |  
 |       Li  Li       Li Li       Li Li       Li  Li       |  
 |Li Li  Li   Li  Li Li    Li Li Li    Li Li  Li           |  
 |        Li  Li       Li Li       Li Li       Li  Li      |  
 | Li  Li |    Li  Li       Li Li       Li Li              |  
 |      Li| Li Li    Li Li Li    Li Li Li    Li Li  Li     |  
 |  Li  Li|      Li Li       Li Li       Li  Li            |  
 Li      Li  Li       Li Li       Li LLi      Li  Li       |  
 |Li Li   |   Li  Li       Li Li       Li Li               |  
 |        Li           Li          Li          Li          |  
 | Li  Li |    Li  Li       Li  Li      Li  Li             |  
 |        |                                                |  
 |      Li|          Li          Li          Li            |  
 Li       |  Li          Li           Li                   |  
 |        |                                                |  
 |        |                                                |  
 |        .------------------------------------------------.  
 |       /                                                /   
 |      /                                                /    
 |     /                                                /     
 |    /                                                /      
 |   /                                                /       
 |  /                                                /        
 | /                                                /         
 |/                                                /          
 *------------------------------------------------*           

Atomic positions and initial magnetic moments

Positions:
   0 Li     0.000000    0.000000   10.000000    ( 0.0000,  0.0000,  0.0000)
   1 Li     2.467803    1.745000   10.000000    ( 0.0000,  0.0000,  0.0000)
   2 Li     2.467803    0.000000   12.467803    ( 0.0000,  0.0000,  0.0000)
   3 Li     0.000000    1.745000   12.467803    ( 0.0000,  0.0000,  0.0000)
   4 Li     4.935605    0.000000   14.935605    ( 0.0000,  0.0000,  0.0000)
   5 Li     2.467803    1.745000   14.935605    ( 0.0000,  0.0000,  0.0000)
   6 Li     2.467686   -0.000027   17.403633    ( 0.0000,  0.0000,  0.0000)
   7 Li     4.935719    1.745000   17.403663    ( 0.0000,  0.0000,  0.0000)
   8 Li     4.935662   -0.000040   19.872280    ( 0.0000,  0.0000,  0.0000)
   9 Li     2.467723    1.745000   19.872236    ( 0.0000,  0.0000,  0.0000)
  10 Li     2.467617   -0.000109   22.337337    ( 0.0000,  0.0000,  0.0000)
  11 Li    -0.001356    1.745000   22.337004    ( 0.0000,  0.0000,  0.0000)
  12 Li     0.000000    3.490000   10.000000    ( 0.0000,  0.0000,  0.0000)
  13 Li     2.467803    5.235000   10.000000    ( 0.0000,  0.0000,  0.0000)
  14 Li     2.467803    3.490000   12.467803    ( 0.0000,  0.0000,  0.0000)
  15 Li     0.000000    5.235000   12.467803    ( 0.0000,  0.0000,  0.0000)
  16 Li     4.935605    3.490000   14.935605    ( 0.0000,  0.0000,  0.0000)
  17 Li     2.467803    5.235000   14.935605    ( 0.0000,  0.0000,  0.0000)
  18 Li     2.467686    3.490027   17.403633    ( 0.0000,  0.0000,  0.0000)
  19 Li     4.935743    5.234964   17.403587    ( 0.0000,  0.0000,  0.0000)
  20 Li     4.935662    3.490040   19.872280    ( 0.0000,  0.0000,  0.0000)
  21 Li     2.467692    5.235094   19.872175    ( 0.0000,  0.0000,  0.0000)
  22 Li     2.467617    3.490109   22.337337    ( 0.0000,  0.0000,  0.0000)
  23 Li    -0.000941    5.235396   22.337593    ( 0.0000,  0.0000,  0.0000)
  24 Li     0.000000    6.980000   10.000000    ( 0.0000,  0.0000,  0.0000)
  25 Li     2.467803    8.725000   10.000000    ( 0.0000,  0.0000,  0.0000)
  26 Li     2.467803    6.980000   12.467803    ( 0.0000,  0.0000,  0.0000)
  27 Li     0.000000    8.725000   12.467803    ( 0.0000,  0.0000,  0.0000)
  28 Li     4.935605    6.980000   14.935605    ( 0.0000,  0.0000,  0.0000)
  29 Li     2.467803    8.725000   14.935605    ( 0.0000,  0.0000,  0.0000)
  30 Li     2.467719    6.979881   17.403588    ( 0.0000,  0.0000,  0.0000)
  31 Li     4.935816    8.725000   17.403559    ( 0.0000,  0.0000,  0.0000)
  32 Li     4.935815    6.979934   19.871862    ( 0.0000,  0.0000,  0.0000)
  33 Li     2.467736    8.725000   19.871399    ( 0.0000,  0.0000,  0.0000)
  34 Li     2.467567    6.978007   22.333440    ( 0.0000,  0.0000,  0.0000)
  35 Li     0.000296    8.725000   22.338312    ( 0.0000,  0.0000,  0.0000)
  36 Li     0.000000   10.470000   10.000000    ( 0.0000,  0.0000,  0.0000)
  37 Li     2.467803   12.215000   10.000000    ( 0.0000,  0.0000,  0.0000)
  38 Li     2.467803   10.470000   12.467803    ( 0.0000,  0.0000,  0.0000)
  39 Li     0.000000   12.215000   12.467803    ( 0.0000,  0.0000,  0.0000)
  40 Li     4.935605   10.470000   14.935605    ( 0.0000,  0.0000,  0.0000)
  41 Li     2.467803   12.215000   14.935605    ( 0.0000,  0.0000,  0.0000)
  42 Li     2.467719   10.470119   17.403588    ( 0.0000,  0.0000,  0.0000)
  43 Li     4.935743   12.215036   17.403587    ( 0.0000,  0.0000,  0.0000)
  44 Li     4.935815   10.470066   19.871862    ( 0.0000,  0.0000,  0.0000)
  45 Li     2.467692   12.214906   19.872175    ( 0.0000,  0.0000,  0.0000)
  46 Li     2.467567   10.471993   22.333440    ( 0.0000,  0.0000,  0.0000)
  47 Li    -0.000941   12.214604   22.337593    ( 0.0000,  0.0000,  0.0000)
  48 Li     4.935605    0.000000   10.000000    ( 0.0000,  0.0000,  0.0000)
  49 Li     7.403408    1.745000   10.000000    ( 0.0000,  0.0000,  0.0000)
  50 Li     7.403408    0.000000   12.467803    ( 0.0000,  0.0000,  0.0000)
  51 Li     4.935605    1.745000   12.467803    ( 0.0000,  0.0000,  0.0000)
  52 Li     9.871211    0.000000   14.935605    ( 0.0000,  0.0000,  0.0000)
  53 Li     7.403408    1.745000   14.935605    ( 0.0000,  0.0000,  0.0000)
  54 Li     7.403286   -0.000006   17.403621    ( 0.0000,  0.0000,  0.0000)
  55 Li     9.871294    1.745000   17.403917    ( 0.0000,  0.0000,  0.0000)
  56 Li     9.869896    0.000002   19.871052    ( 0.0000,  0.0000,  0.0000)
  57 Li     7.402432    1.745000   19.870883    ( 0.0000,  0.0000,  0.0000)
  58 Li     7.404727    0.000013   22.337004    ( 0.0000,  0.0000,  0.0000)
  59 Li     4.935825    1.745000   22.337212    ( 0.0000,  0.0000,  0.0000)
  60 Li     4.935605    3.490000   10.000000    ( 0.0000,  0.0000,  0.0000)
  61 Li     7.403408    5.235000   10.000000    ( 0.0000,  0.0000,  0.0000)
  62 Li     7.403408    3.490000   12.467803    ( 0.0000,  0.0000,  0.0000)
  63 Li     4.935605    5.235000   12.467803    ( 0.0000,  0.0000,  0.0000)
  64 Li     9.871211    3.490000   14.935605    ( 0.0000,  0.0000,  0.0000)
  65 Li     7.403408    5.235000   14.935605    ( 0.0000,  0.0000,  0.0000)
  66 Li     7.403286    3.490006   17.403621    ( 0.0000,  0.0000,  0.0000)
  67 Li     9.871283    5.234997   17.403923    ( 0.0000,  0.0000,  0.0000)
  68 Li     9.869896    3.489998   19.871052    ( 0.0000,  0.0000,  0.0000)
  69 Li     7.402390    5.235018   19.870917    ( 0.0000,  0.0000,  0.0000)
  70 Li     7.404727    3.489987   22.337004    ( 0.0000,  0.0000,  0.0000)
  71 Li     4.935383    5.235382   22.337779    ( 0.0000,  0.0000,  0.0000)
  72 Li     4.935605    6.980000   10.000000    ( 0.0000,  0.0000,  0.0000)
  73 Li     7.403408    8.725000   10.000000    ( 0.0000,  0.0000,  0.0000)
  74 Li     7.403408    6.980000   12.467803    ( 0.0000,  0.0000,  0.0000)
  75 Li     4.935605    8.725000   12.467803    ( 0.0000,  0.0000,  0.0000)
  76 Li     9.871211    6.980000   14.935605    ( 0.0000,  0.0000,  0.0000)
  77 Li     7.403408    8.725000   14.935605    ( 0.0000,  0.0000,  0.0000)
  78 Li     7.403288    6.979995   17.403609    ( 0.0000,  0.0000,  0.0000)
  79 Li     9.871277    8.725000   17.403925    ( 0.0000,  0.0000,  0.0000)
  80 Li     9.869879    6.979996   19.871052    ( 0.0000,  0.0000,  0.0000)
  81 Li     7.402247    8.725000   19.870996    ( 0.0000,  0.0000,  0.0000)
  82 Li     7.404672    6.980048   22.337098    ( 0.0000,  0.0000,  0.0000)
  83 Li     4.934251    8.725000   22.338314    ( 0.0000,  0.0000,  0.0000)
  84 Li     4.935605   10.470000   10.000000    ( 0.0000,  0.0000,  0.0000)
  85 Li     7.403408   12.215000   10.000000    ( 0.0000,  0.0000,  0.0000)
  86 Li     7.403408   10.470000   12.467803    ( 0.0000,  0.0000,  0.0000)
  87 Li     4.935605   12.215000   12.467803    ( 0.0000,  0.0000,  0.0000)
  88 Li     9.871211   10.470000   14.935605    ( 0.0000,  0.0000,  0.0000)
  89 Li     7.403408   12.215000   14.935605    ( 0.0000,  0.0000,  0.0000)
  90 Li     7.403288   10.470005   17.403609    ( 0.0000,  0.0000,  0.0000)
  91 Li     9.871283   12.215003   17.403923    ( 0.0000,  0.0000,  0.0000)
  92 Li     9.869879   10.470004   19.871052    ( 0.0000,  0.0000,  0.0000)
  93 Li     7.402390   12.214982   19.870917    ( 0.0000,  0.0000,  0.0000)
  94 Li     7.404672   10.469952   22.337098    ( 0.0000,  0.0000,  0.0000)
  95 Li     4.935383   12.214618   22.337779    ( 0.0000,  0.0000,  0.0000)
  96 Li     9.871211    0.000000   10.000000    ( 0.0000,  0.0000,  0.0000)
  97 Li    12.339013    1.745000   10.000000    ( 0.0000,  0.0000,  0.0000)
  98 Li    12.339013    0.000000   12.467803    ( 0.0000,  0.0000,  0.0000)
  99 Li     9.871211    1.745000   12.467803    ( 0.0000,  0.0000,  0.0000)
 100 Li    14.806816    0.000000   14.935605    ( 0.0000,  0.0000,  0.0000)
 101 Li    12.339013    1.745000   14.935605    ( 0.0000,  0.0000,  0.0000)
 102 Li    12.338894   -0.000003   17.404310    ( 0.0000,  0.0000,  0.0000)
 103 Li    14.806935    1.745000   17.404322    ( 0.0000,  0.0000,  0.0000)
 104 Li    14.806940    0.000001   19.869550    ( 0.0000,  0.0000,  0.0000)
 105 Li    12.338884    1.745000   19.869556    ( 0.0000,  0.0000,  0.0000)
 106 Li     9.871211    3.490000   10.000000    ( 0.0000,  0.0000,  0.0000)
 107 Li    12.339013    5.235000   10.000000    ( 0.0000,  0.0000,  0.0000)
 108 Li    12.339013    3.490000   12.467803    ( 0.0000,  0.0000,  0.0000)
 109 Li     9.871211    5.235000   12.467803    ( 0.0000,  0.0000,  0.0000)
 110 Li    14.806816    3.490000   14.935605    ( 0.0000,  0.0000,  0.0000)
 111 Li    12.339013    5.235000   14.935605    ( 0.0000,  0.0000,  0.0000)
 112 Li    12.338894    3.490003   17.404310    ( 0.0000,  0.0000,  0.0000)
 113 Li    14.806931    5.234997   17.404319    ( 0.0000,  0.0000,  0.0000)
 114 Li    14.806940    3.489999   19.869550    ( 0.0000,  0.0000,  0.0000)
 115 Li    12.338884    5.234994   19.869555    ( 0.0000,  0.0000,  0.0000)
 116 Li     9.871211    6.980000   10.000000    ( 0.0000,  0.0000,  0.0000)
 117 Li    12.339013    8.725000   10.000000    ( 0.0000,  0.0000,  0.0000)
 118 Li    12.339013    6.980000   12.467803    ( 0.0000,  0.0000,  0.0000)
 119 Li     9.871211    8.725000   12.467803    ( 0.0000,  0.0000,  0.0000)
 120 Li    14.806816    6.980000   14.935605    ( 0.0000,  0.0000,  0.0000)
 121 Li    12.339013    8.725000   14.935605    ( 0.0000,  0.0000,  0.0000)
 122 Li    12.338896    6.980000   17.404309    ( 0.0000,  0.0000,  0.0000)
 123 Li    14.806932    8.725000   17.404317    ( 0.0000,  0.0000,  0.0000)
 124 Li    14.806953    6.980001   19.869552    ( 0.0000,  0.0000,  0.0000)
 125 Li    12.338884    8.725000   19.869554    ( 0.0000,  0.0000,  0.0000)
 126 Li     9.871211   10.470000   10.000000    ( 0.0000,  0.0000,  0.0000)
 127 Li    12.339013   12.215000   10.000000    ( 0.0000,  0.0000,  0.0000)
 128 Li    12.339013   10.470000   12.467803    ( 0.0000,  0.0000,  0.0000)
 129 Li     9.871211   12.215000   12.467803    ( 0.0000,  0.0000,  0.0000)
 130 Li    14.806816   10.470000   14.935605    ( 0.0000,  0.0000,  0.0000)
 131 Li    12.339013   12.215000   14.935605    ( 0.0000,  0.0000,  0.0000)
 132 Li    12.338896   10.470000   17.404309    ( 0.0000,  0.0000,  0.0000)
 133 Li    14.806931   12.215003   17.404319    ( 0.0000,  0.0000,  0.0000)
 134 Li    14.806953   10.469999   19.869552    ( 0.0000,  0.0000,  0.0000)
 135 Li    12.338884   12.215006   19.869555    ( 0.0000,  0.0000,  0.0000)
 136 Li    14.806816    0.000000   10.000000    ( 0.0000,  0.0000,  0.0000)
 137 Li    17.274619    1.745000   10.000000    ( 0.0000,  0.0000,  0.0000)
 138 Li    17.274619    0.000000   12.467803    ( 0.0000,  0.0000,  0.0000)
 139 Li    14.806816    1.745000   12.467803    ( 0.0000,  0.0000,  0.0000)
 140 Li    19.742421    0.000000   14.935605    ( 0.0000,  0.0000,  0.0000)
 141 Li    17.274619    1.745000   14.935605    ( 0.0000,  0.0000,  0.0000)
 142 Li    17.274547   -0.000003   17.403900    ( 0.0000,  0.0000,  0.0000)
 143 Li    19.742555    1.745000   17.403662    ( 0.0000,  0.0000,  0.0000)
 144 Li    19.743440   -0.000047   19.870915    ( 0.0000,  0.0000,  0.0000)
 145 Li    17.275949    1.745000   19.871057    ( 0.0000,  0.0000,  0.0000)
 146 Li    14.806816    3.490000   10.000000    ( 0.0000,  0.0000,  0.0000)
 147 Li    17.274619    5.235000   10.000000    ( 0.0000,  0.0000,  0.0000)
 148 Li    17.274619    3.490000   12.467803    ( 0.0000,  0.0000,  0.0000)
 149 Li    14.806816    5.235000   12.467803    ( 0.0000,  0.0000,  0.0000)
 150 Li    19.742421    3.490000   14.935605    ( 0.0000,  0.0000,  0.0000)
 151 Li    17.274619    5.235000   14.935605    ( 0.0000,  0.0000,  0.0000)
 152 Li    17.274547    3.490003   17.403900    ( 0.0000,  0.0000,  0.0000)
 153 Li    19.742504    5.234935   17.403544    ( 0.0000,  0.0000,  0.0000)
 154 Li    19.743440    3.490047   19.870915    ( 0.0000,  0.0000,  0.0000)
 155 Li    17.275963    5.234996   19.871058    ( 0.0000,  0.0000,  0.0000)
 156 Li    14.806816    6.980000   10.000000    ( 0.0000,  0.0000,  0.0000)
 157 Li    17.274619    8.725000   10.000000    ( 0.0000,  0.0000,  0.0000)
 158 Li    17.274619    6.980000   12.467803    ( 0.0000,  0.0000,  0.0000)
 159 Li    14.806816    8.725000   12.467803    ( 0.0000,  0.0000,  0.0000)
 160 Li    19.742421    6.980000   14.935605    ( 0.0000,  0.0000,  0.0000)
 161 Li    17.274619    8.725000   14.935605    ( 0.0000,  0.0000,  0.0000)
 162 Li    17.274542    6.979993   17.403895    ( 0.0000,  0.0000,  0.0000)
 163 Li    19.742420    8.725000   17.403589    ( 0.0000,  0.0000,  0.0000)
 164 Li    19.743327    6.979903   19.870396    ( 0.0000,  0.0000,  0.0000)
 165 Li    17.276072    8.725000   19.871127    ( 0.0000,  0.0000,  0.0000)
 166 Li    14.806816   10.470000   10.000000    ( 0.0000,  0.0000,  0.0000)
 167 Li    17.274619   12.215000   10.000000    ( 0.0000,  0.0000,  0.0000)
 168 Li    17.274619   10.470000   12.467803    ( 0.0000,  0.0000,  0.0000)
 169 Li    14.806816   12.215000   12.467803    ( 0.0000,  0.0000,  0.0000)
 170 Li    19.742421   10.470000   14.935605    ( 0.0000,  0.0000,  0.0000)
 171 Li    17.274619   12.215000   14.935605    ( 0.0000,  0.0000,  0.0000)
 172 Li    17.274542   10.470007   17.403895    ( 0.0000,  0.0000,  0.0000)
 173 Li    19.742504   12.215065   17.403544    ( 0.0000,  0.0000,  0.0000)
 174 Li    19.743327   10.470097   19.870396    ( 0.0000,  0.0000,  0.0000)
 175 Li    17.275963   12.215004   19.871058    ( 0.0000,  0.0000,  0.0000)
 176 Li     2.467961    8.725000   24.344916    ( 0.0000,  0.0000,  0.0000)

Unit cell:
           periodic     x           y           z      points  spacing
  1. axis:    yes   19.742421    0.000000    0.000000   100     0.1974
  2. axis:    yes    0.000000   13.960000    0.000000    68     0.2053
  3. axis:    no     0.000000    0.000000   32.339013   160     0.2021

  Lengths:  19.742421  13.960000  32.339013
  Angles:   90.000000  90.000000  90.000000

Effective grid spacing dv^(1/3) = 0.2016

     iter     time        total  log10-change:
                         energy   eigst   dens
iter:   1 16:57:20  -309.903244        c
iter:   2 16:58:45  -309.903574        c -3.05
iter:   3 17:00:27  -309.903018c       c -2.87
iter:   4 17:02:08  -309.902896c       c -3.77
iter:   5 17:03:48  -309.902919c       c -4.04c

Converged after 5 iterations.

Dipole moment: (-31.233352, -19.717536, 0.695382) |e|*Ang

Energy contributions relative to reference atoms: (reference = -35893.444183)

Kinetic:       +316.812171
Potential:     -272.355712
External:        +0.000000
XC:            -349.252795
Entropy (-ST):   -5.781832
Local:           -2.215668
SIC:             +0.000000
--------------------------
Free energy:   -312.793835
Extrapolated:  -309.902919

Showing all kpts
 Kpt  Band  Eigenvalues  Occupancy
  0    86     -2.90752    1.15215
  0    87     -2.86145    0.99979
  0    88     -2.85683    0.98440
  0    89     -2.84695    0.95148

  1    86     -2.90752    1.15215
  1    87     -2.86145    0.99979
  1    88     -2.85683    0.98440
  1    89     -2.84695    0.95148


Fermi level: -2.86151

Gap: 0.046 eV
Transition (v -> c):
  (s=0, k=0, n=86, [0.25, -0.25, 0.00]) -> (s=0, k=0, n=87, [0.25, -0.25, 0.00])
No difference between direct/indirect transitions

Forces in eV/Ang:
  0 Li   -0.00037   -0.00162    0.12624
  1 Li   -0.00331    0.00000    0.12399
  2 Li    0.00070    0.00022   -0.05907
  3 Li   -0.00022   -0.00000   -0.06099
  4 Li   -0.00163    0.00084   -0.02026
  5 Li    0.00154    0.00000   -0.01820
  6 Li   -0.00790   -0.00177    0.01531
  7 Li    0.00771   -0.00000    0.01758
  8 Li    0.00332   -0.00303    0.07350
  9 Li   -0.00509   -0.00000    0.07020
 10 Li   -0.01369   -0.00768   -0.11650
 11 Li   -0.09376    0.00000   -0.13995
 12 Li   -0.00037    0.00162    0.12624
 13 Li   -0.00314    0.00126    0.12403
 14 Li    0.00070   -0.00022   -0.05907
 15 Li    0.00050    0.00032   -0.05710
 16 Li   -0.00163   -0.00084   -0.02026
 17 Li    0.00192   -0.00451   -0.02003
 18 Li   -0.00790    0.00177    0.01531
 19 Li    0.00941   -0.00261    0.01214
 20 Li    0.00332    0.00303    0.07350
 21 Li   -0.00717    0.00592    0.06521
 22 Li   -0.01369    0.00768   -0.11650
 23 Li   -0.06510    0.02727   -0.09939
 24 Li   -0.00065    0.00040    0.12383
 25 Li   -0.00294    0.00000    0.12118
 26 Li    0.00039    0.00080   -0.05380
 27 Li    0.00061   -0.00000   -0.05539
 28 Li    0.00018   -0.00180   -0.01944
 29 Li    0.00162   -0.00000   -0.00809
 30 Li   -0.00564   -0.00841    0.01225
 31 Li    0.01443    0.00000    0.01011
 32 Li    0.01374   -0.00446    0.04482
 33 Li   -0.00419   -0.00000    0.01097
 34 Li   -0.01692   -0.13054   -0.37854
 35 Li    0.02256    0.00000   -0.04903
 36 Li   -0.00065   -0.00040    0.12383
 37 Li   -0.00314   -0.00126    0.12403
 38 Li    0.00039   -0.00080   -0.05380
 39 Li    0.00050   -0.00032   -0.05710
 40 Li    0.00018    0.00180   -0.01944
 41 Li    0.00192    0.00451   -0.02003
 42 Li   -0.00564    0.00841    0.01225
 43 Li    0.00941    0.00261    0.01214
 44 Li    0.01374    0.00446    0.04482
 45 Li   -0.00717   -0.00592    0.06521
 46 Li   -0.01692    0.13054   -0.37854
 47 Li   -0.06510   -0.02727   -0.09939
 48 Li    0.00193   -0.00160    0.12660
 49 Li    0.00198   -0.00000    0.12555
 50 Li    0.00009    0.00033   -0.05881
 51 Li   -0.00047   -0.00000   -0.06128
 52 Li    0.00452    0.00018   -0.00905
 53 Li    0.00199   -0.00000   -0.01647
 54 Li   -0.00841   -0.00040    0.01418
 55 Li    0.00582   -0.00000    0.03455
 56 Li   -0.09083    0.00015   -0.01073
 57 Li   -0.06811   -0.00000   -0.02316
 58 Li    0.09110    0.00070   -0.14004
 59 Li    0.01590    0.00000   -0.12492
 60 Li    0.00193    0.00160    0.12660
 61 Li    0.00022    0.00094    0.12434
 62 Li    0.00009   -0.00033   -0.05881
 63 Li   -0.00103   -0.00012   -0.05921
 64 Li    0.00452   -0.00018   -0.00905
 65 Li    0.00205   -0.00049   -0.01781
 66 Li   -0.00841    0.00040    0.01418
 67 Li    0.00510   -0.00029    0.03496
 68 Li   -0.09083   -0.00015   -0.01073
 69 Li   -0.07080    0.00122   -0.02083
 70 Li    0.09110   -0.00070   -0.14004
 71 Li   -0.01436    0.02628   -0.08558
 72 Li    0.00197    0.00062    0.12448
 73 Li   -0.00064   -0.00000    0.12418
 74 Li   -0.00013    0.00035   -0.05872
 75 Li   -0.00141   -0.00000   -0.05615
 76 Li    0.00440    0.00006   -0.00867
 77 Li    0.00417   -0.00000   -0.01975
 78 Li   -0.00827   -0.00037    0.01346
 79 Li    0.00462   -0.00000    0.03511
 80 Li   -0.09210   -0.00029   -0.01068
 81 Li   -0.08088   -0.00000   -0.01514
 82 Li    0.08700    0.00366   -0.13366
 83 Li   -0.09405   -0.00000   -0.04786
 84 Li    0.00197   -0.00062    0.12448
 85 Li    0.00022   -0.00094    0.12434
 86 Li   -0.00013   -0.00035   -0.05872
 87 Li   -0.00103    0.00012   -0.05921
 88 Li    0.00440   -0.00006   -0.00867
 89 Li    0.00205    0.00049   -0.01781
 90 Li   -0.00827    0.00037    0.01346
 91 Li    0.00510    0.00029    0.03496
 92 Li   -0.09210    0.00029   -0.01068
 93 Li   -0.07080   -0.00122   -0.02083
 94 Li    0.08700   -0.00366   -0.13366
 95 Li   -0.01436   -0.02628   -0.08558
 96 Li    0.00094    0.00037    0.12376
 97 Li    0.00075   -0.00000    0.12214
 98 Li    0.00106    0.00005   -0.05827
 99 Li    0.00141   -0.00000   -0.05610
100 Li   -0.00384    0.00037   -0.00220
101 Li    0.00402    0.00000   -0.00239
102 Li   -0.00786   -0.00019    0.06112
103 Li    0.00786    0.00000    0.06196
104 Li    0.00910    0.00009   -0.11504
105 Li   -0.00942    0.00000   -0.11474
106 Li    0.00094   -0.00037    0.12376
107 Li    0.00041   -0.00053    0.12321
108 Li    0.00106   -0.00005   -0.05827
109 Li    0.00169   -0.00037   -0.05592
110 Li   -0.00384   -0.00037   -0.00220
111 Li    0.00337   -0.00025   -0.00164
112 Li   -0.00786    0.00019    0.06112
113 Li    0.00764   -0.00019    0.06178
114 Li    0.00910   -0.00009   -0.11504
115 Li   -0.00945   -0.00039   -0.11475
116 Li   -0.00013    0.00007    0.12341
117 Li    0.00047   -0.00000    0.12389
118 Li    0.00120   -0.00002   -0.05863
119 Li    0.00151    0.00000   -0.05621
120 Li   -0.00314    0.00034   -0.00184
121 Li    0.00343   -0.00000   -0.00152
122 Li   -0.00775    0.00001    0.06101
123 Li    0.00774    0.00000    0.06171
124 Li    0.01008    0.00011   -0.11490
125 Li   -0.00942   -0.00000   -0.11484
126 Li   -0.00013   -0.00007    0.12341
127 Li    0.00041    0.00053    0.12321
128 Li    0.00120    0.00002   -0.05863
129 Li    0.00169    0.00037   -0.05592
130 Li   -0.00314   -0.00034   -0.00184
131 Li    0.00337    0.00025   -0.00164
132 Li   -0.00775   -0.00001    0.06101
133 Li    0.00764    0.00019    0.06178
134 Li    0.01008   -0.00011   -0.11490
135 Li   -0.00945    0.00039   -0.11475
136 Li   -0.00154    0.00052    0.12430
137 Li   -0.00023   -0.00000    0.12284
138 Li   -0.00147    0.00006   -0.05539
139 Li   -0.00120    0.00000   -0.05944
140 Li   -0.00278    0.00156   -0.01964
141 Li   -0.00339   -0.00000   -0.00755
142 Li   -0.00498   -0.00025    0.03340
143 Li    0.00917    0.00000    0.01704
144 Li    0.07102   -0.00348   -0.02056
145 Li    0.09196   -0.00000   -0.01058
146 Li   -0.00154   -0.00052    0.12430
147 Li    0.00160    0.00091    0.12216
148 Li   -0.00147   -0.00006   -0.05539
149 Li   -0.00125   -0.00026   -0.05936
150 Li   -0.00278   -0.00156   -0.01964
151 Li   -0.00440   -0.00072   -0.00952
152 Li   -0.00498    0.00025    0.03340
153 Li    0.00558   -0.00453    0.00866
154 Li    0.07102    0.00348   -0.02056
155 Li    0.09292   -0.00030   -0.01030
156 Li   -0.00029    0.00008    0.12398
157 Li    0.00222   -0.00000    0.12176
158 Li   -0.00127    0.00030   -0.05490
159 Li   -0.00135   -0.00000   -0.05987
160 Li   -0.00400   -0.00197   -0.01540
161 Li   -0.00712   -0.00000   -0.01123
162 Li   -0.00534   -0.00052    0.03304
163 Li   -0.00024    0.00000    0.01163
164 Li    0.06331   -0.00651   -0.05612
165 Li    0.10076   -0.00000   -0.00513
166 Li   -0.00029   -0.00008    0.12398
167 Li    0.00160   -0.00091    0.12216
168 Li   -0.00127   -0.00030   -0.05490
169 Li   -0.00125    0.00026   -0.05936
170 Li   -0.00400    0.00197   -0.01540
171 Li   -0.00440    0.00072   -0.00952
172 Li   -0.00534    0.00052    0.03304
173 Li    0.00558    0.00453    0.00866
174 Li    0.06331    0.00651   -0.05612
175 Li    0.09292    0.00030   -0.01030
176 Li    0.01086    0.00000    0.39426

System changes: positions 

Initializing position-dependent things.

Density initialized from wave functions
          .------------------------------------------------.  
         /|                                                |  
        / |                                                |  
       /  |                                                |  
      /   |                                                |  
     /    |                                                |  
    /     |                                                |  
   /      |                                                |  
  /       |                                                |  
 *        |                                                |  
 |        |                                                |  
 |        |                                                |  
 |        |     Li                                         |  
 |        |  Li                                            |  
 |        |          Li                                   Li  
 |        Li  Li      Li  Li                               |  
 |     Li |        Li                                      |  
 |        | Li Li       Li Li          Li           Li     |  
 |      Li|     LLi Li      Li  Li       Li  Li      Li    |  
 |       Li  Li       Li Li          Li           Li       |  
 |    Li Li   Li  Li Li       Li Li       Li  Li   Li      |  
 |        Li  Li   Li  Li Li       Li Li       Li  Li      |  
 | Li     |     Li Li       Li Li       Li Li           Li |  
 |      Li| Li Li   Li  Li Li    Li Li Li    Li Li  Li     |  
 |  Li  Li|      Li Li   Li  Li Li    Li Li  Li            |  
 |       Li  Li       Li Li       Li Li       Li  Li       |  
 |Li Li  Li   Li  Li Li    Li Li Li    Li Li  Li           |  
 |        Li  Li       Li Li       Li Li       Li  Li      |  
 | Li  Li |    Li  Li       Li Li       Li Li              |  
 |      Li| Li Li    Li Li Li    Li Li Li    Li Li  Li     |  
 |  Li  Li|      Li Li       Li Li       Li  Li            |  
 Li      Li  Li       Li Li       Li LLi      Li  Li       |  
 |Li Li   |   Li  Li       Li Li       Li Li               |  
 |        Li           Li          Li          Li          |  
 | Li  Li |    Li  Li       Li  Li      Li  Li             |  
 |        |                                                |  
 |      Li|          Li          Li          Li            |  
 Li       |  Li          Li           Li                   |  
 |        |                                                |  
 |        |                                                |  
 |        .------------------------------------------------.  
 |       /                                                /   
 |      /                                                /    
 |     /                                                /     
 |    /                                                /      
 |   /                                                /       
 |  /                                                /        
 | /                                                /         
 |/                                                /          
 *------------------------------------------------*           

Atomic positions and initial magnetic moments

Positions:
   0 Li     0.000000    0.000000   10.000000    ( 0.0000,  0.0000,  0.0000)
   1 Li     2.467803    1.745000   10.000000    ( 0.0000,  0.0000,  0.0000)
   2 Li     2.467803    0.000000   12.467803    ( 0.0000,  0.0000,  0.0000)
   3 Li     0.000000    1.745000   12.467803    ( 0.0000,  0.0000,  0.0000)
   4 Li     4.935605    0.000000   14.935605    ( 0.0000,  0.0000,  0.0000)
   5 Li     2.467803    1.745000   14.935605    ( 0.0000,  0.0000,  0.0000)
   6 Li     2.463742   -0.000909   17.411273    ( 0.0000,  0.0000,  0.0000)
   7 Li     4.939569    1.745000   17.412435    ( 0.0000,  0.0000,  0.0000)
   8 Li     4.937322   -0.001548   19.908950    ( 0.0000,  0.0000,  0.0000)
   9 Li     2.465180    1.745000   19.907261    ( 0.0000,  0.0000,  0.0000)
  10 Li     2.460789   -0.003939   22.279220    ( 0.0000,  0.0000,  0.0000)
  11 Li    -0.048136    1.745000   22.267188    ( 0.0000,  0.0000,  0.0000)
  12 Li     0.000000    3.490000   10.000000    ( 0.0000,  0.0000,  0.0000)
  13 Li     2.467803    5.235000   10.000000    ( 0.0000,  0.0000,  0.0000)
  14 Li     2.467803    3.490000   12.467803    ( 0.0000,  0.0000,  0.0000)
  15 Li     0.000000    5.235000   12.467803    ( 0.0000,  0.0000,  0.0000)
  16 Li     4.935605    3.490000   14.935605    ( 0.0000,  0.0000,  0.0000)
  17 Li     2.467803    5.235000   14.935605    ( 0.0000,  0.0000,  0.0000)
  18 Li     2.463742    3.490909   17.411273    ( 0.0000,  0.0000,  0.0000)
  19 Li     4.940440    5.233662   17.409646    ( 0.0000,  0.0000,  0.0000)
  20 Li     4.937322    3.491548   19.908950    ( 0.0000,  0.0000,  0.0000)
  21 Li     2.464110    5.238051   19.904720    ( 0.0000,  0.0000,  0.0000)
  22 Li     2.460789    3.493939   22.279220    ( 0.0000,  0.0000,  0.0000)
  23 Li    -0.033420    5.249002   22.288013    ( 0.0000,  0.0000,  0.0000)
  24 Li     0.000000    6.980000   10.000000    ( 0.0000,  0.0000,  0.0000)
  25 Li     2.467803    8.725000   10.000000    ( 0.0000,  0.0000,  0.0000)
  26 Li     2.467803    6.980000   12.467803    ( 0.0000,  0.0000,  0.0000)
  27 Li     0.000000    8.725000   12.467803    ( 0.0000,  0.0000,  0.0000)
  28 Li     4.935605    6.980000   14.935605    ( 0.0000,  0.0000,  0.0000)
  29 Li     2.467803    8.725000   14.935605    ( 0.0000,  0.0000,  0.0000)
  30 Li     2.464904    6.975687   17.409700    ( 0.0000,  0.0000,  0.0000)
  31 Li     4.943018    8.725000   17.408605    ( 0.0000,  0.0000,  0.0000)
  32 Li     4.942674    6.977709   19.894223    ( 0.0000,  0.0000,  0.0000)
  33 Li     2.465642    8.725000   19.876883    ( 0.0000,  0.0000,  0.0000)
  34 Li     2.459130    6.912834   22.144545    ( 0.0000,  0.0000,  0.0000)
  35 Li     0.011540    8.725000   22.313851    ( 0.0000,  0.0000,  0.0000)
  36 Li     0.000000   10.470000   10.000000    ( 0.0000,  0.0000,  0.0000)
  37 Li     2.467803   12.215000   10.000000    ( 0.0000,  0.0000,  0.0000)
  38 Li     2.467803   10.470000   12.467803    ( 0.0000,  0.0000,  0.0000)
  39 Li     0.000000   12.215000   12.467803    ( 0.0000,  0.0000,  0.0000)
  40 Li     4.935605   10.470000   14.935605    ( 0.0000,  0.0000,  0.0000)
  41 Li     2.467803   12.215000   14.935605    ( 0.0000,  0.0000,  0.0000)
  42 Li     2.464904   10.474313   17.409700    ( 0.0000,  0.0000,  0.0000)
  43 Li     4.940440   12.216338   17.409646    ( 0.0000,  0.0000,  0.0000)
  44 Li     4.942674   10.472291   19.894223    ( 0.0000,  0.0000,  0.0000)
  45 Li     2.464110   12.211949   19.904720    ( 0.0000,  0.0000,  0.0000)
  46 Li     2.459130   10.537166   22.144545    ( 0.0000,  0.0000,  0.0000)
  47 Li    -0.033420   12.200998   22.288013    ( 0.0000,  0.0000,  0.0000)
  48 Li     4.935605    0.000000   10.000000    ( 0.0000,  0.0000,  0.0000)
  49 Li     7.403408    1.745000   10.000000    ( 0.0000,  0.0000,  0.0000)
  50 Li     7.403408    0.000000   12.467803    ( 0.0000,  0.0000,  0.0000)
  51 Li     4.935605    1.745000   12.467803    ( 0.0000,  0.0000,  0.0000)
  52 Li     9.871211    0.000000   14.935605    ( 0.0000,  0.0000,  0.0000)
  53 Li     7.403408    1.745000   14.935605    ( 0.0000,  0.0000,  0.0000)
  54 Li     7.399089   -0.000208   17.410700    ( 0.0000,  0.0000,  0.0000)
  55 Li     9.874197    1.745000   17.421157    ( 0.0000,  0.0000,  0.0000)
  56 Li     9.824581    0.000079   19.865696    ( 0.0000,  0.0000,  0.0000)
  57 Li     7.368457    1.745000   19.859329    ( 0.0000,  0.0000,  0.0000)
  58 Li     7.450179    0.000361   22.267143    ( 0.0000,  0.0000,  0.0000)
  59 Li     4.943753    1.745000   22.274891    ( 0.0000,  0.0000,  0.0000)
  60 Li     4.935605    3.490000   10.000000    ( 0.0000,  0.0000,  0.0000)
  61 Li     7.403408    5.235000   10.000000    ( 0.0000,  0.0000,  0.0000)
  62 Li     7.403408    3.490000   12.467803    ( 0.0000,  0.0000,  0.0000)
  63 Li     4.935605    5.235000   12.467803    ( 0.0000,  0.0000,  0.0000)
  64 Li     9.871211    3.490000   14.935605    ( 0.0000,  0.0000,  0.0000)
  65 Li     7.403408    5.235000   14.935605    ( 0.0000,  0.0000,  0.0000)
  66 Li     7.399089    3.490208   17.410700    ( 0.0000,  0.0000,  0.0000)
  67 Li     9.873826    5.234854   17.421371    ( 0.0000,  0.0000,  0.0000)
  68 Li     9.824581    3.489921   19.865696    ( 0.0000,  0.0000,  0.0000)
  69 Li     7.367069    5.235629   19.860529    ( 0.0000,  0.0000,  0.0000)
  70 Li     7.450179    3.489639   22.267143    ( 0.0000,  0.0000,  0.0000)
  71 Li     4.928211    5.248495   22.295085    ( 0.0000,  0.0000,  0.0000)
  72 Li     4.935605    6.980000   10.000000    ( 0.0000,  0.0000,  0.0000)
  73 Li     7.403408    8.725000   10.000000    ( 0.0000,  0.0000,  0.0000)
  74 Li     7.403408    6.980000   12.467803    ( 0.0000,  0.0000,  0.0000)
  75 Li     4.935605    8.725000   12.467803    ( 0.0000,  0.0000,  0.0000)
  76 Li     9.871211    6.980000   14.935605    ( 0.0000,  0.0000,  0.0000)
  77 Li     7.403408    8.725000   14.935605    ( 0.0000,  0.0000,  0.0000)
  78 Li     7.399162    6.979811   17.410325    ( 0.0000,  0.0000,  0.0000)
  79 Li     9.873580    8.725000   17.421445    ( 0.0000,  0.0000,  0.0000)
  80 Li     9.823933    6.979849   19.865720    ( 0.0000,  0.0000,  0.0000)
  81 Li     7.361901    8.725000   19.863446    ( 0.0000,  0.0000,  0.0000)
  82 Li     7.448079    6.981873   22.270423    ( 0.0000,  0.0000,  0.0000)
  83 Li     4.887334    8.725000   22.314434    ( 0.0000,  0.0000,  0.0000)
  84 Li     4.935605   10.470000   10.000000    ( 0.0000,  0.0000,  0.0000)
  85 Li     7.403408   12.215000   10.000000    ( 0.0000,  0.0000,  0.0000)
  86 Li     7.403408   10.470000   12.467803    ( 0.0000,  0.0000,  0.0000)
  87 Li     4.935605   12.215000   12.467803    ( 0.0000,  0.0000,  0.0000)
  88 Li     9.871211   10.470000   14.935605    ( 0.0000,  0.0000,  0.0000)
  89 Li     7.403408   12.215000   14.935605    ( 0.0000,  0.0000,  0.0000)
  90 Li     7.399162   10.470189   17.410325    ( 0.0000,  0.0000,  0.0000)
  91 Li     9.873826   12.215146   17.421371    ( 0.0000,  0.0000,  0.0000)
  92 Li     9.823933   10.470151   19.865720    ( 0.0000,  0.0000,  0.0000)
  93 Li     7.367069   12.214371   19.860529    ( 0.0000,  0.0000,  0.0000)
  94 Li     7.448079   10.468127   22.270423    ( 0.0000,  0.0000,  0.0000)
  95 Li     4.928211   12.201505   22.295085    ( 0.0000,  0.0000,  0.0000)
  96 Li     9.871211    0.000000   10.000000    ( 0.0000,  0.0000,  0.0000)
  97 Li    12.339013    1.745000   10.000000    ( 0.0000,  0.0000,  0.0000)
  98 Li    12.339013    0.000000   12.467803    ( 0.0000,  0.0000,  0.0000)
  99 Li     9.871211    1.745000   12.467803    ( 0.0000,  0.0000,  0.0000)
 100 Li    14.806816    0.000000   14.935605    ( 0.0000,  0.0000,  0.0000)
 101 Li    12.339013    1.745000   14.935605    ( 0.0000,  0.0000,  0.0000)
 102 Li    12.334970   -0.000098   17.434810    ( 0.0000,  0.0000,  0.0000)
 103 Li    14.810858    1.745000   17.435239    ( 0.0000,  0.0000,  0.0000)
 104 Li    14.811478    0.000045   19.812159    ( 0.0000,  0.0000,  0.0000)
 105 Li    12.334188    1.745000   19.812313    ( 0.0000,  0.0000,  0.0000)
 106 Li     9.871211    3.490000   10.000000    ( 0.0000,  0.0000,  0.0000)
 107 Li    12.339013    5.235000   10.000000    ( 0.0000,  0.0000,  0.0000)
 108 Li    12.339013    3.490000   12.467803    ( 0.0000,  0.0000,  0.0000)
 109 Li     9.871211    5.235000   12.467803    ( 0.0000,  0.0000,  0.0000)
 110 Li    14.806816    3.490000   14.935605    ( 0.0000,  0.0000,  0.0000)
 111 Li    12.339013    5.235000   14.935605    ( 0.0000,  0.0000,  0.0000)
 112 Li    12.334970    3.490098   17.434810    ( 0.0000,  0.0000,  0.0000)
 113 Li    14.810745    5.234904   17.435149    ( 0.0000,  0.0000,  0.0000)
 114 Li    14.811478    3.489955   19.812159    ( 0.0000,  0.0000,  0.0000)
 115 Li    12.334173    5.234801   19.812306    ( 0.0000,  0.0000,  0.0000)
 116 Li     9.871211    6.980000   10.000000    ( 0.0000,  0.0000,  0.0000)
 117 Li    12.339013    8.725000   10.000000    ( 0.0000,  0.0000,  0.0000)
 118 Li    12.339013    6.980000   12.467803    ( 0.0000,  0.0000,  0.0000)
 119 Li     9.871211    8.725000   12.467803    ( 0.0000,  0.0000,  0.0000)
 120 Li    14.806816    6.980000   14.935605    ( 0.0000,  0.0000,  0.0000)
 121 Li    12.339013    8.725000   14.935605    ( 0.0000,  0.0000,  0.0000)
 122 Li    12.335029    6.980003   17.434752    ( 0.0000,  0.0000,  0.0000)
 123 Li    14.810795    8.725000   17.435112    ( 0.0000,  0.0000,  0.0000)
 124 Li    14.811980    6.980055   19.812227    ( 0.0000,  0.0000,  0.0000)
 125 Li    12.334188    8.725000   19.812261    ( 0.0000,  0.0000,  0.0000)
 126 Li     9.871211   10.470000   10.000000    ( 0.0000,  0.0000,  0.0000)
 127 Li    12.339013   12.215000   10.000000    ( 0.0000,  0.0000,  0.0000)
 128 Li    12.339013   10.470000   12.467803    ( 0.0000,  0.0000,  0.0000)
 129 Li     9.871211   12.215000   12.467803    ( 0.0000,  0.0000,  0.0000)
 130 Li    14.806816   10.470000   14.935605    ( 0.0000,  0.0000,  0.0000)
 131 Li    12.339013   12.215000   14.935605    ( 0.0000,  0.0000,  0.0000)
 132 Li    12.335029   10.469997   17.434752    ( 0.0000,  0.0000,  0.0000)
 133 Li    14.810745   12.215096   17.435149    ( 0.0000,  0.0000,  0.0000)
 134 Li    14.811980   10.469945   19.812227    ( 0.0000,  0.0000,  0.0000)
 135 Li    12.334173   12.215199   19.812306    ( 0.0000,  0.0000,  0.0000)
 136 Li    14.806816    0.000000   10.000000    ( 0.0000,  0.0000,  0.0000)
 137 Li    17.274619    1.745000   10.000000    ( 0.0000,  0.0000,  0.0000)
 138 Li    17.274619    0.000000   12.467803    ( 0.0000,  0.0000,  0.0000)
 139 Li    14.806816    1.745000   12.467803    ( 0.0000,  0.0000,  0.0000)
 140 Li    19.742421    0.000000   14.935605    ( 0.0000,  0.0000,  0.0000)
 141 Li    17.274619    1.745000   14.935605    ( 0.0000,  0.0000,  0.0000)
 142 Li    17.272061   -0.000129   17.420566    ( 0.0000,  0.0000,  0.0000)
 143 Li    19.747130    1.745000   17.412167    ( 0.0000,  0.0000,  0.0000)
 144 Li    19.778870   -0.001780   19.860659    ( 0.0000,  0.0000,  0.0000)
 145 Li    17.321827    1.745000   19.865778    ( 0.0000,  0.0000,  0.0000)
 146 Li    14.806816    3.490000   10.000000    ( 0.0000,  0.0000,  0.0000)
 147 Li    17.274619    5.235000   10.000000    ( 0.0000,  0.0000,  0.0000)
 148 Li    17.274619    3.490000   12.467803    ( 0.0000,  0.0000,  0.0000)
 149 Li    14.806816    5.235000   12.467803    ( 0.0000,  0.0000,  0.0000)
 150 Li    19.742421    3.490000   14.935605    ( 0.0000,  0.0000,  0.0000)
 151 Li    17.274619    5.235000   14.935605    ( 0.0000,  0.0000,  0.0000)
 152 Li    17.272061    3.490129   17.420566    ( 0.0000,  0.0000,  0.0000)
 153 Li    19.745288    5.232675   17.407867    ( 0.0000,  0.0000,  0.0000)
 154 Li    19.778870    3.491780   19.860659    ( 0.0000,  0.0000,  0.0000)
 155 Li    17.322323    5.234846   19.865915    ( 0.0000,  0.0000,  0.0000)
 156 Li    14.806816    6.980000   10.000000    ( 0.0000,  0.0000,  0.0000)
 157 Li    17.274619    8.725000   10.000000    ( 0.0000,  0.0000,  0.0000)
 158 Li    17.274619    6.980000   12.467803    ( 0.0000,  0.0000,  0.0000)
 159 Li    14.806816    8.725000   12.467803    ( 0.0000,  0.0000,  0.0000)
 160 Li    19.742421    6.980000   14.935605    ( 0.0000,  0.0000,  0.0000)
 161 Li    17.274619    8.725000   14.935605    ( 0.0000,  0.0000,  0.0000)
 162 Li    17.271877    6.979732   17.420380    ( 0.0000,  0.0000,  0.0000)
 163 Li    19.742302    8.725000   17.409397    ( 0.0000,  0.0000,  0.0000)
 164 Li    19.774911    6.976654   19.842397    ( 0.0000,  0.0000,  0.0000)
 165 Li    17.326340    8.725000   19.868565    ( 0.0000,  0.0000,  0.0000)
 166 Li    14.806816   10.470000   10.000000    ( 0.0000,  0.0000,  0.0000)
 167 Li    17.274619   12.215000   10.000000    ( 0.0000,  0.0000,  0.0000)
 168 Li    17.274619   10.470000   12.467803    ( 0.0000,  0.0000,  0.0000)
 169 Li    14.806816   12.215000   12.467803    ( 0.0000,  0.0000,  0.0000)
 170 Li    19.742421   10.470000   14.935605    ( 0.0000,  0.0000,  0.0000)
 171 Li    17.274619   12.215000   14.935605    ( 0.0000,  0.0000,  0.0000)
 172 Li    17.271877   10.470268   17.420380    ( 0.0000,  0.0000,  0.0000)
 173 Li    19.745288   12.217325   17.407867    ( 0.0000,  0.0000,  0.0000)
 174 Li    19.774911   10.473346   19.842397    ( 0.0000,  0.0000,  0.0000)
 175 Li    17.322323   12.215154   19.865915    ( 0.0000,  0.0000,  0.0000)
 176 Li     2.473380    8.725000   24.541695    ( 0.0000,  0.0000,  0.0000)

Unit cell:
           periodic     x           y           z      points  spacing
  1. axis:    yes   19.742421    0.000000    0.000000   100     0.1974
  2. axis:    yes    0.000000   13.960000    0.000000    68     0.2053
  3. axis:    no     0.000000    0.000000   32.339013   160     0.2021

  Lengths:  19.742421  13.960000  32.339013
  Angles:   90.000000  90.000000  90.000000

Effective grid spacing dv^(1/3) = 0.2016

     iter     time        total  log10-change:
                         energy   eigst   dens
iter:   1 17:10:42  -310.355229        c
iter:   2 17:12:09  -310.455971        c -1.59
iter:   3 17:13:35  -310.204470        c -1.49
iter:   4 17:14:49  -310.184907        c -2.20
iter:   5 17:16:00  -310.182460c       c -2.53
iter:   6 17:17:08  -310.181382c       c -2.65
iter:   7 17:18:20  -310.180875c       c -2.84
iter:   8 17:19:37  -310.180326c       c -2.92
iter:   9 17:21:44  -310.179728c       c -3.02
iter:  10 17:23:18  -310.179585c       c -3.04
iter:  11 17:25:01  -310.179289c       c -3.16
iter:  12 17:26:32  -310.179255c       c -3.32
iter:  13 17:28:09  -310.179173c       c -3.44
iter:  14 17:29:32  -310.179205c       c -3.54
iter:  15 17:30:39  -310.179203c       c -3.66
iter:  16 17:31:39  -310.179198c       c -3.75
iter:  17 17:32:32  -310.179199c       c -3.75
iter:  18 17:33:31  -310.179179c       c -3.90
iter:  19 17:34:35  -310.179189c       c -4.01c

Converged after 19 iterations.

Dipole moment: (-32.302664, -19.582339, 0.833448) |e|*Ang

Energy contributions relative to reference atoms: (reference = -35893.444183)

Kinetic:       +317.946510
Potential:     -272.913321
External:        +0.000000
XC:            -350.103514
Entropy (-ST):   -5.771806
Local:           -2.222961
SIC:             +0.000000
--------------------------
Free energy:   -313.065092
Extrapolated:  -310.179189

Showing all kpts
 Kpt  Band  Eigenvalues  Occupancy
  0    86     -2.88292    1.16074
  0    87     -2.83700    1.00907
  0    88     -2.83105    0.98922
  0    89     -2.81925    0.94993

  1    86     -2.88292    1.16074
  1    87     -2.83700    1.00907
  1    88     -2.83105    0.98922
  1    89     -2.81925    0.94993


Fermi level: -2.83428

Gap: 0.006 eV
Transition (v -> c):
  (s=0, k=0, n=87, [0.25, -0.25, 0.00]) -> (s=0, k=0, n=88, [0.25, -0.25, 0.00])
No difference between direct/indirect transitions

Forces in eV/Ang:
  0 Li   -0.00067   -0.00145    0.12684
  1 Li   -0.00383    0.00000    0.12460
  2 Li    0.00048    0.00059   -0.06028
  3 Li   -0.00068   -0.00000   -0.06106
  4 Li   -0.00239    0.00145   -0.01670
  5 Li    0.00242   -0.00000   -0.01396
  6 Li    0.00102    0.00016    0.02417
  7 Li   -0.00230    0.00000    0.02904
  8 Li   -0.02456   -0.01135   -0.00069
  9 Li    0.02009   -0.00000   -0.01042
 10 Li   -0.02827    0.00368   -0.06034
 11 Li   -0.05352   -0.00000   -0.09548
 12 Li   -0.00067    0.00145    0.12684
 13 Li   -0.00368    0.00111    0.12464
 14 Li    0.00048   -0.00059   -0.06028
 15 Li   -0.00011    0.00028   -0.05683
 16 Li   -0.00239   -0.00145   -0.01670
 17 Li    0.00305   -0.00524   -0.01754
 18 Li    0.00102   -0.00016    0.02417
 19 Li    0.00208   -0.00423    0.01836
 20 Li   -0.02456    0.01135   -0.00069
 21 Li    0.02155   -0.05070   -0.09248
 22 Li   -0.02827   -0.00368   -0.06034
 23 Li   -0.05018    0.00910   -0.08070
 24 Li   -0.00081    0.00034    0.12473
 25 Li   -0.00366   -0.00000    0.12192
 26 Li    0.00040    0.00088   -0.05371
 27 Li    0.00022    0.00000   -0.05452
 28 Li   -0.00097   -0.00240   -0.01599
 29 Li    0.00283    0.00000   -0.00166
 30 Li    0.00102   -0.00889    0.01686
 31 Li    0.00365   -0.00000    0.01218
 32 Li   -0.02032    0.00304   -0.01220
 33 Li    0.02020   -0.00000   -0.10084
 34 Li   -0.03019    0.12051    0.06261
 35 Li    0.06428    0.00000   -0.04342
 36 Li   -0.00081   -0.00034    0.12473
 37 Li   -0.00368   -0.00111    0.12464
 38 Li    0.00040   -0.00088   -0.05371
 39 Li   -0.00011   -0.00028   -0.05683
 40 Li   -0.00097    0.00240   -0.01599
 41 Li    0.00305    0.00524   -0.01754
 42 Li    0.00102    0.00889    0.01686
 43 Li    0.00208    0.00423    0.01836
 44 Li   -0.02032   -0.00304   -0.01220
 45 Li    0.02155    0.05070   -0.09248
 46 Li   -0.03019   -0.12051    0.06261
 47 Li   -0.05018   -0.00910   -0.08070
 48 Li    0.00253   -0.00157    0.12724
 49 Li    0.00197    0.00000    0.12647
 50 Li    0.00059    0.00039   -0.05906
 51 Li   -0.00031    0.00000   -0.06200
 52 Li    0.00425    0.00028    0.00161
 53 Li    0.00147    0.00000   -0.01129
 54 Li   -0.00135   -0.00030   -0.00084
 55 Li   -0.00276    0.00000    0.00501
 56 Li   -0.04690    0.00049   -0.00440
 57 Li   -0.05300    0.00000   -0.04594
 58 Li    0.04779   -0.00433   -0.09589
 59 Li    0.02656   -0.00000   -0.05453
 60 Li    0.00253    0.00157    0.12724
 61 Li    0.00028    0.00082    0.12508
 62 Li    0.00059   -0.00039   -0.05906
 63 Li   -0.00076   -0.00023   -0.05964
 64 Li    0.00425   -0.00028    0.00161
 65 Li    0.00234   -0.00016   -0.01372
 66 Li   -0.00135    0.00030   -0.00084
 67 Li   -0.00140   -0.00014    0.00427
 68 Li   -0.04690   -0.00049   -0.00440
 69 Li   -0.04864   -0.00039   -0.04506
 70 Li    0.04779    0.00433   -0.09589
 71 Li    0.03160    0.00492   -0.03640
 72 Li    0.00262    0.00050    0.12543
 73 Li   -0.00037   -0.00000    0.12501
 74 Li    0.00037    0.00029   -0.05849
 75 Li   -0.00127   -0.00000   -0.05633
 76 Li    0.00357   -0.00004    0.00279
 77 Li    0.00518   -0.00000   -0.01622
 78 Li   -0.00223    0.00015   -0.00006
 79 Li   -0.00204   -0.00000    0.00455
[...]
 106 Li     9.871211    3.490000   10.000000    ( 0.0000,  0.0000,  0.0000)
 107 Li    12.339013    5.235000   10.000000    ( 0.0000,  0.0000,  0.0000)
 108 Li    12.339013    3.490000   12.467803    ( 0.0000,  0.0000,  0.0000)
 109 Li     9.871211    5.235000   12.467803    ( 0.0000,  0.0000,  0.0000)
 110 Li    14.806816    3.490000   14.935605    ( 0.0000,  0.0000,  0.0000)
 111 Li    12.339013    5.235000   14.935605    ( 0.0000,  0.0000,  0.0000)
 112 Li    12.336672    3.490797   17.331988    ( 0.0000,  0.0000,  0.0000)
 113 Li    14.809077    5.236873   17.329899    ( 0.0000,  0.0000,  0.0000)
 114 Li    14.856326    3.490708   19.661651    ( 0.0000,  0.0000,  0.0000)
 115 Li    12.283793    5.240184   19.663678    ( 0.0000,  0.0000,  0.0000)
 116 Li     9.871211    6.980000   10.000000    ( 0.0000,  0.0000,  0.0000)
 117 Li    12.339013    8.725000   10.000000    ( 0.0000,  0.0000,  0.0000)
 118 Li    12.339013    6.980000   12.467803    ( 0.0000,  0.0000,  0.0000)
 119 Li     9.871211    8.725000   12.467803    ( 0.0000,  0.0000,  0.0000)
 120 Li    14.806816    6.980000   14.935605    ( 0.0000,  0.0000,  0.0000)
 121 Li    12.339013    8.725000   14.935605    ( 0.0000,  0.0000,  0.0000)
 122 Li    12.338785    6.980868   17.330551    ( 0.0000,  0.0000,  0.0000)
 123 Li    14.801994    8.725000   17.324183    ( 0.0000,  0.0000,  0.0000)
 124 Li    14.872568    6.987079   19.661332    ( 0.0000,  0.0000,  0.0000)
 125 Li    12.284632    8.725000   19.662574    ( 0.0000,  0.0000,  0.0000)
 126 Li     9.871211   10.470000   10.000000    ( 0.0000,  0.0000,  0.0000)
 127 Li    12.339013   12.215000   10.000000    ( 0.0000,  0.0000,  0.0000)
 128 Li    12.339013   10.470000   12.467803    ( 0.0000,  0.0000,  0.0000)
 129 Li     9.871211   12.215000   12.467803    ( 0.0000,  0.0000,  0.0000)
 130 Li    14.806816   10.470000   14.935605    ( 0.0000,  0.0000,  0.0000)
 131 Li    12.339013   12.215000   14.935605    ( 0.0000,  0.0000,  0.0000)
 132 Li    12.338785   10.469132   17.330551    ( 0.0000,  0.0000,  0.0000)
 133 Li    14.809077   12.213127   17.329899    ( 0.0000,  0.0000,  0.0000)
 134 Li    14.872568   10.462921   19.661332    ( 0.0000,  0.0000,  0.0000)
 135 Li    12.283793   12.209816   19.663678    ( 0.0000,  0.0000,  0.0000)
 136 Li    14.806816    0.000000   10.000000    ( 0.0000,  0.0000,  0.0000)
 137 Li    17.274619    1.745000   10.000000    ( 0.0000,  0.0000,  0.0000)
 138 Li    17.274619    0.000000   12.467803    ( 0.0000,  0.0000,  0.0000)
 139 Li    14.806816    1.745000   12.467803    ( 0.0000,  0.0000,  0.0000)
 140 Li    19.742421    0.000000   14.935605    ( 0.0000,  0.0000,  0.0000)
 141 Li    17.274619    1.745000   14.935605    ( 0.0000,  0.0000,  0.0000)
 142 Li    17.274347   -0.004404   17.357775    ( 0.0000,  0.0000,  0.0000)
 143 Li    19.754076    1.745000   17.324013    ( 0.0000,  0.0000,  0.0000)
 144 Li    19.890204   -0.015165   19.681441    ( 0.0000,  0.0000,  0.0000)
 145 Li    17.416113    1.745000   19.732379    ( 0.0000,  0.0000,  0.0000)
 146 Li    14.806816    3.490000   10.000000    ( 0.0000,  0.0000,  0.0000)
 147 Li    17.274619    5.235000   10.000000    ( 0.0000,  0.0000,  0.0000)
 148 Li    17.274619    3.490000   12.467803    ( 0.0000,  0.0000,  0.0000)
 149 Li    14.806816    5.235000   12.467803    ( 0.0000,  0.0000,  0.0000)
 150 Li    19.742421    3.490000   14.935605    ( 0.0000,  0.0000,  0.0000)
 151 Li    17.274619    5.235000   14.935605    ( 0.0000,  0.0000,  0.0000)
 152 Li    17.274347    3.494404   17.357775    ( 0.0000,  0.0000,  0.0000)
 153 Li    19.751426    5.228149   17.304742    ( 0.0000,  0.0000,  0.0000)
 154 Li    19.890204    3.505165   19.681441    ( 0.0000,  0.0000,  0.0000)
 155 Li    17.423363    5.223426   19.760106    ( 0.0000,  0.0000,  0.0000)
 156 Li    14.806816    6.980000   10.000000    ( 0.0000,  0.0000,  0.0000)
 157 Li    17.274619    8.725000   10.000000    ( 0.0000,  0.0000,  0.0000)
 158 Li    17.274619    6.980000   12.467803    ( 0.0000,  0.0000,  0.0000)
 159 Li    14.806816    8.725000   12.467803    ( 0.0000,  0.0000,  0.0000)
 160 Li    19.742421    6.980000   14.935605    ( 0.0000,  0.0000,  0.0000)
 161 Li    17.274619    8.725000   14.935605    ( 0.0000,  0.0000,  0.0000)
 162 Li    17.285649    6.998497   17.390310    ( 0.0000,  0.0000,  0.0000)
 163 Li    19.771696    8.725000   17.295102    ( 0.0000,  0.0000,  0.0000)
 164 Li    19.892001    6.986601   19.652123    ( 0.0000,  0.0000,  0.0000)
 165 Li    17.460135    8.725000   19.850582    ( 0.0000,  0.0000,  0.0000)
 166 Li    14.806816   10.470000   10.000000    ( 0.0000,  0.0000,  0.0000)
 167 Li    17.274619   12.215000   10.000000    ( 0.0000,  0.0000,  0.0000)
 168 Li    17.274619   10.470000   12.467803    ( 0.0000,  0.0000,  0.0000)
 169 Li    14.806816   12.215000   12.467803    ( 0.0000,  0.0000,  0.0000)
 170 Li    19.742421   10.470000   14.935605    ( 0.0000,  0.0000,  0.0000)
 171 Li    17.274619   12.215000   14.935605    ( 0.0000,  0.0000,  0.0000)
 172 Li    17.285649   10.451503   17.390310    ( 0.0000,  0.0000,  0.0000)
 173 Li    19.751426   12.221851   17.304742    ( 0.0000,  0.0000,  0.0000)
 174 Li    19.892001   10.463399   19.652123    ( 0.0000,  0.0000,  0.0000)
 175 Li    17.423363   12.226574   19.760106    ( 0.0000,  0.0000,  0.0000)
 176 Li     2.456457    8.725000   24.292916    ( 0.0000,  0.0000,  0.0000)

Unit cell:
           periodic     x           y           z      points  spacing
  1. axis:    yes   19.742421    0.000000    0.000000   100     0.1974
  2. axis:    yes    0.000000   13.960000    0.000000    68     0.2053
  3. axis:    no     0.000000    0.000000   32.339013   160     0.2021

  Lengths:  19.742421  13.960000  32.339013
  Angles:   90.000000  90.000000  90.000000

Effective grid spacing dv^(1/3) = 0.2016

     iter     time        total  log10-change:
                         energy   eigst   dens
iter:   1 21:18:41  -310.502513        c
iter:   2 21:20:17  -310.508098        c -2.40
iter:   3 21:21:44  -310.500457c       c -2.28
iter:   4 21:22:57  -310.500415c       c -3.18
iter:   5 21:23:33  -310.500410c       c -3.39
iter:   6 21:24:06  -310.500383c       c -3.62
iter:   7 21:24:40  -310.500353c       c -3.73
iter:   8 21:25:12  -310.500357c       c -3.84
iter:   9 21:25:43  -310.500366c       c -3.94
iter:  10 21:26:13  -310.500341c       c -3.95
iter:  11 21:26:44  -310.500349c       c -4.07c

Converged after 11 iterations.

Dipole moment: (-38.736019, -18.526837, 0.777005) |e|*Ang

Energy contributions relative to reference atoms: (reference = -35893.444183)

Kinetic:       +329.851618
Potential:     -280.351070
External:        +0.000000
XC:            -354.858097
Entropy (-ST):   -5.749642
Local:           -2.267979
SIC:             +0.000000
--------------------------
Free energy:   -313.375170
Extrapolated:  -310.500349

Showing all kpts
 Kpt  Band  Eigenvalues  Occupancy
  0    86     -2.88610    1.13978
  0    87     -2.87223    1.09421
  0    88     -2.83934    0.98484
  0    89     -2.82890    0.95008

  1    86     -2.88610    1.13978
  1    87     -2.87223    1.09421
  1    88     -2.83934    0.98484
  1    89     -2.82890    0.95008


Fermi level: -2.84389

Gap: 0.033 eV
Transition (v -> c):
  (s=0, k=0, n=87, [0.25, -0.25, 0.00]) -> (s=0, k=0, n=88, [0.25, -0.25, 0.00])
No difference between direct/indirect transitions

Forces in eV/Ang:
  0 Li   -0.00078   -0.00159    0.12727
  1 Li   -0.00442   -0.00000    0.12468
  2 Li    0.00093    0.00043   -0.06125
  3 Li   -0.00081   -0.00000   -0.06053
  4 Li   -0.00429    0.00477   -0.05089
  5 Li    0.00396    0.00000   -0.06462
  6 Li   -0.00350   -0.00473    0.01032
  7 Li    0.00279    0.00000   -0.00013
  8 Li    0.00907   -0.00125    0.00430
  9 Li   -0.01506   -0.00000    0.01100
 10 Li    0.00599    0.00347   -0.02744
 11 Li    0.00263   -0.00000   -0.01536
 12 Li   -0.00078    0.00159    0.12727
 13 Li   -0.00375    0.00105    0.12502
 14 Li    0.00093   -0.00043   -0.06125
 15 Li   -0.00045    0.00050   -0.05512
 16 Li   -0.00429   -0.00477   -0.05089
 17 Li    0.00453   -0.01809   -0.07972
 18 Li   -0.00350    0.00473    0.01032
 19 Li    0.00232   -0.00131   -0.00114
 20 Li    0.00907    0.00125    0.00430
 21 Li   -0.01584   -0.02839   -0.01732
 22 Li    0.00599   -0.00347   -0.02744
 23 Li    0.00649   -0.00158   -0.01073
 24 Li   -0.00114   -0.00002    0.12514
 25 Li   -0.00319   -0.00000    0.12224
 26 Li    0.00096    0.00086   -0.05409
 27 Li   -0.00019   -0.00000   -0.05262
 28 Li   -0.00247   -0.00717   -0.06049
 29 Li    0.00533   -0.00000   -0.05370
 30 Li   -0.00159    0.00167    0.01410
 31 Li    0.01039   -0.00000    0.00266
 32 Li    0.02321   -0.00322   -0.00433
 33 Li   -0.01528    0.00000   -0.00365
 34 Li   -0.00584    0.00820   -0.02913
 35 Li    0.02601    0.00000   -0.01559
 36 Li   -0.00114    0.00002    0.12514
 37 Li   -0.00375   -0.00105    0.12502
 38 Li    0.00096   -0.00086   -0.05409
 39 Li   -0.00045   -0.00050   -0.05512
 40 Li   -0.00247    0.00717   -0.06049
 41 Li    0.00453    0.01809   -0.07972
 42 Li   -0.00159   -0.00167    0.01410
 43 Li    0.00232    0.00131   -0.00114
 44 Li    0.02321    0.00322   -0.00433
 45 Li   -0.01584    0.02839   -0.01732
 46 Li   -0.00584   -0.00820   -0.02913
 47 Li    0.00649    0.00158   -0.01073
 48 Li    0.00298   -0.00214    0.12759
 49 Li    0.00229   -0.00000    0.12638
 50 Li    0.00016    0.00023   -0.05748
 51 Li   -0.00038    0.00000   -0.06383
 52 Li    0.00387   -0.00307   -0.04340
 53 Li    0.00093    0.00000   -0.07726
 54 Li   -0.00140    0.00239    0.00931
 55 Li    0.00083   -0.00000    0.00124
 56 Li    0.00193   -0.00022   -0.00170
 57 Li    0.01220    0.00000    0.00296
 58 Li   -0.00318    0.00295   -0.01690
 59 Li   -0.00682   -0.00000   -0.02820
 60 Li    0.00298    0.00214    0.12759
 61 Li    0.00001    0.00081    0.12505
 62 Li    0.00016   -0.00023   -0.05748
 63 Li   -0.00121   -0.00031   -0.06102
 64 Li    0.00387    0.00307   -0.04340
 65 Li    0.00305   -0.00196   -0.08318
 66 Li   -0.00140   -0.00239    0.00931
 67 Li    0.00143    0.00093   -0.00239
 68 Li    0.00193    0.00022   -0.00170
 69 Li    0.01131   -0.00073    0.00311
 70 Li   -0.00318   -0.00295   -0.01690
 71 Li   -0.00600    0.00097   -0.02626
 72 Li    0.00318    0.00064    0.12538
 73 Li   -0.00106   -0.00000    0.12525
 74 Li    0.00050    0.00052   -0.05687
 75 Li   -0.00165   -0.00000   -0.05755
 76 Li    0.00312    0.00170   -0.04216
 77 Li    0.00595   -0.00000   -0.08701
 78 Li    0.00103    0.00035    0.01054
 79 Li    0.00180    0.00000   -0.00254
 80 Li    0.01026   -0.00249   -0.00749
 81 Li    0.00722    0.00000    0.00658
 82 Li    0.00796   -0.00723   -0.01818
 83 Li   -0.03838    0.00000   -0.02447
 84 Li    0.00318   -0.00064    0.12538
 85 Li    0.00001   -0.00081    0.12505
 86 Li    0.00050   -0.00052   -0.05687
 87 Li   -0.00121    0.00031   -0.06102
 88 Li    0.00312   -0.00170   -0.04216
 89 Li    0.00305    0.00196   -0.08318
 90 Li    0.00103   -0.00035    0.01054
 91 Li    0.00143   -0.00093   -0.00239
 92 Li    0.01026    0.00249   -0.00749
 93 Li    0.01131    0.00073    0.00311
 94 Li    0.00796    0.00723   -0.01818
 95 Li   -0.00600   -0.00097   -0.02626
 96 Li    0.00058    0.00031    0.12424
 97 Li    0.00071    0.00000    0.12311
 98 Li    0.00004    0.00022   -0.05966
 99 Li    0.00154   -0.00000   -0.05778
100 Li   -0.00439    0.00046   -0.05643
101 Li    0.00400    0.00000   -0.05549
102 Li   -0.00205   -0.00145    0.02088
103 Li    0.00332   -0.00000    0.02033
104 Li   -0.00197    0.00001   -0.00687
105 Li    0.00283    0.00000   -0.00672
106 Li    0.00058   -0.00031    0.12424
107 Li   -0.00006   -0.00063    0.12418
108 Li    0.00004   -0.00022   -0.05966
109 Li    0.00190   -0.00024   -0.05840
110 Li   -0.00439   -0.00046   -0.05643
111 Li    0.00387   -0.00006   -0.05461
112 Li   -0.00205    0.00145    0.02088
113 Li    0.00309    0.00292    0.02063
114 Li   -0.00197   -0.00001   -0.00687
115 Li    0.00522    0.00113   -0.00600
116 Li   -0.00034    0.00000    0.12383
117 Li   -0.00018   -0.00000    0.12459
118 Li    0.00008   -0.00035   -0.05956
119 Li    0.00173   -0.00000   -0.05912
120 Li   -0.00182    0.00002   -0.05524
121 Li    0.00314    0.00000   -0.05520
122 Li   -0.00331   -0.00018    0.02012
123 Li    0.00228   -0.00000    0.02288
124 Li   -0.00656   -0.00119   -0.00598
125 Li    0.00530    0.00000   -0.00576
126 Li   -0.00034   -0.00000    0.12383
127 Li   -0.00006    0.00063    0.12418
128 Li    0.00008    0.00035   -0.05956
129 Li    0.00190    0.00024   -0.05840
130 Li   -0.00182   -0.00002   -0.05524
131 Li    0.00387    0.00006   -0.05461
132 Li   -0.00331    0.00018    0.02012
133 Li    0.00309   -0.00292    0.02063
134 Li   -0.00656    0.00119   -0.00598
135 Li    0.00522   -0.00113   -0.00600
136 Li   -0.00174    0.00064    0.12520
137 Li    0.00037    0.00000    0.12356
138 Li   -0.00125    0.00017   -0.05677
139 Li   -0.00025   -0.00000   -0.06053
140 Li   -0.00234    0.00768   -0.08316
141 Li   -0.00216   -0.00000   -0.03958
142 Li    0.00040    0.00065    0.00108
143 Li   -0.00062   -0.00000    0.00741
144 Li   -0.00450   -0.00348    0.00114
145 Li   -0.00425    0.00000   -0.00406
146 Li   -0.00174   -0.00064    0.12520
147 Li    0.00245    0.00101    0.12259
148 Li   -0.00125   -0.00017   -0.05677
149 Li    0.00006   -0.00026   -0.06012
150 Li   -0.00234   -0.00768   -0.08316
151 Li   -0.00470    0.01054   -0.03333
152 Li    0.00040   -0.00065    0.00108
153 Li   -0.00063   -0.00124    0.00742
154 Li   -0.00450    0.00348    0.00114
155 Li   -0.00575    0.00181   -0.00310
156 Li    0.00041    0.00041    0.12458
157 Li    0.00191   -0.00000    0.12194
158 Li   -0.00153    0.00000   -0.05826
159 Li   -0.00005    0.00000   -0.06068
160 Li   -0.00549   -0.00602   -0.08335
161 Li   -0.00686    0.00000   -0.03798
162 Li   -0.00280   -0.00081   -0.00471
163 Li   -0.00611    0.00000    0.00942
164 Li   -0.01393    0.00292   -0.00790
165 Li   -0.01294   -0.00000   -0.02168
166 Li    0.00041   -0.00041    0.12458
167 Li    0.00245   -0.00101    0.12259
168 Li   -0.00153   -0.00000   -0.05826
169 Li    0.00006    0.00026   -0.06012
170 Li   -0.00549    0.00602   -0.08335
171 Li   -0.00470   -0.01054   -0.03333
172 Li   -0.00280    0.00081   -0.00471
173 Li   -0.00063    0.00124    0.00742
174 Li   -0.01393   -0.00292   -0.00790
175 Li   -0.00575   -0.00181   -0.00310
176 Li   -0.00146    0.00000    0.01611

Timing:                                       incl.     excl.
--------------------------------------------------------------------
Basic WFS set positions:                      0.305     0.101   0.0% |
 Redistribute:                                0.204     0.204   0.0% |
Basis functions set positions:               13.971    13.971   0.0% |
Forces:                                    4177.710    41.997   0.1% |
 LCAO forces:                              4135.713     1.444   0.0% |
  Atomic Hamiltonian force:                 140.352   140.352   0.4% |
  Initial:                                    0.796     0.000   0.0% |
   Get density matrix:                        0.795     0.795   0.0% |
  Paw correction:                           119.041   119.041   0.3% |
  Potential:                               3764.921  3764.921   9.4% |---|
  TCI derivative:                           109.156   109.156   0.3% |
  Wait for sum:                               0.002     0.002   0.0% |
LCAO WFS Initialize:                        683.136     1.465   0.0% |
 Density initialized from wave functions:   578.564     7.488   0.0% |
  Calculate density matrix:                   0.569     0.569   0.0% |
  Construct density:                        570.505   570.505   1.4% ||
  Symmetrize density:                         0.002     0.002   0.0% |
 Hamiltonian:                               103.107     0.005   0.0% |
  Atomic:                                    40.712     0.156   0.0% |
   XC Correction:                            40.556    40.556   0.1% |
  Calculate atomic Hamiltonians:              2.914     2.914   0.0% |
  Communicate:                                0.000     0.000   0.0% |
  Hartree integrate/restrict:                 0.874     0.874   0.0% |
  Initialize Hamiltonian:                     0.311     0.311   0.0% |
  Poisson:                                   24.727     1.512   0.0% |
   Communicate from 1D:                       3.881     3.881   0.0% |
   Communicate from 2D:                       1.975     1.975   0.0% |
   Communicate to 1D:                         1.404     1.404   0.0% |
   Communicate to 2D:                         4.155     4.155   0.0% |
   FFT 1D:                                    4.561     4.561   0.0% |
   FFT 2D:                                    7.240     7.240   0.0% |
  XC 3D grid:                                32.730    32.730   0.1% |
  vbar:                                       0.833     0.833   0.0% |
P tci:                                       41.515    41.515   0.1% |
Redistribute:                                 0.009     0.009   0.0% |
SCF-cycle:                                14860.469     0.614   0.0% |
 Density:                                  7532.786     0.008   0.0% |
  Atomic density matrices:                    2.521     2.521   0.0% |
  Mix:                                       91.774    91.774   0.2% |
  Multipole moments:                          0.459     0.459   0.0% |
  Normalize:                                  0.206     0.206   0.0% |
  Pseudo density:                          7437.818     2.240   0.0% |
   Calculate density matrix:                  5.851     5.851   0.0% |
   Construct density:                      7429.701  7429.701  18.6% |------|
   Symmetrize density:                        0.025     0.025   0.0% |
 Hamiltonian:                              1220.026     0.056   0.0% |
  Atomic:                                   514.049     1.795   0.0% |
   XC Correction:                           512.253   512.253   1.3% ||
  Calculate atomic Hamiltonians:             29.173    29.173   0.1% |
  Communicate:                                0.007     0.007   0.0% |
  Hartree integrate/restrict:                 9.707     9.707   0.0% |
  Poisson:                                  272.386    16.890   0.0% |
   Communicate from 1D:                      33.437    33.437   0.1% |
   Communicate from 2D:                      23.243    23.243   0.1% |
   Communicate to 1D:                        17.456    17.456   0.0% |
   Communicate to 2D:                        39.812    39.812   0.1% |
   FFT 1D:                                   56.434    56.434   0.1% |
   FFT 2D:                                   85.115    85.115   0.2% |
  XC 3D grid:                               383.221   383.221   1.0% |
  vbar:                                      11.427    11.427   0.0% |
 LCAO eigensolver:                         6107.043     3.007   0.0% |
  Calculate projections:                     15.705    15.705   0.0% |
  DenseAtomicCorrection:                    370.081   370.081   0.9% |
  Distribute overlap matrix:                  2.010     2.010   0.0% |
  Orbital Layouts:                          470.438   470.438   1.2% |
  Potential matrix:                        5225.963  5225.963  13.1% |----|
  Sum over cells:                            19.839    19.839   0.0% |
ST tci:                                      32.639    32.639   0.1% |
Set symmetry:                                 0.000     0.000   0.0% |
TCI: Evaluate splines:                        0.005     0.005   0.0% |
mktci:                                        6.222     6.222   0.0% |
Other:                                    20181.808 20181.808  50.5% |-------------------|
--------------------------------------------------------------------
Total:                                              39997.789 100.0%

Memory usage: 3.70 GiB
Date: Wed Nov 26 03:04:02 2025
