
  ___ ___ ___ _ _ _  
 |   |   |_  | | | | 
 | | | | | . | | | | 
 |__ |  _|___|_____|  25.7.0
 |___|_|             

User:   tew@Mathuss-MacBook-Air-357.local
Date:   Wed Nov 26 03:04:02 2025
Arch:   arm64
Pid:    56558
CWD:    /Users/tew/Documents/Project/GitHub/chem-com/step
Python: 3.13.5
gpaw:   /Users/tew/Documents/Project/GitHub/chem-com/.venv/lib/python3.13/site-packages/gpaw
_gpaw:  /Users/tew/Documents/Project/GitHub/chem-com/.venv/lib/python3.13/site-packages/
        _gpaw.cpython-313-darwin.so
ase:    /Users/tew/Documents/Project/GitHub/chem-com/.venv/lib/python3.13/site-packages/ase (version 3.26.0)
numpy:  /Users/tew/Documents/Project/GitHub/chem-com/.venv/lib/python3.13/site-packages/numpy (version 2.3.5)
scipy:  /Users/tew/Documents/Project/GitHub/chem-com/.venv/lib/python3.13/site-packages/scipy (version 1.16.3)
libxc:  2.x.y
units:  Angstrom and eV
cores: 1
OpenMP: False
OMP_NUM_THREADS: 1

Input parameters:
  basis: dzp
  convergence: {density: 0.0001,
                eigenstates: 5e-06}
  kpts: [2 2 1]
  mode: {interpolation: 3,
         name: lcao}
  occupations: {fixmagmom: False,
                name: fermi-dirac,
                width: 0.15}
  xc: PBE

System changes: positions, numbers, cell, pbc, initial_charges, initial_magmoms 

Initialize ...

species:
  Li:
    name: Lithium
    id: 830b4218f175192f93f959cfc0aad614
    Z: 3.0
    valence: 1
    core: 2
    charge: 0.0
    file: /Users/tew/Documents/Project/GitHub/chem-com/.venv/lib/python3.13/site-packages/gpaw_data/setups/Li.PBE.gz
    compensation charges: {type: gauss,
                           rc: 0.33,
                           lmax: 2}
    cutoffs: {filter: 1.91,
              core: 2.55}
    projectors:
      #              energy  rcut
      - 2s(1.00)    -2.874   1.058
      - 2p(0.00)    -1.090   1.058
      -  s          24.337   1.058
  
    # LCAO basis set for Li:
    #   Name: dzp
    #   File: /Users/tew/Documents/Project/GitHub/chem-com/.venv/lib/python3.13/site-packages/gpaw_data/setups/Li.dzp.basis.gz
    #   Number of radial functions: 3
    #   Number of spherical harmonics: 5
    #     l=0, rc=10.8906 Bohr: 2s-sz confined orbital
    #     l=0, rc=6.6719 Bohr: 2s-dz split-valence wave
    #     l=1, rc=10.8906 Bohr: p-type Gaussian polarization
    #   Number of RI-basis functions 0

Reference energy: -35893.444183  # eV

Spin-paired calculation

Convergence criteria:
 Maximum [total energy] change in last 3 cyles: 0.0005 eV / valence electron
 Maximum integral of absolute [dens]ity change: 0.0001 electrons / valence electron
 Maximum integral of absolute [eigenst]ate change: 5e-06 eV^2 / valence electron
 Maximum number of scf [iter]ations: 333
 (Square brackets indicate name in SCF output, whereas a 'c' in
 the SCF output indicates the quantity has converged.)

Symmetries present (total): 1

  ( 1  0  0)
  ( 0  1  0)
  ( 0  0  1)

4 k-points: 2 x 2 x 1 Monkhorst-Pack grid
2 k-points in the irreducible part of the Brillouin zone
       k-points in crystal coordinates                weights
   0:     0.25000000   -0.25000000    0.00000000          2/4
   1:     0.25000000    0.25000000    0.00000000          2/4

Wave functions: LCAO
  Diagonalizer: Serial LAPACK
  Atomic Correction: dense with blas
  Data-type: complex
 

Occupation numbers: Fermi-Dirac:
  width: 0.1500  # eV
 

Eigensolver
   LCAO using direct dense diagonalizer 

Densities:
  Coarse grid: 100*68*160 grid
  Fine grid: 200*136*320 grid
  Total Charge: 0.000000 

Density mixing:
  Method: separate
  Backend: pulay
  Linear mixing parameter: 0.05
  old densities: 5
  Damping of long wavelength oscillations: 50 

Hamiltonian:
  XC and Coulomb potentials evaluated on a 200*136*320 grid
  Using the PBE Exchange-Correlation functional
  Interpolation: tri-quintic (5. degree polynomial)
  Poisson solver: FastPoissonSolver using
    Stencil: 6*3+1=19 point O(h^6) finite-difference Laplacian
    FFT axes: [np.int64(0), np.int64(1)]
    FST axes: [np.int64(2)]
 

XC parameters: PBE with 2 nearest neighbor stencil

Memory estimate:
  Process memory now: 3793.11 MiB
  Calculator: 1570.72 MiB
    Density: 780.53 MiB
      Arrays: 215.09 MiB
      Localized functions: 482.94 MiB
      Mixer: 82.49 MiB
    Hamiltonian: 178.84 MiB
      Arrays: 140.65 MiB
      XC: 0.00 MiB
      Poisson: 0.00 MiB
      vbar: 38.19 MiB
    Wavefunctions: 611.36 MiB
      C [qnM]: 3.00 MiB
      S, T [2 x qmm]: 47.80 MiB
      P [aqMi]: 1.49 MiB
      BasisFunctions: 559.07 MiB
      Eigensolver: 0.00 MiB

Total number of cores used: 1

Number of atoms: 177
Number of atomic orbitals: 885
Number of bands in calculation: 111
Number of valence electrons: 177
Bands to converge: occupied

... initialized

Initializing position-dependent things.

Density initialized from atomic densities
          .------------------------------------------------.  
         /|                                                |  
        / |                                                |  
       /  |                                                |  
      /   |                                                |  
     /    |                                                |  
    /     |                                                |  
   /      |                                                |  
  /       |                                                |  
 *        |                                                |  
 |        |                                                |  
 |        |                                                |  
 |        |                                                |  
 |        |  Li Li           Li                            |  
 |        |          Li                                   Li  
 |        |   Li      Li  Li                               |  
 |     Li Li       Li                          Li          |  
 |        | Li Li       Li Li          Li           Li     |  
 |      Li|      Li Li          Li           Li      Li    |  
 |       Li  Li          Li Li       Li  Li       Li Li    |  
 |    Li Li   Li  Li LLi      Li Li       Li  Li           |  
 |        |Li Li      Li  Li       Li Li        Li Li      |  
 |  Li Li |    Li  Li      Li  Li       Li Li              |  
 |      Li| Li Li       Li Li       Li Li    Li Li  Li     |  
 |  Li  Li|      Li Li       Li LLi      Li  Li            |  
 |       Li  Li       Li Li       Li Li       Li  Li       |  
 |Li Li  Li   Li  Li Li    Li Li Li    Li Li  Li           |  
 |        Li  Li       Li Li       Li Li       Li  Li      |  
 | Li  Li |    Li  Li       Li Li       Li Li              |  
 |      Li| Li Li    Li Li Li    Li Li Li    Li Li  Li     |  
 |  Li  Li|      Li Li       Li Li       Li  Li            |  
 Li      Li  Li       Li Li       Li LLi      Li  Li       |  
 |Li Li   |   Li  Li       Li Li       Li Li               |  
 |        Li           Li          Li          Li          |  
 | Li  Li |    Li  Li       Li  Li      Li  Li             |  
 |        |                                                |  
 |      Li|          Li          Li          Li            |  
 Li       |  Li          Li           Li                   |  
 |        |                                                |  
 |        |                                                |  
 |        .------------------------------------------------.  
 |       /                                                /   
 |      /                                                /    
 |     /                                                /     
 |    /                                                /      
 |   /                                                /       
 |  /                                                /        
 | /                                                /         
 |/                                                /          
 *------------------------------------------------*           

Atomic positions and initial magnetic moments

Positions:
   0 Li     0.000000    0.000000   10.000000    ( 0.0000,  0.0000,  0.0000)
   1 Li     2.467803    1.745000   10.000000    ( 0.0000,  0.0000,  0.0000)
   2 Li     2.467803    0.000000   12.467803    ( 0.0000,  0.0000,  0.0000)
   3 Li     0.000000    1.745000   12.467803    ( 0.0000,  0.0000,  0.0000)
   4 Li     4.935605    0.000000   14.935605    ( 0.0000,  0.0000,  0.0000)
   5 Li     2.467803    1.745000   14.935605    ( 0.0000,  0.0000,  0.0000)
   6 Li     2.471245    0.015188   17.343809    ( 0.0000,  0.0000,  0.0000)
   7 Li     4.932231    1.741526   17.388100    ( 0.0000,  0.0000,  0.0000)
   8 Li     4.895328   -0.024794   19.830894    ( 0.0000,  0.0000,  0.0000)
   9 Li     2.522172    1.734022   19.782114    ( 0.0000,  0.0000,  0.0000)
  10 Li     2.412762   -0.040153   22.106821    ( 0.0000,  0.0000,  0.0000)
  11 Li    -0.129803    1.738831   22.008859    ( 0.0000,  0.0000,  0.0000)
  12 Li     0.000000    3.490000   10.000000    ( 0.0000,  0.0000,  0.0000)
  13 Li     2.467803    5.235000   10.000000    ( 0.0000,  0.0000,  0.0000)
  14 Li     2.467803    3.490000   12.467803    ( 0.0000,  0.0000,  0.0000)
  15 Li     0.000000    5.235000   12.467803    ( 0.0000,  0.0000,  0.0000)
  16 Li     4.935605    3.490000   14.935605    ( 0.0000,  0.0000,  0.0000)
  17 Li     2.467803    5.235000   14.935605    ( 0.0000,  0.0000,  0.0000)
  18 Li     2.472908    3.485267   17.358860    ( 0.0000,  0.0000,  0.0000)
  19 Li     4.935163    5.234346   17.373596    ( 0.0000,  0.0000,  0.0000)
  20 Li     4.885280    3.504602   19.821754    ( 0.0000,  0.0000,  0.0000)
  21 Li     2.523468    5.257447   19.758716    ( 0.0000,  0.0000,  0.0000)
  22 Li     2.406986    3.504166   22.101099    ( 0.0000,  0.0000,  0.0000)
  23 Li    -0.094076    5.297244   22.038580    ( 0.0000,  0.0000,  0.0000)
  24 Li     0.000000    6.980000   10.000000    ( 0.0000,  0.0000,  0.0000)
  25 Li     2.467803    8.725000   10.000000    ( 0.0000,  0.0000,  0.0000)
  26 Li     2.467803    6.980000   12.467803    ( 0.0000,  0.0000,  0.0000)
  27 Li     0.000000    8.725000   12.467803    ( 0.0000,  0.0000,  0.0000)
  28 Li     4.935605    6.980000   14.935605    ( 0.0000,  0.0000,  0.0000)
  29 Li     2.467803    8.725000   14.935605    ( 0.0000,  0.0000,  0.0000)
  30 Li     2.471207    6.945863   17.318325    ( 0.0000,  0.0000,  0.0000)
  31 Li     4.924870    8.718607   17.350720    ( 0.0000,  0.0000,  0.0000)
  32 Li     4.899553    6.997867   19.811548    ( 0.0000,  0.0000,  0.0000)
  33 Li     2.529316    8.707331   19.637311    ( 0.0000,  0.0000,  0.0000)
  34 Li     2.449238    7.011837   22.021684    ( 0.0000,  0.0000,  0.0000)
  35 Li     0.033638    8.750618   22.119361    ( 0.0000,  0.0000,  0.0000)
  36 Li     0.000000   10.470000   10.000000    ( 0.0000,  0.0000,  0.0000)
  37 Li     2.467803   12.215000   10.000000    ( 0.0000,  0.0000,  0.0000)
  38 Li     2.467803   10.470000   12.467803    ( 0.0000,  0.0000,  0.0000)
  39 Li     0.000000   12.215000   12.467803    ( 0.0000,  0.0000,  0.0000)
  40 Li     4.935605   10.470000   14.935605    ( 0.0000,  0.0000,  0.0000)
  41 Li     2.467803   12.215000   14.935605    ( 0.0000,  0.0000,  0.0000)
  42 Li     2.472881   10.493682   17.321859    ( 0.0000,  0.0000,  0.0000)
  43 Li     4.933290   12.225521   17.363620    ( 0.0000,  0.0000,  0.0000)
  44 Li     4.893373   10.462325   19.788675    ( 0.0000,  0.0000,  0.0000)
  45 Li     2.525917   12.221200   19.716198    ( 0.0000,  0.0000,  0.0000)
  46 Li     2.452476   10.464150   21.917503    ( 0.0000,  0.0000,  0.0000)
  47 Li    -0.074663   12.133307   22.056321    ( 0.0000,  0.0000,  0.0000)
  48 Li     4.935605    0.000000   10.000000    ( 0.0000,  0.0000,  0.0000)
  49 Li     7.403408    1.745000   10.000000    ( 0.0000,  0.0000,  0.0000)
  50 Li     7.403408    0.000000   12.467803    ( 0.0000,  0.0000,  0.0000)
  51 Li     4.935605    1.745000   12.467803    ( 0.0000,  0.0000,  0.0000)
  52 Li     9.871211    0.000000   14.935605    ( 0.0000,  0.0000,  0.0000)
  53 Li     7.403408    1.745000   14.935605    ( 0.0000,  0.0000,  0.0000)
  54 Li     7.392946   -0.001702   17.313061    ( 0.0000,  0.0000,  0.0000)
  55 Li     9.867898    1.744768   17.358429    ( 0.0000,  0.0000,  0.0000)
  56 Li     9.724366    0.002472   19.748928    ( 0.0000,  0.0000,  0.0000)
  57 Li     7.252828    1.744288   19.666625    ( 0.0000,  0.0000,  0.0000)
  58 Li     7.494360   -0.024644   21.999359    ( 0.0000,  0.0000,  0.0000)
  59 Li     4.967195    1.744934   22.141879    ( 0.0000,  0.0000,  0.0000)
  60 Li     4.935605    3.490000   10.000000    ( 0.0000,  0.0000,  0.0000)
  61 Li     7.403408    5.235000   10.000000    ( 0.0000,  0.0000,  0.0000)
  62 Li     7.403408    3.490000   12.467803    ( 0.0000,  0.0000,  0.0000)
  63 Li     4.935605    5.235000   12.467803    ( 0.0000,  0.0000,  0.0000)
  64 Li     9.871211    3.490000   14.935605    ( 0.0000,  0.0000,  0.0000)
  65 Li     7.403408    5.235000   14.935605    ( 0.0000,  0.0000,  0.0000)
  66 Li     7.389775    3.491472   17.313643    ( 0.0000,  0.0000,  0.0000)
  67 Li     9.866728    5.240282   17.365987    ( 0.0000,  0.0000,  0.0000)
  68 Li     9.726886    3.487542   19.744071    ( 0.0000,  0.0000,  0.0000)
  69 Li     7.257798    5.242283   19.662926    ( 0.0000,  0.0000,  0.0000)
  70 Li     7.505459    3.504976   21.996962    ( 0.0000,  0.0000,  0.0000)
  71 Li     4.948935    5.255926   22.175508    ( 0.0000,  0.0000,  0.0000)
  72 Li     4.935605    6.980000   10.000000    ( 0.0000,  0.0000,  0.0000)
  73 Li     7.403408    8.725000   10.000000    ( 0.0000,  0.0000,  0.0000)
  74 Li     7.403408    6.980000   12.467803    ( 0.0000,  0.0000,  0.0000)
  75 Li     4.935605    8.725000   12.467803    ( 0.0000,  0.0000,  0.0000)
  76 Li     9.871211    6.980000   14.935605    ( 0.0000,  0.0000,  0.0000)
  77 Li     7.403408    8.725000   14.935605    ( 0.0000,  0.0000,  0.0000)
  78 Li     7.386187    6.979887   17.306608    ( 0.0000,  0.0000,  0.0000)
  79 Li     9.865154    8.725562   17.369057    ( 0.0000,  0.0000,  0.0000)
  80 Li     9.714078    6.984001   19.768601    ( 0.0000,  0.0000,  0.0000)
  81 Li     7.252623    8.730350   19.647373    ( 0.0000,  0.0000,  0.0000)
  82 Li     7.459994    7.018083   22.003344    ( 0.0000,  0.0000,  0.0000)
  83 Li     4.899185    8.747015   22.217732    ( 0.0000,  0.0000,  0.0000)
  84 Li     4.935605   10.470000   10.000000    ( 0.0000,  0.0000,  0.0000)
  85 Li     7.403408   12.215000   10.000000    ( 0.0000,  0.0000,  0.0000)
  86 Li     7.403408   10.470000   12.467803    ( 0.0000,  0.0000,  0.0000)
  87 Li     4.935605   12.215000   12.467803    ( 0.0000,  0.0000,  0.0000)
  88 Li     9.871211   10.470000   14.935605    ( 0.0000,  0.0000,  0.0000)
  89 Li     7.403408   12.215000   14.935605    ( 0.0000,  0.0000,  0.0000)
  90 Li     7.381837   10.470343   17.304331    ( 0.0000,  0.0000,  0.0000)
  91 Li     9.866832   12.209388   17.366791    ( 0.0000,  0.0000,  0.0000)
  92 Li     9.716532   10.465984   19.767779    ( 0.0000,  0.0000,  0.0000)
  93 Li     7.259467   12.203079   19.659259    ( 0.0000,  0.0000,  0.0000)
  94 Li     7.468967   10.441585   22.003371    ( 0.0000,  0.0000,  0.0000)
  95 Li     4.938901   12.172125   22.192082    ( 0.0000,  0.0000,  0.0000)
  96 Li     9.871211    0.000000   10.000000    ( 0.0000,  0.0000,  0.0000)
  97 Li    12.339013    1.745000   10.000000    ( 0.0000,  0.0000,  0.0000)
  98 Li    12.339013    0.000000   12.467803    ( 0.0000,  0.0000,  0.0000)
  99 Li     9.871211    1.745000   12.467803    ( 0.0000,  0.0000,  0.0000)
 100 Li    14.806816    0.000000   14.935605    ( 0.0000,  0.0000,  0.0000)
 101 Li    12.339013    1.745000   14.935605    ( 0.0000,  0.0000,  0.0000)
 102 Li    12.337063   -0.000610   17.331846    ( 0.0000,  0.0000,  0.0000)
 103 Li    14.806751    1.745312   17.329484    ( 0.0000,  0.0000,  0.0000)
 104 Li    14.858817   -0.000855   19.664434    ( 0.0000,  0.0000,  0.0000)
 105 Li    12.284173    1.744698   19.665974    ( 0.0000,  0.0000,  0.0000)
 106 Li     9.871211    3.490000   10.000000    ( 0.0000,  0.0000,  0.0000)
 107 Li    12.339013    5.235000   10.000000    ( 0.0000,  0.0000,  0.0000)
 108 Li    12.339013    3.490000   12.467803    ( 0.0000,  0.0000,  0.0000)
 109 Li     9.871211    5.235000   12.467803    ( 0.0000,  0.0000,  0.0000)
 110 Li    14.806816    3.490000   14.935605    ( 0.0000,  0.0000,  0.0000)
 111 Li    12.339013    5.235000   14.935605    ( 0.0000,  0.0000,  0.0000)
 112 Li    12.336921    3.490664   17.331763    ( 0.0000,  0.0000,  0.0000)
 113 Li    14.808756    5.236249   17.329612    ( 0.0000,  0.0000,  0.0000)
 114 Li    14.857426    3.490590   19.664283    ( 0.0000,  0.0000,  0.0000)
 115 Li    12.283061    5.239622   19.666126    ( 0.0000,  0.0000,  0.0000)
 116 Li     9.871211    6.980000   10.000000    ( 0.0000,  0.0000,  0.0000)
 117 Li    12.339013    8.725000   10.000000    ( 0.0000,  0.0000,  0.0000)
 118 Li    12.339013    6.980000   12.467803    ( 0.0000,  0.0000,  0.0000)
 119 Li     9.871211    8.725000   12.467803    ( 0.0000,  0.0000,  0.0000)
 120 Li    14.806816    6.980000   14.935605    ( 0.0000,  0.0000,  0.0000)
 121 Li    12.339013    8.725000   14.935605    ( 0.0000,  0.0000,  0.0000)
 122 Li    12.338824    6.980669   17.330649    ( 0.0000,  0.0000,  0.0000)
 123 Li    14.801966    8.725339   17.324417    ( 0.0000,  0.0000,  0.0000)
 124 Li    14.872352    6.986164   19.664168    ( 0.0000,  0.0000,  0.0000)
 125 Li    12.283672    8.724959   19.665297    ( 0.0000,  0.0000,  0.0000)
 126 Li     9.871211   10.470000   10.000000    ( 0.0000,  0.0000,  0.0000)
 127 Li    12.339013   12.215000   10.000000    ( 0.0000,  0.0000,  0.0000)
 128 Li    12.339013   10.470000   12.467803    ( 0.0000,  0.0000,  0.0000)
 129 Li     9.871211   12.215000   12.467803    ( 0.0000,  0.0000,  0.0000)
 130 Li    14.806816   10.470000   14.935605    ( 0.0000,  0.0000,  0.0000)
 131 Li    12.339013   12.215000   14.935605    ( 0.0000,  0.0000,  0.0000)
 132 Li    12.339137   10.469277   17.330486    ( 0.0000,  0.0000,  0.0000)
 133 Li    14.807868   12.213101   17.329180    ( 0.0000,  0.0000,  0.0000)
 134 Li    14.872007   10.464101   19.663581    ( 0.0000,  0.0000,  0.0000)
 135 Li    12.282973   12.210721   19.666217    ( 0.0000,  0.0000,  0.0000)
 136 Li    14.806816    0.000000   10.000000    ( 0.0000,  0.0000,  0.0000)
 137 Li    17.274619    1.745000   10.000000    ( 0.0000,  0.0000,  0.0000)
 138 Li    17.274619    0.000000   12.467803    ( 0.0000,  0.0000,  0.0000)
 139 Li    14.806816    1.745000   12.467803    ( 0.0000,  0.0000,  0.0000)
 140 Li    19.742421    0.000000   14.935605    ( 0.0000,  0.0000,  0.0000)
 141 Li    17.274619    1.745000   14.935605    ( 0.0000,  0.0000,  0.0000)
 142 Li    17.273477   -0.006355   17.365204    ( 0.0000,  0.0000,  0.0000)
 143 Li    19.751781    1.743287   17.329850    ( 0.0000,  0.0000,  0.0000)
 144 Li    19.889216   -0.022553   19.691290    ( 0.0000,  0.0000,  0.0000)
 145 Li    17.417935    1.747171   19.739203    ( 0.0000,  0.0000,  0.0000)
 146 Li    14.806816    3.490000   10.000000    ( 0.0000,  0.0000,  0.0000)
 147 Li    17.274619    5.235000   10.000000    ( 0.0000,  0.0000,  0.0000)
 148 Li    17.274619    3.490000   12.467803    ( 0.0000,  0.0000,  0.0000)
 149 Li    14.806816    5.235000   12.467803    ( 0.0000,  0.0000,  0.0000)
 150 Li    19.742421    3.490000   14.935605    ( 0.0000,  0.0000,  0.0000)
 151 Li    17.274619    5.235000   14.935605    ( 0.0000,  0.0000,  0.0000)
 152 Li    17.274855    3.493670   17.360584    ( 0.0000,  0.0000,  0.0000)
 153 Li    19.749572    5.231005   17.313791    ( 0.0000,  0.0000,  0.0000)
 154 Li    19.894303    3.502638   19.688361    ( 0.0000,  0.0000,  0.0000)
 155 Li    17.423977    5.223185   19.762308    ( 0.0000,  0.0000,  0.0000)
 156 Li    14.806816    6.980000   10.000000    ( 0.0000,  0.0000,  0.0000)
 157 Li    17.274619    8.725000   10.000000    ( 0.0000,  0.0000,  0.0000)
 158 Li    17.274619    6.980000   12.467803    ( 0.0000,  0.0000,  0.0000)
 159 Li    14.806816    8.725000   12.467803    ( 0.0000,  0.0000,  0.0000)
 160 Li    19.742421    6.980000   14.935605    ( 0.0000,  0.0000,  0.0000)
 161 Li    17.274619    8.725000   14.935605    ( 0.0000,  0.0000,  0.0000)
 162 Li    17.282895    6.998099   17.392317    ( 0.0000,  0.0000,  0.0000)
 163 Li    19.771279    8.719165   17.296490    ( 0.0000,  0.0000,  0.0000)
 164 Li    19.890713    6.995416   19.666858    ( 0.0000,  0.0000,  0.0000)
 165 Li    17.458416    8.727780   19.852980    ( 0.0000,  0.0000,  0.0000)
 166 Li    14.806816   10.470000   10.000000    ( 0.0000,  0.0000,  0.0000)
 167 Li    17.274619   12.215000   10.000000    ( 0.0000,  0.0000,  0.0000)
 168 Li    17.274619   10.470000   12.467803    ( 0.0000,  0.0000,  0.0000)
 169 Li    14.806816   12.215000   12.467803    ( 0.0000,  0.0000,  0.0000)
 170 Li    19.742421   10.470000   14.935605    ( 0.0000,  0.0000,  0.0000)
 171 Li    17.274619   12.215000   14.935605    ( 0.0000,  0.0000,  0.0000)
 172 Li    17.287105   10.454586   17.393912    ( 0.0000,  0.0000,  0.0000)
 173 Li    19.754387   12.226544   17.304523    ( 0.0000,  0.0000,  0.0000)
 174 Li    19.892698   10.464499   19.646246    ( 0.0000,  0.0000,  0.0000)
 175 Li    17.427773   12.221865   19.777583    ( 0.0000,  0.0000,  0.0000)
 176 Li     2.460224    9.015833   24.266402    ( 0.0000,  0.0000,  0.0000)

Unit cell:
           periodic     x           y           z      points  spacing
  1. axis:    yes   19.742421    0.000000    0.000000   100     0.1974
  2. axis:    yes    0.000000   13.960000    0.000000    68     0.2053
  3. axis:    no     0.000000    0.000000   32.339013   160     0.2021

  Lengths:  19.742421  13.960000  32.339013
  Angles:   90.000000  90.000000  90.000000

Effective grid spacing dv^(1/3) = 0.2016

     iter     time        total  log10-change:
                         energy   eigst   dens
iter:   1 03:04:52  -329.136323        c
iter:   2 03:05:52  -318.083743        c -0.66
iter:   3 03:06:37  -315.655478        c -0.85
iter:   4 03:07:38  -314.693632        c -0.92
iter:   5 03:08:33  -311.981469        c -0.97
iter:   6 03:09:15  -311.207465        c -1.18
iter:   7 03:10:02  -310.900443        c -1.30
iter:   8 03:10:47  -310.675669        c -1.41
iter:   9 03:11:33  -310.593251        c -1.57
iter:  10 03:12:18  -310.556158        c -1.70
iter:  11 03:13:02  -310.529435c       c -1.80
iter:  12 03:13:44  -310.519419c       c -1.90
iter:  13 03:14:32  -310.505054c       c -1.96
iter:  14 03:15:21  -310.501695c       c -2.11
iter:  15 03:16:07  -310.499084c       c -2.19
iter:  16 03:16:46  -310.498444c       c -2.27
iter:  17 03:17:31  -310.497662c       c -2.34
iter:  18 03:18:15  -310.496019c       c -2.39
iter:  19 03:19:05  -310.495703c       c -2.49
iter:  20 03:19:57  -310.494826c       c -2.55
iter:  21 03:22:09  -310.494636c       c -2.64
iter:  22 03:23:43  -310.494319c       c -2.72
iter:  23 03:25:53  -310.494136c       c -2.79
iter:  24 03:27:06  -310.494182c       c -2.86
iter:  25 03:27:57  -310.493897c       c -2.95
iter:  26 03:28:41  -310.493905c       c -3.04
iter:  27 03:29:30  -310.493772c       c -3.12
iter:  28 03:30:18  -310.493817c       c -3.26
iter:  29 03:31:09  -310.493826c       c -3.35
iter:  30 03:31:56  -310.493801c       c -3.40
iter:  31 03:32:42  -310.493866c       c -3.46
iter:  32 03:33:29  -310.493843c       c -3.53
iter:  33 03:34:17  -310.493855c       c -3.59
iter:  34 03:35:05  -310.493828c       c -3.65
iter:  35 03:35:52  -310.493817c       c -3.71
iter:  36 03:36:40  -310.493819c       c -3.79
iter:  37 03:37:26  -310.493787c       c -3.86
iter:  38 03:38:13  -310.493798c       c -3.91
iter:  39 03:39:02  -310.493790c       c -4.06c

Converged after 39 iterations.

Dipole moment: (-39.030482, -17.800180, 0.769929) |e|*Ang

Energy contributions relative to reference atoms: (reference = -35893.444183)

Kinetic:       +329.617950
Potential:     -280.248358
External:        +0.000000
XC:            -354.754663
Entropy (-ST):   -5.749338
Local:           -2.234050
SIC:             +0.000000
--------------------------
Free energy:   -313.368459
Extrapolated:  -310.493790

Showing all kpts
 Kpt  Band  Eigenvalues  Occupancy
  0    86     -2.88754    1.13995
  0    87     -2.87276    1.09138
  0    88     -2.84033    0.98353
  0    89     -2.83127    0.95335

  1    86     -2.88747    1.13973
  1    87     -2.87273    1.09126
  1    88     -2.84115    0.98625
  1    89     -2.83003    0.94924


Fermi level: -2.84527

Gap: 0.032 eV
Transition (v -> c):
  (s=0, k=1, n=87, [0.25, 0.25, 0.00]) -> (s=0, k=1, n=88, [0.25, 0.25, 0.00])
No difference between direct/indirect transitions

Forces in eV/Ang:
  0 Li   -0.00093   -0.00157    0.12738
  1 Li   -0.00448   -0.00039    0.12491
  2 Li    0.00109    0.00023   -0.06044
  3 Li   -0.00076    0.00028   -0.06105
  4 Li   -0.00373    0.00772   -0.05247
  5 Li    0.00374    0.00511   -0.06480
  6 Li   -0.00304   -0.00419    0.00585
  7 Li    0.00170   -0.00006   -0.00189
  8 Li    0.00956    0.00137    0.00395
  9 Li   -0.01534    0.00245    0.01073
 10 Li    0.00592    0.01420   -0.03325
 11 Li    0.00458   -0.00205   -0.01618
 12 Li   -0.00085    0.00139    0.12701
 13 Li   -0.00386    0.00114    0.12567
 14 Li    0.00107   -0.00058   -0.06260
 15 Li   -0.00040    0.00027   -0.05625
 16 Li   -0.00535   -0.00360   -0.04188
 17 Li    0.00431   -0.02072   -0.07919
 18 Li   -0.00379    0.00484    0.00757
 19 Li    0.00068   -0.00112   -0.00295
 20 Li    0.01143    0.00085    0.00407
 21 Li   -0.01623   -0.02364   -0.00748
 22 Li    0.00669   -0.00418   -0.03185
 23 Li    0.00348   -0.00418   -0.01682
 24 Li   -0.00132    0.00007    0.12544
 25 Li   -0.00336   -0.00009    0.12262
 26 Li    0.00117    0.00093   -0.05416
 27 Li   -0.00008    0.00002   -0.05271
 28 Li   -0.00201   -0.00963   -0.06031
 29 Li    0.00521   -0.00193   -0.05050
 30 Li   -0.00161   -0.00017    0.00654
 31 Li    0.01077    0.00132    0.00102
 32 Li    0.02275   -0.00701   -0.00644
 33 Li   -0.01549    0.00350   -0.00762
 34 Li   -0.00253    0.03374    0.02114
 35 Li    0.02267   -0.00027   -0.01949
 36 Li   -0.00143    0.00013    0.12501
 37 Li   -0.00385   -0.00062    0.12498
 38 Li    0.00108   -0.00069   -0.05439
 39 Li   -0.00032   -0.00049   -0.05467
 40 Li   -0.00228    0.00580   -0.05605
 41 Li    0.00469    0.01720   -0.07310
 42 Li   -0.00149   -0.00091    0.01145
 43 Li    0.00384    0.00037   -0.00320
 44 Li    0.02042    0.00418   -0.00663
 45 Li   -0.01628    0.02185   -0.01799
 46 Li   -0.00665    0.03538   -0.08843
 47 Li    0.00619   -0.00602   -0.01005
 48 Li    0.00305   -0.00218    0.12820
 49 Li    0.00222   -0.00044    0.12659
 50 Li    0.00011    0.00023   -0.05810
 51 Li   -0.00040    0.00034   -0.06426
 52 Li    0.00432   -0.00277   -0.04091
 53 Li    0.00129   -0.00049   -0.07504
 54 Li   -0.00184    0.00148    0.00949
 55 Li    0.00057   -0.00046   -0.00073
 56 Li    0.00269   -0.00048   -0.00427
 57 Li    0.01273    0.00026    0.00232
 58 Li   -0.00381    0.00272   -0.01724
 59 Li   -0.00807   -0.00098   -0.02745
 60 Li    0.00294    0.00190    0.12773
 61 Li    0.00020    0.00102    0.12538
 62 Li   -0.00008   -0.00024   -0.05725
 63 Li   -0.00117   -0.00052   -0.06207
 64 Li    0.00368    0.00251   -0.04059
 65 Li    0.00274   -0.00129   -0.07970
 66 Li   -0.00025   -0.00205    0.00892
 67 Li    0.00069    0.00118   -0.00338
 68 Li    0.00181    0.00028   -0.00357
 69 Li    0.01125   -0.00099    0.00256
 70 Li   -0.00505   -0.00272   -0.01488
 71 Li   -0.00384   -0.00299   -0.03024
 72 Li    0.00325    0.00070    0.12614
 73 Li   -0.00089   -0.00000    0.12537
 74 Li    0.00039    0.00040   -0.05737
 75 Li   -0.00176    0.00002   -0.05761
 76 Li    0.00355    0.00173   -0.03970
 77 Li    0.00597   -0.00092   -0.08507
 78 Li    0.00093    0.00046    0.01016
 79 Li    0.00078    0.00026   -0.00354
 80 Li    0.00969   -0.00180   -0.00906
 81 Li    0.01017   -0.00262    0.00579
 82 Li    0.00532   -0.00661   -0.01884
 83 Li   -0.02938   -0.00112   -0.03373
 84 Li    0.00338   -0.00043    0.12556
 85 Li   -0.00004   -0.00063    0.12512
 86 Li    0.00046   -0.00049   -0.05685
 87 Li   -0.00130    0.00034   -0.06043
 88 Li    0.00311   -0.00138   -0.03947
 89 Li    0.00337    0.00250   -0.08205
 90 Li    0.00076   -0.00022    0.00821
 91 Li    0.00085   -0.00093   -0.00363
 92 Li    0.01018    0.00210   -0.00902
 93 Li    0.01464    0.00267    0.00242
 94 Li    0.00745    0.00584   -0.01676
 95 Li   -0.00820   -0.00881   -0.02172
 96 Li    0.00028    0.00021    0.12404
 97 Li    0.00074    0.00025    0.12313
 98 Li    0.00003    0.00027   -0.05962
 99 Li    0.00142    0.00005   -0.05790
100 Li   -0.00436    0.00048   -0.05609
101 Li    0.00404   -0.00001   -0.05546
102 Li   -0.00226   -0.00123    0.02288
103 Li    0.00342   -0.00044    0.02290
104 Li   -0.00307   -0.00040   -0.00892
105 Li    0.00392   -0.00028   -0.00848
106 Li    0.00075   -0.00025    0.12444
107 Li    0.00003   -0.00055    0.12409
108 Li   -0.00007   -0.00009   -0.05961
109 Li    0.00183   -0.00029   -0.05836
110 Li   -0.00463   -0.00036   -0.05689
111 Li    0.00400   -0.00006   -0.05475
112 Li   -0.00232    0.00115    0.02298
113 Li    0.00338    0.00291    0.02313
114 Li   -0.00372    0.00012   -0.00902
115 Li    0.00585    0.00110   -0.00778
116 Li   -0.00025    0.00008    0.12369
117 Li   -0.00010    0.00003    0.12445
118 Li    0.00007   -0.00037   -0.05974
119 Li    0.00177    0.00009   -0.05928
120 Li   -0.00233   -0.00007   -0.05519
121 Li    0.00322    0.00003   -0.05514
122 Li   -0.00330   -0.00021    0.02215
123 Li    0.00273    0.00066    0.02479
124 Li   -0.00666   -0.00054   -0.00800
125 Li    0.00630   -0.00021   -0.00755
126 Li   -0.00036   -0.00001    0.12375
127 Li    0.00005    0.00037    0.12415
128 Li    0.00023    0.00029   -0.05950
129 Li    0.00180    0.00025   -0.05866
130 Li   -0.00161   -0.00013   -0.05517
131 Li    0.00379    0.00012   -0.05468
132 Li   -0.00353    0.00019    0.02261
133 Li    0.00335   -0.00305    0.02315
134 Li   -0.00719    0.00087   -0.00788
135 Li    0.00625   -0.00064   -0.00778
136 Li   -0.00147    0.00046    0.12484
137 Li    0.00054   -0.00030    0.12331
138 Li   -0.00125    0.00013   -0.05757
139 Li   -0.00022   -0.00002   -0.06055
140 Li   -0.00306    0.01068   -0.08399
141 Li   -0.00248   -0.00215   -0.03580
142 Li    0.00143   -0.00127    0.00058
143 Li    0.00078    0.00008    0.00652
144 Li   -0.00668   -0.00061    0.00262
145 Li   -0.00293   -0.00071   -0.00493
146 Li   -0.00170   -0.00048    0.12521
147 Li    0.00220    0.00114    0.12242
148 Li   -0.00107   -0.00015   -0.05657
149 Li    0.00007   -0.00025   -0.06022
150 Li   -0.00117   -0.00610   -0.07477
151 Li   -0.00423    0.01058   -0.03047
152 Li   -0.00075   -0.00063   -0.00016
153 Li    0.00108   -0.00130    0.00601
154 Li   -0.00537    0.00288    0.00051
155 Li   -0.00407    0.00237   -0.00437
156 Li    0.00040    0.00037    0.12437
157 Li    0.00186    0.00002    0.12166
158 Li   -0.00167   -0.00009   -0.05865
159 Li   -0.00016    0.00010   -0.06077
160 Li   -0.00596   -0.00915   -0.08371
161 Li   -0.00693    0.00040   -0.03511
162 Li   -0.00132    0.00060   -0.00437
163 Li   -0.00694    0.00146    0.00810
164 Li   -0.01506   -0.00278   -0.00968
165 Li   -0.01437   -0.00118   -0.02205
166 Li    0.00048   -0.00046    0.12447
167 Li    0.00255   -0.00094    0.12225
168 Li   -0.00154   -0.00007   -0.05835
169 Li   -0.00003    0.00010   -0.06026
170 Li   -0.00554    0.00482   -0.07868
171 Li   -0.00515   -0.00909   -0.03163
172 Li   -0.00242    0.00092   -0.00506
173 Li   -0.00229   -0.00001    0.00509
174 Li   -0.00940   -0.00088   -0.00794
175 Li   -0.00869    0.00003   -0.00769
176 Li   -0.00453   -0.05313    0.04516

System changes: positions 

Initializing position-dependent things.

Density initialized from wave functions
          .------------------------------------------------.  
         /|                                                |  
        / |                                                |  
       /  |                                                |  
      /   |                                                |  
     /    |                                                |  
    /     |                                                |  
   /      |                                                |  
  /       |                                                |  
 *        |                                                |  
 |        |                                                |  
 |        |                                                |  
 |        |                                                |  
 |        |  Li Li           Li                            |  
 |        |          Li                                   Li  
 |        |   Li      Li  Li                               |  
 |     Li Li       Li                          Li          |  
 |        | Li Li       Li Li          Li           Li     |  
 |      Li|      Li Li          Li           Li      Li    |  
 |       Li  Li          Li Li       Li  Li       Li Li    |  
 |    Li Li   Li  Li LLi      Li Li       Li  Li           |  
 |        |Li Li      Li  Li       Li Li        Li Li      |  
 |  Li Li |    Li  Li      Li  Li       Li Li              |  
 |      Li| Li Li       Li Li       Li Li    Li Li  Li     |  
 |  Li  Li|      Li Li       Li LLi      Li  Li            |  
 |       Li  Li       Li Li       Li Li       Li  Li       |  
 |Li Li  Li   Li  Li Li    Li Li Li    Li Li  Li           |  
 |        Li  Li       Li Li       Li Li       Li  Li      |  
 | Li  Li |    Li  Li       Li Li       Li Li              |  
 |      Li| Li Li    Li Li Li    Li Li Li    Li Li  Li     |  
 |  Li  Li|      Li Li       Li Li       Li  Li            |  
 Li      Li  Li       Li Li       Li LLi      Li  Li       |  
 |Li Li   |   Li  Li       Li Li       Li Li               |  
 |        Li           Li          Li          Li          |  
 | Li  Li |    Li  Li       Li  Li      Li  Li             |  
 |        |                                                |  
 |      Li|          Li          Li          Li            |  
 Li       |  Li          Li           Li                   |  
 |        |                                                |  
 |        |                                                |  
 |        .------------------------------------------------.  
 |       /                                                /   
 |      /                                                /    
 |     /                                                /     
 |    /                                                /      
 |   /                                                /       
 |  /                                                /        
 | /                                                /         
 |/                                                /          
 *------------------------------------------------*           

Atomic positions and initial magnetic moments

Positions:
   0 Li     0.000000    0.000000   10.000000    ( 0.0000,  0.0000,  0.0000)
   1 Li     2.467803    1.745000   10.000000    ( 0.0000,  0.0000,  0.0000)
   2 Li     2.467803    0.000000   12.467803    ( 0.0000,  0.0000,  0.0000)
   3 Li     0.000000    1.745000   12.467803    ( 0.0000,  0.0000,  0.0000)
   4 Li     4.935605    0.000000   14.935605    ( 0.0000,  0.0000,  0.0000)
   5 Li     2.467803    1.745000   14.935605    ( 0.0000,  0.0000,  0.0000)
   6 Li     2.471213    0.015157   17.343863    ( 0.0000,  0.0000,  0.0000)
   7 Li     4.932249    1.741521   17.388089    ( 0.0000,  0.0000,  0.0000)
   8 Li     4.895429   -0.024788   19.830949    ( 0.0000,  0.0000,  0.0000)
   9 Li     2.522019    1.734034   19.782235    ( 0.0000,  0.0000,  0.0000)
  10 Li     2.412825   -0.040037   22.106507    ( 0.0000,  0.0000,  0.0000)
  11 Li    -0.129753    1.738804   22.008706    ( 0.0000,  0.0000,  0.0000)
  12 Li     0.000000    3.490000   10.000000    ( 0.0000,  0.0000,  0.0000)
  13 Li     2.467803    5.235000   10.000000    ( 0.0000,  0.0000,  0.0000)
  14 Li     2.467803    3.490000   12.467803    ( 0.0000,  0.0000,  0.0000)
  15 Li     0.000000    5.235000   12.467803    ( 0.0000,  0.0000,  0.0000)
  16 Li     4.935605    3.490000   14.935605    ( 0.0000,  0.0000,  0.0000)
  17 Li     2.467803    5.235000   14.935605    ( 0.0000,  0.0000,  0.0000)
  18 Li     2.472871    3.485316   17.358948    ( 0.0000,  0.0000,  0.0000)
  19 Li     4.935171    5.234339   17.373578    ( 0.0000,  0.0000,  0.0000)
  20 Li     4.885388    3.504607   19.821799    ( 0.0000,  0.0000,  0.0000)
  21 Li     2.523306    5.257221   19.758661    ( 0.0000,  0.0000,  0.0000)
  22 Li     2.407051    3.504121   22.100792    ( 0.0000,  0.0000,  0.0000)
  23 Li    -0.094045    5.297197   22.038415    ( 0.0000,  0.0000,  0.0000)
  24 Li     0.000000    6.980000   10.000000    ( 0.0000,  0.0000,  0.0000)
  25 Li     2.467803    8.725000   10.000000    ( 0.0000,  0.0000,  0.0000)
  26 Li     2.467803    6.980000   12.467803    ( 0.0000,  0.0000,  0.0000)
  27 Li     0.000000    8.725000   12.467803    ( 0.0000,  0.0000,  0.0000)
  28 Li     4.935605    6.980000   14.935605    ( 0.0000,  0.0000,  0.0000)
  29 Li     2.467803    8.725000   14.935605    ( 0.0000,  0.0000,  0.0000)
  30 Li     2.471189    6.945855   17.318391    ( 0.0000,  0.0000,  0.0000)
  31 Li     4.924978    8.718613   17.350733    ( 0.0000,  0.0000,  0.0000)
  32 Li     4.899785    6.997807   19.811503    ( 0.0000,  0.0000,  0.0000)
  33 Li     2.529162    8.707346   19.637225    ( 0.0000,  0.0000,  0.0000)
  34 Li     2.449209    7.012202   22.021933    ( 0.0000,  0.0000,  0.0000)
  35 Li     0.033858    8.750644   22.119175    ( 0.0000,  0.0000,  0.0000)
  36 Li     0.000000   10.470000   10.000000    ( 0.0000,  0.0000,  0.0000)
  37 Li     2.467803   12.215000   10.000000    ( 0.0000,  0.0000,  0.0000)
  38 Li     2.467803   10.470000   12.467803    ( 0.0000,  0.0000,  0.0000)
  39 Li     0.000000   12.215000   12.467803    ( 0.0000,  0.0000,  0.0000)
  40 Li     4.935605   10.470000   14.935605    ( 0.0000,  0.0000,  0.0000)
  41 Li     2.467803   12.215000   14.935605    ( 0.0000,  0.0000,  0.0000)
  42 Li     2.472866   10.493668   17.321979    ( 0.0000,  0.0000,  0.0000)
  43 Li     4.933327   12.225531   17.363588    ( 0.0000,  0.0000,  0.0000)
  44 Li     4.893575   10.462368   19.788603    ( 0.0000,  0.0000,  0.0000)
  45 Li     2.525756   12.221441   19.715990    ( 0.0000,  0.0000,  0.0000)
  46 Li     2.452409   10.464505   21.916539    ( 0.0000,  0.0000,  0.0000)
  47 Li    -0.074583   12.133231   22.056243    ( 0.0000,  0.0000,  0.0000)
  48 Li     4.935605    0.000000   10.000000    ( 0.0000,  0.0000,  0.0000)
  49 Li     7.403408    1.745000   10.000000    ( 0.0000,  0.0000,  0.0000)
  50 Li     7.403408    0.000000   12.467803    ( 0.0000,  0.0000,  0.0000)
  51 Li     4.935605    1.745000   12.467803    ( 0.0000,  0.0000,  0.0000)
  52 Li     9.871211    0.000000   14.935605    ( 0.0000,  0.0000,  0.0000)
  53 Li     7.403408    1.745000   14.935605    ( 0.0000,  0.0000,  0.0000)
  54 Li     7.392930   -0.001687   17.313159    ( 0.0000,  0.0000,  0.0000)
  55 Li     9.867904    1.744763   17.358427    ( 0.0000,  0.0000,  0.0000)
  56 Li     9.724389    0.002467   19.748896    ( 0.0000,  0.0000,  0.0000)
  57 Li     7.252953    1.744290   19.666655    ( 0.0000,  0.0000,  0.0000)
  58 Li     7.494312   -0.024625   21.999194    ( 0.0000,  0.0000,  0.0000)
  59 Li     4.967112    1.744924   22.141613    ( 0.0000,  0.0000,  0.0000)
  60 Li     4.935605    3.490000   10.000000    ( 0.0000,  0.0000,  0.0000)
  61 Li     7.403408    5.235000   10.000000    ( 0.0000,  0.0000,  0.0000)
  62 Li     7.403408    3.490000   12.467803    ( 0.0000,  0.0000,  0.0000)
  63 Li     4.935605    5.235000   12.467803    ( 0.0000,  0.0000,  0.0000)
  64 Li     9.871211    3.490000   14.935605    ( 0.0000,  0.0000,  0.0000)
  65 Li     7.403408    5.235000   14.935605    ( 0.0000,  0.0000,  0.0000)
  66 Li     7.389770    3.491451   17.313736    ( 0.0000,  0.0000,  0.0000)
  67 Li     9.866735    5.240293   17.365956    ( 0.0000,  0.0000,  0.0000)
  68 Li     9.726903    3.487546   19.744040    ( 0.0000,  0.0000,  0.0000)
  69 Li     7.257907    5.242272   19.662959    ( 0.0000,  0.0000,  0.0000)
  70 Li     7.505411    3.504946   21.996817    ( 0.0000,  0.0000,  0.0000)
  71 Li     4.948898    5.255892   22.175207    ( 0.0000,  0.0000,  0.0000)
  72 Li     4.935605    6.980000   10.000000    ( 0.0000,  0.0000,  0.0000)
  73 Li     7.403408    8.725000   10.000000    ( 0.0000,  0.0000,  0.0000)
  74 Li     7.403408    6.980000   12.467803    ( 0.0000,  0.0000,  0.0000)
  75 Li     4.935605    8.725000   12.467803    ( 0.0000,  0.0000,  0.0000)
  76 Li     9.871211    6.980000   14.935605    ( 0.0000,  0.0000,  0.0000)
  77 Li     7.403408    8.725000   14.935605    ( 0.0000,  0.0000,  0.0000)
  78 Li     7.386199    6.979892   17.306714    ( 0.0000,  0.0000,  0.0000)
  79 Li     9.865163    8.725565   17.369025    ( 0.0000,  0.0000,  0.0000)
  80 Li     9.714174    6.983982   19.768517    ( 0.0000,  0.0000,  0.0000)
  81 Li     7.252725    8.730330   19.647437    ( 0.0000,  0.0000,  0.0000)
  82 Li     7.460045    7.018021   22.003162    ( 0.0000,  0.0000,  0.0000)
  83 Li     4.898890    8.747029   22.217409    ( 0.0000,  0.0000,  0.0000)
  84 Li     4.935605   10.470000   10.000000    ( 0.0000,  0.0000,  0.0000)
  85 Li     7.403408   12.215000   10.000000    ( 0.0000,  0.0000,  0.0000)
  86 Li     7.403408   10.470000   12.467803    ( 0.0000,  0.0000,  0.0000)
  87 Li     4.935605   12.215000   12.467803    ( 0.0000,  0.0000,  0.0000)
  88 Li     9.871211   10.470000   14.935605    ( 0.0000,  0.0000,  0.0000)
  89 Li     7.403408   12.215000   14.935605    ( 0.0000,  0.0000,  0.0000)
  90 Li     7.381843   10.470341   17.304415    ( 0.0000,  0.0000,  0.0000)
  91 Li     9.866841   12.209379   17.366759    ( 0.0000,  0.0000,  0.0000)
  92 Li     9.716635   10.466006   19.767694    ( 0.0000,  0.0000,  0.0000)
  93 Li     7.259611   12.203102   19.659286    ( 0.0000,  0.0000,  0.0000)
  94 Li     7.469050   10.441650   22.003210    ( 0.0000,  0.0000,  0.0000)
  95 Li     4.938810   12.172017   22.191884    ( 0.0000,  0.0000,  0.0000)
  96 Li     9.871211    0.000000   10.000000    ( 0.0000,  0.0000,  0.0000)
  97 Li    12.339013    1.745000   10.000000    ( 0.0000,  0.0000,  0.0000)
  98 Li    12.339013    0.000000   12.467803    ( 0.0000,  0.0000,  0.0000)
  99 Li     9.871211    1.745000   12.467803    ( 0.0000,  0.0000,  0.0000)
 100 Li    14.806816    0.000000   14.935605    ( 0.0000,  0.0000,  0.0000)
 101 Li    12.339013    1.745000   14.935605    ( 0.0000,  0.0000,  0.0000)
 102 Li    12.337041   -0.000622   17.332075    ( 0.0000,  0.0000,  0.0000)
 103 Li    14.806786    1.745307   17.329713    ( 0.0000,  0.0000,  0.0000)
 104 Li    14.858789   -0.000859   19.664348    ( 0.0000,  0.0000,  0.0000)
 105 Li    12.284211    1.744695   19.665892    ( 0.0000,  0.0000,  0.0000)
 106 Li     9.871211    3.490000   10.000000    ( 0.0000,  0.0000,  0.0000)
 107 Li    12.339013    5.235000   10.000000    ( 0.0000,  0.0000,  0.0000)
 108 Li    12.339013    3.490000   12.467803    ( 0.0000,  0.0000,  0.0000)
 109 Li     9.871211    5.235000   12.467803    ( 0.0000,  0.0000,  0.0000)
 110 Li    14.806816    3.490000   14.935605    ( 0.0000,  0.0000,  0.0000)
 111 Li    12.339013    5.235000   14.935605    ( 0.0000,  0.0000,  0.0000)
 112 Li    12.336898    3.490675   17.331993    ( 0.0000,  0.0000,  0.0000)
 113 Li    14.808790    5.236277   17.329843    ( 0.0000,  0.0000,  0.0000)
 114 Li    14.857390    3.490591   19.664196    ( 0.0000,  0.0000,  0.0000)
 115 Li    12.283118    5.239632   19.666051    ( 0.0000,  0.0000,  0.0000)
 116 Li     9.871211    6.980000   10.000000    ( 0.0000,  0.0000,  0.0000)
 117 Li    12.339013    8.725000   10.000000    ( 0.0000,  0.0000,  0.0000)
 118 Li    12.339013    6.980000   12.467803    ( 0.0000,  0.0000,  0.0000)
 119 Li     9.871211    8.725000   12.467803    ( 0.0000,  0.0000,  0.0000)
 120 Li    14.806816    6.980000   14.935605    ( 0.0000,  0.0000,  0.0000)
 121 Li    12.339013    8.725000   14.935605    ( 0.0000,  0.0000,  0.0000)
 122 Li    12.338791    6.980667   17.330871    ( 0.0000,  0.0000,  0.0000)
 123 Li    14.801993    8.725346   17.324665    ( 0.0000,  0.0000,  0.0000)
 124 Li    14.872285    6.986157   19.664091    ( 0.0000,  0.0000,  0.0000)
 125 Li    12.283734    8.724957   19.665225    ( 0.0000,  0.0000,  0.0000)
 126 Li     9.871211   10.470000   10.000000    ( 0.0000,  0.0000,  0.0000)
 127 Li    12.339013   12.215000   10.000000    ( 0.0000,  0.0000,  0.0000)
 128 Li    12.339013   10.470000   12.467803    ( 0.0000,  0.0000,  0.0000)
 129 Li     9.871211   12.215000   12.467803    ( 0.0000,  0.0000,  0.0000)
 130 Li    14.806816   10.470000   14.935605    ( 0.0000,  0.0000,  0.0000)
 131 Li    12.339013   12.215000   14.935605    ( 0.0000,  0.0000,  0.0000)
 132 Li    12.339102   10.469279   17.330712    ( 0.0000,  0.0000,  0.0000)
 133 Li    14.807901   12.213070   17.329410    ( 0.0000,  0.0000,  0.0000)
 134 Li    14.871934   10.464111   19.663505    ( 0.0000,  0.0000,  0.0000)
 135 Li    12.283035   12.210716   19.666142    ( 0.0000,  0.0000,  0.0000)
 136 Li    14.806816    0.000000   10.000000    ( 0.0000,  0.0000,  0.0000)
 137 Li    17.274619    1.745000   10.000000    ( 0.0000,  0.0000,  0.0000)
 138 Li    17.274619    0.000000   12.467803    ( 0.0000,  0.0000,  0.0000)
 139 Li    14.806816    1.745000   12.467803    ( 0.0000,  0.0000,  0.0000)
 140 Li    19.742421    0.000000   14.935605    ( 0.0000,  0.0000,  0.0000)
 141 Li    17.274619    1.745000   14.935605    ( 0.0000,  0.0000,  0.0000)
 142 Li    17.273490   -0.006370   17.365218    ( 0.0000,  0.0000,  0.0000)
 143 Li    19.751786    1.743285   17.329922    ( 0.0000,  0.0000,  0.0000)
 144 Li    19.889148   -0.022568   19.691328    ( 0.0000,  0.0000,  0.0000)
 145 Li    17.417908    1.747166   19.739161    ( 0.0000,  0.0000,  0.0000)
 146 Li    14.806816    3.490000   10.000000    ( 0.0000,  0.0000,  0.0000)
 147 Li    17.274619    5.235000   10.000000    ( 0.0000,  0.0000,  0.0000)
 148 Li    17.274619    3.490000   12.467803    ( 0.0000,  0.0000,  0.0000)
 149 Li    14.806816    5.235000   12.467803    ( 0.0000,  0.0000,  0.0000)
 150 Li    19.742421    3.490000   14.935605    ( 0.0000,  0.0000,  0.0000)
 151 Li    17.274619    5.235000   14.935605    ( 0.0000,  0.0000,  0.0000)
 152 Li    17.274848    3.493663   17.360586    ( 0.0000,  0.0000,  0.0000)
 153 Li    19.749580    5.230995   17.313862    ( 0.0000,  0.0000,  0.0000)
 154 Li    19.894254    3.502664   19.688374    ( 0.0000,  0.0000,  0.0000)
 155 Li    17.423937    5.223208   19.762267    ( 0.0000,  0.0000,  0.0000)
 156 Li    14.806816    6.980000   10.000000    ( 0.0000,  0.0000,  0.0000)
 157 Li    17.274619    8.725000   10.000000    ( 0.0000,  0.0000,  0.0000)
 158 Li    17.274619    6.980000   12.467803    ( 0.0000,  0.0000,  0.0000)
 159 Li    14.806816    8.725000   12.467803    ( 0.0000,  0.0000,  0.0000)
 160 Li    19.742421    6.980000   14.935605    ( 0.0000,  0.0000,  0.0000)
 161 Li    17.274619    8.725000   14.935605    ( 0.0000,  0.0000,  0.0000)
 162 Li    17.282878    6.998105   17.392275    ( 0.0000,  0.0000,  0.0000)
 163 Li    19.771209    8.719173   17.296572    ( 0.0000,  0.0000,  0.0000)
 164 Li    19.890561    6.995399   19.666778    ( 0.0000,  0.0000,  0.0000)
 165 Li    17.458271    8.727771   19.852762    ( 0.0000,  0.0000,  0.0000)
 166 Li    14.806816   10.470000   10.000000    ( 0.0000,  0.0000,  0.0000)
 167 Li    17.274619   12.215000   10.000000    ( 0.0000,  0.0000,  0.0000)
 168 Li    17.274619   10.470000   12.467803    ( 0.0000,  0.0000,  0.0000)
 169 Li    14.806816   12.215000   12.467803    ( 0.0000,  0.0000,  0.0000)
 170 Li    19.742421   10.470000   14.935605    ( 0.0000,  0.0000,  0.0000)
 171 Li    17.274619   12.215000   14.935605    ( 0.0000,  0.0000,  0.0000)
 172 Li    17.287082   10.454599   17.393865    ( 0.0000,  0.0000,  0.0000)
 173 Li    19.754368   12.226549   17.304574    ( 0.0000,  0.0000,  0.0000)
 174 Li    19.892604   10.464492   19.646160    ( 0.0000,  0.0000,  0.0000)
 175 Li    17.427691   12.221860   19.777526    ( 0.0000,  0.0000,  0.0000)
 176 Li     2.460183    9.015631   24.266824    ( 0.0000,  0.0000,  0.0000)

Unit cell:
           periodic     x           y           z      points  spacing
  1. axis:    yes   19.742421    0.000000    0.000000   100     0.1974
  2. axis:    yes    0.000000   13.960000    0.000000    68     0.2053
  3. axis:    no     0.000000    0.000000   32.339013   160     0.2021

  Lengths:  19.742421  13.960000  32.339013
  Angles:   90.000000  90.000000  90.000000

Effective grid spacing dv^(1/3) = 0.2016

     iter     time        total  log10-change:
                         energy   eigst   dens
iter:   1 05:52:14  -310.494567        c
iter:   2 05:53:03  -310.494218        c -3.17
iter:   3 05:53:48  -310.494212c       c -3.07
iter:   4 05:54:35  -310.494222c       c -3.90
iter:   5 05:55:22  -310.494191c       c -4.09c

Converged after 5 iterations.

Dipole moment: (-39.032088, -17.801647, 0.770093) |e|*Ang

Energy contributions relative to reference atoms: (reference = -35893.444183)

Kinetic:       +329.649782
Potential:     -280.234978
External:        +0.000000
XC:            -354.766017
Entropy (-ST):   -5.749268
Local:           -2.268344
SIC:             +0.000000
--------------------------
Free energy:   -313.368825
Extrapolated:  -310.494191

Showing all kpts
 Kpt  Band  Eigenvalues  Occupancy
  0    86     -2.88743    1.13996
  0    87     -2.87269    1.09151
  0    88     -2.84022    0.98354
  0    89     -2.83115    0.95332

  1    86     -2.88735    1.13972
  1    87     -2.87265    1.09139
  1    88     -2.84104    0.98626
  1    89     -2.82992    0.94924


Fermi level: -2.84516

Gap: 0.032 eV
Transition (v -> c):
  (s=0, k=1, n=87, [0.25, 0.25, 0.00]) -> (s=0, k=1, n=88, [0.25, 0.25, 0.00])
No difference between direct/indirect transitions

Forces in eV/Ang:
  0 Li   -0.00079   -0.00164    0.12732
  1 Li   -0.00434   -0.00040    0.12453
  2 Li    0.00099    0.00027   -0.06011
  3 Li   -0.00100    0.00028   -0.06073
  4 Li   -0.00376    0.00775   -0.05241
  5 Li    0.00381    0.00512   -0.06473
  6 Li   -0.00293   -0.00410    0.00554
  7 Li    0.00160   -0.00007   -0.00204
  8 Li    0.00945    0.00127    0.00367
  9 Li   -0.01519    0.00248    0.01033
 10 Li    0.00576    0.01411   -0.03315
 11 Li    0.00460   -0.00199   -0.01600
 12 Li   -0.00072    0.00143    0.12697
 13 Li   -0.00372    0.00123    0.12517
 14 Li    0.00097   -0.00062   -0.06227
 15 Li   -0.00064    0.00022   -0.05598
 16 Li   -0.00538   -0.00362   -0.04183
 17 Li    0.00438   -0.02073   -0.07903
 18 Li   -0.00367    0.00480    0.00730
 19 Li    0.00063   -0.00109   -0.00308
 20 Li    0.01134    0.00082    0.00372
 21 Li   -0.01605   -0.02300   -0.00729
 22 Li    0.00654   -0.00412   -0.03158
 23 Li    0.00355   -0.00419   -0.01682
 24 Li   -0.00114    0.00015    0.12526
 25 Li   -0.00323   -0.00007    0.12200
 26 Li    0.00106    0.00089   -0.05394
 27 Li   -0.00032    0.00002   -0.05254
 28 Li   -0.00208   -0.00967   -0.06012
 29 Li    0.00527   -0.00194   -0.05028
 30 Li   -0.00149   -0.00017    0.00633
 31 Li    0.01057    0.00128    0.00096
 32 Li    0.02236   -0.00688   -0.00661
 33 Li   -0.01524    0.00330   -0.00768
 34 Li   -0.00253    0.03303    0.02032
 35 Li    0.02237   -0.00025   -0.01966
 36 Li   -0.00123    0.00007    0.12483
 37 Li   -0.00372   -0.00073    0.12446
 38 Li    0.00097   -0.00066   -0.05419
 39 Li   -0.00055   -0.00045   -0.05442
 40 Li   -0.00234    0.00584   -0.05588
 41 Li    0.00476    0.01722   -0.07293
 42 Li   -0.00136   -0.00093    0.01124
 43 Li    0.00375    0.00037   -0.00334
 44 Li    0.02011    0.00410   -0.00684
 45 Li   -0.01606    0.02167   -0.01809
 46 Li   -0.00664    0.03455   -0.08699
 47 Li    0.00612   -0.00581   -0.01019
 48 Li    0.00294   -0.00223    0.12774
 49 Li    0.00214   -0.00043    0.12644
 50 Li    0.00030    0.00025   -0.05779
 51 Li   -0.00030    0.00034   -0.06390
 52 Li    0.00420   -0.00279   -0.04114
 53 Li    0.00119   -0.00049   -0.07512
 54 Li   -0.00189    0.00147    0.00931
 55 Li    0.00063   -0.00045   -0.00081
 56 Li    0.00284   -0.00049   -0.00410
 57 Li    0.01257    0.00026    0.00217
 58 Li   -0.00385    0.00268   -0.01703
 59 Li   -0.00792   -0.00094   -0.02720
 60 Li    0.00284    0.00195    0.12730
 61 Li    0.00007    0.00104    0.12521
 62 Li    0.00010   -0.00025   -0.05695
 63 Li   -0.00107   -0.00056   -0.06177
 64 Li    0.00355    0.00251   -0.04082
 65 Li    0.00266   -0.00132   -0.07974
 66 Li   -0.00032   -0.00201    0.00873
 67 Li    0.00074    0.00112   -0.00345
 68 Li    0.00198    0.00029   -0.00341
 69 Li    0.01112   -0.00097    0.00239
 70 Li   -0.00509   -0.00269   -0.01466
 71 Li   -0.00374   -0.00295   -0.03015
 72 Li    0.00310    0.00076    0.12556
 73 Li   -0.00108    0.00000    0.12518
 74 Li    0.00062    0.00039   -0.05714
 75 Li   -0.00165    0.00002   -0.05742
 76 Li    0.00350    0.00174   -0.04001
 77 Li    0.00592   -0.00093   -0.08513
 78 Li    0.00080    0.00043    0.01008
 79 Li    0.00081    0.00026   -0.00361
 80 Li    0.00969   -0.00179   -0.00887
 81 Li    0.01001   -0.00259    0.00565
 82 Li    0.00518   -0.00653   -0.01869
 83 Li   -0.02887   -0.00106   -0.03375
 84 Li    0.00322   -0.00049    0.12497
 85 Li   -0.00018   -0.00065    0.12496
 86 Li    0.00070   -0.00047   -0.05662
 87 Li   -0.00120    0.00038   -0.06016
 88 Li    0.00307   -0.00138   -0.03979
 89 Li    0.00331    0.00254   -0.08211
 90 Li    0.00066   -0.00020    0.00815
 91 Li    0.00089   -0.00087   -0.00370
 92 Li    0.01018    0.00208   -0.00882
 93 Li    0.01447    0.00261    0.00228
 94 Li    0.00737    0.00573   -0.01669
 95 Li   -0.00797   -0.00864   -0.02176
 96 Li    0.00034    0.00025    0.12415
 97 Li    0.00075    0.00027    0.12323
 98 Li   -0.00003    0.00024   -0.05962
 99 Li    0.00143    0.00004   -0.05774
100 Li   -0.00423    0.00045   -0.05610
101 Li    0.00392   -0.00002   -0.05538
102 Li   -0.00212   -0.00121    0.02262
103 Li    0.00322   -0.00044    0.02265
104 Li   -0.00320   -0.00036   -0.00871
105 Li    0.00404   -0.00028   -0.00829
106 Li    0.00082   -0.00027    0.12453
107 Li    0.00003   -0.00064    0.12426
108 Li   -0.00012   -0.00007   -0.05963
109 Li    0.00187   -0.00026   -0.05818
110 Li   -0.00450   -0.00034   -0.05690
111 Li    0.00388   -0.00001   -0.05473
112 Li   -0.00218    0.00113    0.02273
113 Li    0.00319    0.00289    0.02286
114 Li   -0.00383    0.00009   -0.00880
115 Li    0.00595    0.00104   -0.00758
116 Li   -0.00028    0.00004    0.12387
117 Li   -0.00011    0.00001    0.12473
118 Li   -0.00002   -0.00034   -0.05965
119 Li    0.00184    0.00010   -0.05906
120 Li   -0.00226   -0.00004   -0.05522
121 Li    0.00310    0.00005   -0.05519
122 Li   -0.00314   -0.00022    0.02185
123 Li    0.00259    0.00065    0.02450
124 Li   -0.00674   -0.00056   -0.00779
125 Li    0.00641   -0.00021   -0.00735
126 Li   -0.00040    0.00002    0.12395
127 Li    0.00005    0.00047    0.12436
128 Li    0.00015    0.00027   -0.05937
129 Li    0.00184    0.00021   -0.05845
130 Li   -0.00156   -0.00015   -0.05520
131 Li    0.00367    0.00006   -0.05468
132 Li   -0.00337    0.00020    0.02230
133 Li    0.00317   -0.00302    0.02288
134 Li   -0.00727    0.00087   -0.00767
135 Li    0.00635   -0.00058   -0.00759
136 Li   -0.00155    0.00052    0.12507
137 Li    0.00046   -0.00030    0.12359
138 Li   -0.00128    0.00017   -0.05736
139 Li   -0.00008   -0.00002   -0.06054
140 Li   -0.00300    0.01069   -0.08416
141 Li   -0.00236   -0.00215   -0.03616
142 Li    0.00134   -0.00124    0.00050
143 Li    0.00087    0.00007    0.00645
144 Li   -0.00664   -0.00066    0.00254
145 Li   -0.00304   -0.00068   -0.00471
146 Li   -0.00180   -0.00052    0.12542
147 Li    0.00219    0.00116    0.12266
148 Li   -0.00110   -0.00018   -0.05635
149 Li    0.00018   -0.00026   -0.06017
150 Li   -0.00112   -0.00611   -0.07494
151 Li   -0.00413    0.01055   -0.03080
152 Li   -0.00080   -0.00061   -0.00022
153 Li    0.00116   -0.00127    0.00590
154 Li   -0.00538    0.00279    0.00040
155 Li   -0.00417    0.00238   -0.00417
156 Li    0.00039    0.00031    0.12463
157 Li    0.00194    0.00003    0.12187
158 Li   -0.00172   -0.00011   -0.05848
159 Li   -0.00009    0.00011   -0.06069
160 Li   -0.00587   -0.00918   -0.08376
161 Li   -0.00687    0.00040   -0.03541
162 Li   -0.00136    0.00056   -0.00442
163 Li   -0.00678    0.00143    0.00799
164 Li   -0.01479   -0.00270   -0.00954
165 Li   -0.01426   -0.00118   -0.02171
166 Li    0.00048   -0.00042    0.12474
167 Li    0.00256   -0.00096    0.12249
168 Li   -0.00158   -0.00004   -0.05818
169 Li    0.00007    0.00010   -0.06021
170 Li   -0.00546    0.00485   -0.07876
171 Li   -0.00507   -0.00906   -0.03197
172 Li   -0.00249    0.00092   -0.00511
173 Li   -0.00216   -0.00001    0.00498
174 Li   -0.00925   -0.00089   -0.00789
175 Li   -0.00872    0.00000   -0.00744
176 Li   -0.00461   -0.05231    0.04388

System changes: positions 

Initializing position-dependent things.

Density initialized from wave functions
          .------------------------------------------------.  
         /|                                                |  
        / |                                                |  
       /  |                                                |  
      /   |                                                |  
     /    |                                                |  
    /     |                                                |  
   /      |                                                |  
  /       |                                                |  
 *        |                                                |  
 |        |                                                |  
 |        |                                                |  
 |        |                                                |  
 |        |  Li Li           Li                            |  
 |        |          Li                                   Li  
 |        |   Li      Li  Li                               |  
 |     Li Li       Li                          Li          |  
 |        | Li Li       Li Li          Li           Li     |  
 |      Li|      Li Li          Li           Li      Li    |  
 |       Li  Li          Li Li       Li  Li       Li Li    |  
 |    Li Li   Li  Li LLi      Li Li       Li  Li           |  
 |        |Li Li      Li  Li       Li Li        Li Li      |  
 |  Li Li |    Li  Li      Li  Li       Li Li              |  
 |      Li| Li Li       Li Li       Li Li    Li Li  Li     |  
 |  Li  Li|      Li Li       Li LLi      Li  Li            |  
 |       Li  Li       Li Li       Li Li       Li  Li       |  
 |Li Li  Li   Li  Li Li    Li Li Li    Li Li  Li           |  
 |        Li  Li       Li Li       Li Li       Li  Li      |  
 | Li  Li |    Li  Li       Li Li       Li Li              |  
 |      Li| Li Li    Li Li Li    Li Li Li    Li Li  Li     |  
 |  Li  Li|      Li Li       Li Li       Li  Li            |  
 Li      Li  Li       Li Li       Li LLi      Li  Li       |  
 |Li Li   |   Li  Li       Li Li       Li Li               |  
 |        Li           Li          Li          Li          |  
 | Li  Li |    Li  Li       Li  Li      Li  Li             |  
 |        |                                                |  
 |      Li|          Li          Li          Li            |  
 Li       |  Li          Li           Li                   |  
 |        |                                                |  
 |        |                                                |  
 |        .------------------------------------------------.  
 |       /                                                /   
 |      /                                                /    
 |     /                                                /     
 |    /                                                /      
 |   /                                                /       
 |  /                                                /        
 | /                                                /         
 |/                                                /          
 *------------------------------------------------*           

Atomic positions and initial magnetic moments

Positions:
   0 Li     0.000000    0.000000   10.000000    ( 0.0000,  0.0000,  0.0000)
   1 Li     2.467803    1.745000   10.000000    ( 0.0000,  0.0000,  0.0000)
   2 Li     2.467803    0.000000   12.467803    ( 0.0000,  0.0000,  0.0000)
   3 Li     0.000000    1.745000   12.467803    ( 0.0000,  0.0000,  0.0000)
   4 Li     4.935605    0.000000   14.935605    ( 0.0000,  0.0000,  0.0000)
   5 Li     2.467803    1.745000   14.935605    ( 0.0000,  0.0000,  0.0000)
   6 Li     2.471151    0.015095   17.343968    ( 0.0000,  0.0000,  0.0000)
   7 Li     4.932285    1.741512   17.388065    ( 0.0000,  0.0000,  0.0000)
   8 Li     4.895629   -0.024778   19.831055    ( 0.0000,  0.0000,  0.0000)
   9 Li     2.521714    1.734059   19.782475    ( 0.0000,  0.0000,  0.0000)
  10 Li     2.412951   -0.039805   22.105878    ( 0.0000,  0.0000,  0.0000)
  11 Li    -0.129653    1.738750   22.008403    ( 0.0000,  0.0000,  0.0000)
  12 Li     0.000000    3.490000   10.000000    ( 0.0000,  0.0000,  0.0000)
  13 Li     2.467803    5.235000   10.000000    ( 0.0000,  0.0000,  0.0000)
  14 Li     2.467803    3.490000   12.467803    ( 0.0000,  0.0000,  0.0000)
  15 Li     0.000000    5.235000   12.467803    ( 0.0000,  0.0000,  0.0000)
  16 Li     4.935605    3.490000   14.935605    ( 0.0000,  0.0000,  0.0000)
  17 Li     2.467803    5.235000   14.935605    ( 0.0000,  0.0000,  0.0000)
  18 Li     2.472797    3.485415   17.359121    ( 0.0000,  0.0000,  0.0000)
  19 Li     4.935185    5.234327   17.373539    ( 0.0000,  0.0000,  0.0000)
  20 Li     4.885603    3.504617   19.821887    ( 0.0000,  0.0000,  0.0000)
  21 Li     2.522982    5.256774   19.758553    ( 0.0000,  0.0000,  0.0000)
  22 Li     2.407179    3.504032   22.100180    ( 0.0000,  0.0000,  0.0000)
  23 Li    -0.093982    5.297102   22.038083    ( 0.0000,  0.0000,  0.0000)
  24 Li     0.000000    6.980000   10.000000    ( 0.0000,  0.0000,  0.0000)
  25 Li     2.467803    8.725000   10.000000    ( 0.0000,  0.0000,  0.0000)
  26 Li     2.467803    6.980000   12.467803    ( 0.0000,  0.0000,  0.0000)
  27 Li     0.000000    8.725000   12.467803    ( 0.0000,  0.0000,  0.0000)
  28 Li     4.935605    6.980000   14.935605    ( 0.0000,  0.0000,  0.0000)
  29 Li     2.467803    8.725000   14.935605    ( 0.0000,  0.0000,  0.0000)
  30 Li     2.471156    6.945839   17.318522    ( 0.0000,  0.0000,  0.0000)
  31 Li     4.925192    8.718625   17.350758    ( 0.0000,  0.0000,  0.0000)
  32 Li     4.900244    6.997687   19.811411    ( 0.0000,  0.0000,  0.0000)
  33 Li     2.528858    8.707374   19.637051    ( 0.0000,  0.0000,  0.0000)
  34 Li     2.449152    7.012926   22.022422    ( 0.0000,  0.0000,  0.0000)
  35 Li     0.034296    8.750696   22.118799    ( 0.0000,  0.0000,  0.0000)
  36 Li     0.000000   10.470000   10.000000    ( 0.0000,  0.0000,  0.0000)
  37 Li     2.467803   12.215000   10.000000    ( 0.0000,  0.0000,  0.0000)
  38 Li     2.467803   10.470000   12.467803    ( 0.0000,  0.0000,  0.0000)
  39 Li     0.000000   12.215000   12.467803    ( 0.0000,  0.0000,  0.0000)
  40 Li     4.935605   10.470000   14.935605    ( 0.0000,  0.0000,  0.0000)
  41 Li     2.467803   12.215000   14.935605    ( 0.0000,  0.0000,  0.0000)
  42 Li     2.472839   10.493639   17.322216    ( 0.0000,  0.0000,  0.0000)
  43 Li     4.933400   12.225551   17.363522    ( 0.0000,  0.0000,  0.0000)
  44 Li     4.893974   10.462454   19.788456    ( 0.0000,  0.0000,  0.0000)
  45 Li     2.525438   12.221921   19.715573    ( 0.0000,  0.0000,  0.0000)
  46 Li     2.452277   10.465207   21.914624    ( 0.0000,  0.0000,  0.0000)
  47 Li    -0.074424   12.133080   22.056086    ( 0.0000,  0.0000,  0.0000)
  48 Li     4.935605    0.000000   10.000000    ( 0.0000,  0.0000,  0.0000)
  49 Li     7.403408    1.745000   10.000000    ( 0.0000,  0.0000,  0.0000)
  50 Li     7.403408    0.000000   12.467803    ( 0.0000,  0.0000,  0.0000)
  51 Li     4.935605    1.745000   12.467803    ( 0.0000,  0.0000,  0.0000)
  52 Li     9.871211    0.000000   14.935605    ( 0.0000,  0.0000,  0.0000)
  53 Li     7.403408    1.745000   14.935605    ( 0.0000,  0.0000,  0.0000)
  54 Li     7.392896   -0.001658   17.313353    ( 0.0000,  0.0000,  0.0000)
  55 Li     9.867916    1.744753   17.358422    ( 0.0000,  0.0000,  0.0000)
  56 Li     9.724436    0.002456   19.748833    ( 0.0000,  0.0000,  0.0000)
  57 Li     7.253201    1.744293   19.666712    ( 0.0000,  0.0000,  0.0000)
  58 Li     7.494215   -0.024586   21.998864    ( 0.0000,  0.0000,  0.0000)
  59 Li     4.966947    1.744904   22.141083    ( 0.0000,  0.0000,  0.0000)
  60 Li     4.935605    3.490000   10.000000    ( 0.0000,  0.0000,  0.0000)
  61 Li     7.403408    5.235000   10.000000    ( 0.0000,  0.0000,  0.0000)
  62 Li     7.403408    3.490000   12.467803    ( 0.0000,  0.0000,  0.0000)
  63 Li     4.935605    5.235000   12.467803    ( 0.0000,  0.0000,  0.0000)
  64 Li     9.871211    3.490000   14.935605    ( 0.0000,  0.0000,  0.0000)
  65 Li     7.403408    5.235000   14.935605    ( 0.0000,  0.0000,  0.0000)
  66 Li     7.389761    3.491410   17.313919    ( 0.0000,  0.0000,  0.0000)
  67 Li     9.866750    5.240314   17.365895    ( 0.0000,  0.0000,  0.0000)
  68 Li     9.726939    3.487553   19.743980    ( 0.0000,  0.0000,  0.0000)
  69 Li     7.258124    5.242251   19.663022    ( 0.0000,  0.0000,  0.0000)
  70 Li     7.505315    3.504885   21.996530    ( 0.0000,  0.0000,  0.0000)
  71 Li     4.948825    5.255823   22.174604    ( 0.0000,  0.0000,  0.0000)
  72 Li     4.935605    6.980000   10.000000    ( 0.0000,  0.0000,  0.0000)
  73 Li     7.403408    8.725000   10.000000    ( 0.0000,  0.0000,  0.0000)
  74 Li     7.403408    6.980000   12.467803    ( 0.0000,  0.0000,  0.0000)
  75 Li     4.935605    8.725000   12.467803    ( 0.0000,  0.0000,  0.0000)
  76 Li     9.871211    6.980000   14.935605    ( 0.0000,  0.0000,  0.0000)
  77 Li     7.403408    8.725000   14.935605    ( 0.0000,  0.0000,  0.0000)
  78 Li     7.386223    6.979902   17.306925    ( 0.0000,  0.0000,  0.0000)
  79 Li     9.865181    8.725571   17.368962    ( 0.0000,  0.0000,  0.0000)
  80 Li     9.714364    6.983945   19.768350    ( 0.0000,  0.0000,  0.0000)
  81 Li     7.252927    8.730290   19.647562    ( 0.0000,  0.0000,  0.0000)
  82 Li     7.460146    7.017899   22.002798    ( 0.0000,  0.0000,  0.0000)
  83 Li     4.898306    8.747056   22.216760    ( 0.0000,  0.0000,  0.0000)
  84 Li     4.935605   10.470000   10.000000    ( 0.0000,  0.0000,  0.0000)
  85 Li     7.403408   12.215000   10.000000    ( 0.0000,  0.0000,  0.0000)
  86 Li     7.403408   10.470000   12.467803    ( 0.0000,  0.0000,  0.0000)
  87 Li     4.935605   12.215000   12.467803    ( 0.0000,  0.0000,  0.0000)
  88 Li     9.871211   10.470000   14.935605    ( 0.0000,  0.0000,  0.0000)
  89 Li     7.403408   12.215000   14.935605    ( 0.0000,  0.0000,  0.0000)
  90 Li     7.381854   10.470337   17.304583    ( 0.0000,  0.0000,  0.0000)
  91 Li     9.866859   12.209362   17.366695    ( 0.0000,  0.0000,  0.0000)
  92 Li     9.716841   10.466050   19.767526    ( 0.0000,  0.0000,  0.0000)
  93 Li     7.259900   12.203145   19.659339    ( 0.0000,  0.0000,  0.0000)
  94 Li     7.469214   10.441779   22.002887    ( 0.0000,  0.0000,  0.0000)
  95 Li     4.938629   12.171802   22.191487    ( 0.0000,  0.0000,  0.0000)
  96 Li     9.871211    0.000000   10.000000    ( 0.0000,  0.0000,  0.0000)
  97 Li    12.339013    1.745000   10.000000    ( 0.0000,  0.0000,  0.0000)
  98 Li    12.339013    0.000000   12.467803    ( 0.0000,  0.0000,  0.0000)
  99 Li     9.871211    1.745000   12.467803    ( 0.0000,  0.0000,  0.0000)
 100 Li    14.806816    0.000000   14.935605    ( 0.0000,  0.0000,  0.0000)
 101 Li    12.339013    1.745000   14.935605    ( 0.0000,  0.0000,  0.0000)
 102 Li    12.336998   -0.000646   17.332530    ( 0.0000,  0.0000,  0.0000)
 103 Li    14.806852    1.745299   17.330168    ( 0.0000,  0.0000,  0.0000)
 104 Li    14.858732   -0.000867   19.664178    ( 0.0000,  0.0000,  0.0000)
 105 Li    12.284289    1.744689   19.665730    ( 0.0000,  0.0000,  0.0000)
 106 Li     9.871211    3.490000   10.000000    ( 0.0000,  0.0000,  0.0000)
 107 Li    12.339013    5.235000   10.000000    ( 0.0000,  0.0000,  0.0000)
 108 Li    12.339013    3.490000   12.467803    ( 0.0000,  0.0000,  0.0000)
 109 Li     9.871211    5.235000   12.467803    ( 0.0000,  0.0000,  0.0000)
 110 Li    14.806816    3.490000   14.935605    ( 0.0000,  0.0000,  0.0000)
 111 Li    12.339013    5.235000   14.935605    ( 0.0000,  0.0000,  0.0000)
 112 Li    12.336853    3.490698   17.332450    ( 0.0000,  0.0000,  0.0000)
 113 Li    14.808854    5.236334   17.330303    ( 0.0000,  0.0000,  0.0000)
 114 Li    14.857317    3.490593   19.664023    ( 0.0000,  0.0000,  0.0000)
 115 Li    12.283235    5.239653   19.665903    ( 0.0000,  0.0000,  0.0000)
 116 Li     9.871211    6.980000   10.000000    ( 0.0000,  0.0000,  0.0000)
 117 Li    12.339013    8.725000   10.000000    ( 0.0000,  0.0000,  0.0000)
 118 Li    12.339013    6.980000   12.467803    ( 0.0000,  0.0000,  0.0000)
 119 Li     9.871211    8.725000   12.467803    ( 0.0000,  0.0000,  0.0000)
 120 Li    14.806816    6.980000   14.935605    ( 0.0000,  0.0000,  0.0000)
 121 Li    12.339013    8.725000   14.935605    ( 0.0000,  0.0000,  0.0000)
 122 Li    12.338727    6.980662   17.331311    ( 0.0000,  0.0000,  0.0000)
 123 Li    14.802046    8.725360   17.325158    ( 0.0000,  0.0000,  0.0000)
 124 Li    14.872150    6.986144   19.663940    ( 0.0000,  0.0000,  0.0000)
 125 Li    12.283859    8.724952   19.665082    ( 0.0000,  0.0000,  0.0000)
 126 Li     9.871211   10.470000   10.000000    ( 0.0000,  0.0000,  0.0000)
 127 Li    12.339013   12.215000   10.000000    ( 0.0000,  0.0000,  0.0000)
 128 Li    12.339013   10.470000   12.467803    ( 0.0000,  0.0000,  0.0000)
 129 Li     9.871211   12.215000   12.467803    ( 0.0000,  0.0000,  0.0000)
 130 Li    14.806816   10.470000   14.935605    ( 0.0000,  0.0000,  0.0000)
 131 Li    12.339013   12.215000   14.935605    ( 0.0000,  0.0000,  0.0000)
 132 Li    12.339034   10.469283   17.331161    ( 0.0000,  0.0000,  0.0000)
 133 Li    14.807963   12.213010   17.329869    ( 0.0000,  0.0000,  0.0000)
 134 Li    14.871788   10.464131   19.663355    ( 0.0000,  0.0000,  0.0000)
 135 Li    12.283159   12.210705   19.665994    ( 0.0000,  0.0000,  0.0000)
 136 Li    14.806816    0.000000   10.000000    ( 0.0000,  0.0000,  0.0000)
 137 Li    17.274619    1.745000   10.000000    ( 0.0000,  0.0000,  0.0000)
 138 Li    17.274619    0.000000   12.467803    ( 0.0000,  0.0000,  0.0000)
 139 Li    14.806816    1.745000   12.467803    ( 0.0000,  0.0000,  0.0000)
 140 Li    19.742421    0.000000   14.935605    ( 0.0000,  0.0000,  0.0000)
 141 Li    17.274619    1.745000   14.935605    ( 0.0000,  0.0000,  0.0000)
 142 Li    17.273516   -0.006400   17.365245    ( 0.0000,  0.0000,  0.0000)
 143 Li    19.751797    1.743283   17.330065    ( 0.0000,  0.0000,  0.0000)
 144 Li    19.889012   -0.022597   19.691401    ( 0.0000,  0.0000,  0.0000)
 145 Li    17.417852    1.747157   19.739080    ( 0.0000,  0.0000,  0.0000)
 146 Li    14.806816    3.490000   10.000000    ( 0.0000,  0.0000,  0.0000)
 147 Li    17.274619    5.235000   10.000000    ( 0.0000,  0.0000,  0.0000)
 148 Li    17.274619    3.490000   12.467803    ( 0.0000,  0.0000,  0.0000)
 149 Li    14.806816    5.235000   12.467803    ( 0.0000,  0.0000,  0.0000)
 150 Li    19.742421    3.490000   14.935605    ( 0.0000,  0.0000,  0.0000)
 151 Li    17.274619    5.235000   14.935605    ( 0.0000,  0.0000,  0.0000)
 152 Li    17.274834    3.493649   17.360588    ( 0.0000,  0.0000,  0.0000)
 153 Li    19.749599    5.230976   17.314001    ( 0.0000,  0.0000,  0.0000)
 154 Li    19.894156    3.502714   19.688399    ( 0.0000,  0.0000,  0.0000)
 155 Li    17.423856    5.223255   19.762187    ( 0.0000,  0.0000,  0.0000)
 156 Li    14.806816    6.980000   10.000000    ( 0.0000,  0.0000,  0.0000)
 157 Li    17.274619    8.725000   10.000000    ( 0.0000,  0.0000,  0.0000)
 158 Li    17.274619    6.980000   12.467803    ( 0.0000,  0.0000,  0.0000)
 159 Li    14.806816    8.725000   12.467803    ( 0.0000,  0.0000,  0.0000)
 160 Li    19.742421    6.980000   14.935605    ( 0.0000,  0.0000,  0.0000)
 161 Li    17.274619    8.725000   14.935605    ( 0.0000,  0.0000,  0.0000)
 162 Li    17.282845    6.998115   17.392192    ( 0.0000,  0.0000,  0.0000)
 163 Li    19.771071    8.719189   17.296736    ( 0.0000,  0.0000,  0.0000)
 164 Li    19.890260    6.995364   19.666619    ( 0.0000,  0.0000,  0.0000)
 165 Li    17.457980    8.727754   19.852330    ( 0.0000,  0.0000,  0.0000)
 166 Li    14.806816   10.470000   10.000000    ( 0.0000,  0.0000,  0.0000)
 167 Li    17.274619   12.215000   10.000000    ( 0.0000,  0.0000,  0.0000)
 168 Li    17.274619   10.470000   12.467803    ( 0.0000,  0.0000,  0.0000)
 169 Li    14.806816   12.215000   12.467803    ( 0.0000,  0.0000,  0.0000)
 170 Li    19.742421   10.470000   14.935605    ( 0.0000,  0.0000,  0.0000)
 171 Li    17.274619   12.215000   14.935605    ( 0.0000,  0.0000,  0.0000)
 172 Li    17.287036   10.454624   17.393771    ( 0.0000,  0.0000,  0.0000)
 173 Li    19.754330   12.226559   17.304674    ( 0.0000,  0.0000,  0.0000)
 174 Li    19.892419   10.464477   19.645989    ( 0.0000,  0.0000,  0.0000)
 175 Li    17.427527   12.221850   19.777414    ( 0.0000,  0.0000,  0.0000)
 176 Li     2.460100    9.015226   24.267655    ( 0.0000,  0.0000,  0.0000)

Unit cell:
           periodic     x           y           z      points  spacing
  1. axis:    yes   19.742421    0.000000    0.000000   100     0.1974
  2. axis:    yes    0.000000   13.960000    0.000000    68     0.2053
  3. axis:    no     0.000000    0.000000   32.339013   160     0.2021

  Lengths:  19.742421  13.960000  32.339013
  Angles:   90.000000  90.000000  90.000000

Effective grid spacing dv^(1/3) = 0.2016

     iter     time        total  log10-change:
                         energy   eigst   dens
iter:   1 06:25:45  -310.495021        c
iter:   2 06:26:31  -310.494969        c -3.80
iter:   3 06:27:19  -310.494923c       c -4.01c

Converged after 3 iterations.

Dipole moment: (-39.037324, -17.804454, 0.768854) |e|*Ang

Energy contributions relative to reference atoms: (reference = -35893.444183)

Kinetic:       +329.659822
Potential:     -280.239351
External:        +0.000000
XC:            -354.772691
Entropy (-ST):   -5.749226
Local:           -2.268090
SIC:             +0.000000
--------------------------
Free energy:   -313.369536
Extrapolated:  -310.494923

Showing all kpts
 Kpt  Band  Eigenvalues  Occupancy
  0    86     -2.88725    1.14006
  0    87     -2.87250    1.09153
  0    88     -2.84006    0.98366
  0    89     -2.83098    0.95342

  1    86     -2.88717    1.13980
  1    87     -2.87246    1.09141
  1    88     -2.84087    0.98639
  1    89     -2.82977    0.94942


Fermi level: -2.84496

Gap: 0.032 eV
Transition (v -> c):
  (s=0, k=1, n=87, [0.25, 0.25, 0.00]) -> (s=0, k=1, n=88, [0.25, 0.25, 0.00])
No difference between direct/indirect transitions

Forces in eV/Ang:
  0 Li   -0.00101   -0.00157    0.12758
  1 Li   -0.00453   -0.00039    0.12521
  2 Li    0.00112    0.00020   -0.06012
  3 Li   -0.00070    0.00028   -0.06087
  4 Li   -0.00381    0.00770   -0.05259
  5 Li    0.00381    0.00514   -0.06471
  6 Li   -0.00294   -0.00380    0.00540
  7 Li    0.00146   -0.00008   -0.00173
  8 Li    0.00921    0.00128    0.00347
  9 Li   -0.01477    0.00248    0.00980
 10 Li    0.00577    0.01392   -0.03273
 11 Li    0.00476   -0.00195   -0.01576
 12 Li   -0.00093    0.00139    0.12722
 13 Li   -0.00390    0.00114    0.12597
 14 Li    0.00109   -0.00055   -0.06229
 15 Li   -0.00032    0.00030   -0.05603
 16 Li   -0.00542   -0.00359   -0.04199
 17 Li    0.00439   -0.02068   -0.07915
 18 Li   -0.00364    0.00450    0.00715
 19 Li    0.00071   -0.00121   -0.00297
 20 Li    0.01119    0.00047    0.00338
 21 Li   -0.01563   -0.02210   -0.00669
 22 Li    0.00656   -0.00417   -0.03092
 23 Li    0.00376   -0.00418   -0.01645
 24 Li   -0.00140    0.00007    0.12566
 25 Li   -0.00339   -0.00009    0.12295
 26 Li    0.00120    0.00095   -0.05384
 27 Li    0.00001    0.00001   -0.05249
 28 Li   -0.00209   -0.00958   -0.06038
 29 Li    0.00529   -0.00190   -0.05044
 30 Li   -0.00153   -0.00021    0.00600
 31 Li    0.01043    0.00128    0.00081
 32 Li    0.02167   -0.00693   -0.00671
 33 Li   -0.01472    0.00291   -0.00773
 34 Li   -0.00232    0.03173    0.01957
 35 Li    0.02211   -0.00008   -0.01932
 36 Li   -0.00150    0.00012    0.12524
 37 Li   -0.00389   -0.00062    0.12529
 38 Li    0.00111   -0.00073   -0.05407
 39 Li   -0.00024   -0.00053   -0.05446
 40 Li   -0.00237    0.00576   -0.05612
 41 Li    0.00477    0.01710   -0.07297
 42 Li   -0.00139   -0.00082    0.01093
 43 Li    0.00372    0.00043   -0.00322
 44 Li    0.01961    0.00431   -0.00708
 45 Li   -0.01557    0.02179   -0.01826
 46 Li   -0.00642    0.03280   -0.08279
 47 Li    0.00612   -0.00544   -0.01008
 48 Li    0.00309   -0.00218    0.12850
 49 Li    0.00230   -0.00043    0.12681
 50 Li    0.00006    0.00023   -0.05790
 51 Li   -0.00041    0.00034   -0.06396
 52 Li    0.00424   -0.00278   -0.04095
 53 Li    0.00117   -0.00050   -0.07493
 54 Li   -0.00172    0.00143    0.00929
 55 Li    0.00052   -0.00044   -0.00064
 56 Li    0.00300   -0.00051   -0.00406
 57 Li    0.01232    0.00027    0.00199
 58 Li   -0.00406    0.00273   -0.01674
 59 Li   -0.00788   -0.00091   -0.02679
 60 Li    0.00299    0.00191    0.12805
 61 Li    0.00027    0.00102    0.12562
 62 Li   -0.00013   -0.00022   -0.05706
 63 Li   -0.00119   -0.00047   -0.06173
 64 Li    0.00361    0.00252   -0.04064
 65 Li    0.00262   -0.00123   -0.07957
 66 Li   -0.00018   -0.00194    0.00872
 67 Li    0.00065    0.00111   -0.00325
 68 Li    0.00213    0.00034   -0.00337
 69 Li    0.01117   -0.00115    0.00211
 70 Li   -0.00524   -0.00278   -0.01444
 71 Li   -0.00389   -0.00294   -0.02957
 72 Li    0.00329    0.00070    0.12647
 73 Li   -0.00083   -0.00001    0.12562
 74 Li    0.00030    0.00042   -0.05716
 75 Li   -0.00178    0.00002   -0.05727
 76 Li    0.00346    0.00174   -0.03972
 77 Li    0.00584   -0.00093   -0.08496
 78 Li    0.00103    0.00040    0.00991
 79 Li    0.00076    0.00025   -0.00342
 80 Li    0.00984   -0.00174   -0.00892
 81 Li    0.01022   -0.00248    0.00526
 82 Li    0.00492   -0.00648   -0.01825
 83 Li   -0.02839   -0.00081   -0.03298
 84 Li    0.00342   -0.00044    0.12589
 85 Li    0.00003   -0.00062    0.12536
 86 Li    0.00037   -0.00050   -0.05663
 87 Li   -0.00132    0.00029   -0.06010
 88 Li    0.00302   -0.00140   -0.03950
 89 Li    0.00325    0.00247   -0.08193
 90 Li    0.00091   -0.00018    0.00803
 91 Li    0.00079   -0.00087   -0.00349
 92 Li    0.01032    0.00200   -0.00888
 93 Li    0.01436    0.00267    0.00200
 94 Li    0.00712    0.00564   -0.01636
 95 Li   -0.00797   -0.00825   -0.02141
 96 Li    0.00035    0.00022    0.12418
 97 Li    0.00076    0.00026    0.12322
 98 Li    0.00002    0.00028   -0.05958
 99 Li    0.00138    0.00005   -0.05781
100 Li   -0.00429    0.00044   -0.05569
101 Li    0.00397   -0.00000   -0.05509
102 Li   -0.00209   -0.00125    0.02199
[...]
139 Li   -0.00013   -0.00002   -0.06054
140 Li   -0.00310    0.01077   -0.08367
141 Li   -0.00225   -0.00221   -0.03596
142 Li    0.00118   -0.00095   -0.00013
143 Li    0.00084   -0.00009    0.00554
144 Li   -0.00756   -0.00099    0.00119
145 Li   -0.00358   -0.00048   -0.00426
146 Li   -0.00182   -0.00056    0.12542
147 Li    0.00220    0.00116    0.12275
148 Li   -0.00112   -0.00019   -0.05635
149 Li    0.00015   -0.00027   -0.06018
150 Li   -0.00121   -0.00617   -0.07431
151 Li   -0.00409    0.01047   -0.03089
152 Li   -0.00050   -0.00036   -0.00058
153 Li    0.00053   -0.00131    0.00412
154 Li   -0.00693    0.00141   -0.00112
155 Li   -0.00502    0.00202   -0.00426
156 Li    0.00040    0.00029    0.12464
157 Li    0.00194    0.00002    0.12196
158 Li   -0.00171   -0.00011   -0.05843
159 Li   -0.00014    0.00011   -0.06072
160 Li   -0.00592   -0.00914   -0.08291
161 Li   -0.00694    0.00044   -0.03566
162 Li   -0.00118   -0.00011   -0.00477
163 Li   -0.00608    0.00113    0.00542
164 Li   -0.01270   -0.00251   -0.00867
165 Li   -0.01294   -0.00081   -0.01942
166 Li    0.00050   -0.00039    0.12475
167 Li    0.00255   -0.00093    0.12257
168 Li   -0.00158   -0.00002   -0.05812
169 Li    0.00003    0.00012   -0.06023
170 Li   -0.00547    0.00477   -0.07803
171 Li   -0.00506   -0.00891   -0.03215
172 Li   -0.00229    0.00124   -0.00536
173 Li   -0.00208    0.00013    0.00343
174 Li   -0.00993   -0.00005   -0.00851
175 Li   -0.00838   -0.00026   -0.00673
176 Li   -0.00424   -0.04069    0.02660

System changes: positions 

Initializing position-dependent things.

Density initialized from wave functions
          .------------------------------------------------.  
         /|                                                |  
        / |                                                |  
       /  |                                                |  
      /   |                                                |  
     /    |                                                |  
    /     |                                                |  
   /      |                                                |  
  /       |                                                |  
 *        |                                                |  
 |        |                                                |  
 |        |                                                |  
 |        |                                                |  
 |        |  Li Li           Li                            |  
 |        |          Li                                   Li  
 |        |   Li      Li  Li                               |  
 |     Li Li       Li                          Li          |  
 |        | Li Li       Li Li          Li           Li     |  
 |      Li|      Li Li          Li           Li      Li    |  
 |       Li  Li          Li Li       Li  Li       Li Li    |  
 |    Li Li   Li  Li LLi      Li Li       Li  Li           |  
 |        |Li Li      Li  Li       Li Li        Li Li      |  
 |  Li Li |    Li  Li      Li  Li       Li Li              |  
 |      Li| Li Li       Li Li       Li Li    Li Li  Li     |  
 |  Li  Li|      Li Li       Li LLi      Li  Li            |  
 |       Li  Li       Li Li       Li Li       Li  Li       |  
 |Li Li  Li   Li  Li Li    Li Li Li    Li Li  Li           |  
 |        Li  Li       Li Li       Li Li       Li  Li      |  
 | Li  Li |    Li  Li       Li Li       Li Li              |  
 |      Li| Li Li    Li Li Li    Li Li Li    Li Li  Li     |  
 |  Li  Li|      Li Li       Li Li       Li  Li            |  
 Li      Li  Li       Li Li       Li LLi      Li  Li       |  
 |Li Li   |   Li  Li       Li Li       Li Li               |  
 |        Li           Li          Li          Li          |  
 | Li  Li |    Li  Li       Li  Li      Li  Li             |  
 |        |                                                |  
 |      Li|          Li          Li          Li            |  
 Li       |  Li          Li           Li                   |  
 |        |                                                |  
 |        |                                                |  
 |        .------------------------------------------------.  
 |       /                                                /   
 |      /                                                /    
 |     /                                                /     
 |    /                                                /      
 |   /                                                /       
 |  /                                                /        
 | /                                                /         
 |/                                                /          
 *------------------------------------------------*           

Atomic positions and initial magnetic moments

Positions:
   0 Li     0.000000    0.000000   10.000000    ( 0.0000,  0.0000,  0.0000)
   1 Li     2.467803    1.745000   10.000000    ( 0.0000,  0.0000,  0.0000)
   2 Li     2.467803    0.000000   12.467803    ( 0.0000,  0.0000,  0.0000)
   3 Li     0.000000    1.745000   12.467803    ( 0.0000,  0.0000,  0.0000)
   4 Li     4.935605    0.000000   14.935605    ( 0.0000,  0.0000,  0.0000)
   5 Li     2.467803    1.745000   14.935605    ( 0.0000,  0.0000,  0.0000)
   6 Li     2.470612    0.014633   17.344799    ( 0.0000,  0.0000,  0.0000)
   7 Li     4.932547    1.741433   17.387868    ( 0.0000,  0.0000,  0.0000)
   8 Li     4.897379   -0.024708   19.831849    ( 0.0000,  0.0000,  0.0000)
   9 Li     2.519068    1.734323   19.784355    ( 0.0000,  0.0000,  0.0000)
  10 Li     2.414044   -0.037729   22.100230    ( 0.0000,  0.0000,  0.0000)
  11 Li    -0.128729    1.738296   22.005706    ( 0.0000,  0.0000,  0.0000)
  12 Li     0.000000    3.490000   10.000000    ( 0.0000,  0.0000,  0.0000)
  13 Li     2.467803    5.235000   10.000000    ( 0.0000,  0.0000,  0.0000)
  14 Li     2.467803    3.490000   12.467803    ( 0.0000,  0.0000,  0.0000)
  15 Li     0.000000    5.235000   12.467803    ( 0.0000,  0.0000,  0.0000)
  16 Li     4.935605    3.490000   14.935605    ( 0.0000,  0.0000,  0.0000)
  17 Li     2.467803    5.235000   14.935605    ( 0.0000,  0.0000,  0.0000)
  18 Li     2.472167    3.486223   17.360569    ( 0.0000,  0.0000,  0.0000)
  19 Li     4.935317    5.234185   17.373175    ( 0.0000,  0.0000,  0.0000)
  20 Li     4.887523    3.504643   19.822469    ( 0.0000,  0.0000,  0.0000)
  21 Li     2.520183    5.253128   19.757739    ( 0.0000,  0.0000,  0.0000)
  22 Li     2.408306    3.503248   22.094795    ( 0.0000,  0.0000,  0.0000)
  23 Li    -0.093337    5.296276   22.035134    ( 0.0000,  0.0000,  0.0000)
  24 Li     0.000000    6.980000   10.000000    ( 0.0000,  0.0000,  0.0000)
  25 Li     2.467803    8.725000   10.000000    ( 0.0000,  0.0000,  0.0000)
  26 Li     2.467803    6.980000   12.467803    ( 0.0000,  0.0000,  0.0000)
  27 Li     0.000000    8.725000   12.467803    ( 0.0000,  0.0000,  0.0000)
  28 Li     4.935605    6.980000   14.935605    ( 0.0000,  0.0000,  0.0000)
  29 Li     2.467803    8.725000   14.935605    ( 0.0000,  0.0000,  0.0000)
  30 Li     2.470877    6.945692   17.319603    ( 0.0000,  0.0000,  0.0000)
  31 Li     4.927059    8.718726   17.350946    ( 0.0000,  0.0000,  0.0000)
  32 Li     4.904130    6.996607   19.810445    ( 0.0000,  0.0000,  0.0000)
  33 Li     2.526291    8.707469   19.635398    ( 0.0000,  0.0000,  0.0000)
  34 Li     2.448667    7.019030   22.026435    ( 0.0000,  0.0000,  0.0000)
  35 Li     0.038178    8.751183   22.115383    ( 0.0000,  0.0000,  0.0000)
  36 Li     0.000000   10.470000   10.000000    ( 0.0000,  0.0000,  0.0000)
  37 Li     2.467803   12.215000   10.000000    ( 0.0000,  0.0000,  0.0000)
  38 Li     2.467803   10.470000   12.467803    ( 0.0000,  0.0000,  0.0000)
  39 Li     0.000000   12.215000   12.467803    ( 0.0000,  0.0000,  0.0000)
  40 Li     4.935605   10.470000   14.935605    ( 0.0000,  0.0000,  0.0000)
  41 Li     2.467803   12.215000   14.935605    ( 0.0000,  0.0000,  0.0000)
  42 Li     2.472620   10.493397   17.324245    ( 0.0000,  0.0000,  0.0000)
  43 Li     4.934047   12.225741   17.362915    ( 0.0000,  0.0000,  0.0000)
  44 Li     4.897430   10.463258   19.786969    ( 0.0000,  0.0000,  0.0000)
  45 Li     2.522715   12.226261   19.711650    ( 0.0000,  0.0000,  0.0000)
  46 Li     2.451107   10.470945   21.898649    ( 0.0000,  0.0000,  0.0000)
  47 Li    -0.073040   12.131839   22.054605    ( 0.0000,  0.0000,  0.0000)
  48 Li     4.935605    0.000000   10.000000    ( 0.0000,  0.0000,  0.0000)
  49 Li     7.403408    1.745000   10.000000    ( 0.0000,  0.0000,  0.0000)
  50 Li     7.403408    0.000000   12.467803    ( 0.0000,  0.0000,  0.0000)
  51 Li     4.935605    1.745000   12.467803    ( 0.0000,  0.0000,  0.0000)
  52 Li     9.871211    0.000000   14.935605    ( 0.0000,  0.0000,  0.0000)
  53 Li     7.403408    1.745000   14.935605    ( 0.0000,  0.0000,  0.0000)
  54 Li     7.392611   -0.001397   17.315043    ( 0.0000,  0.0000,  0.0000)
  55 Li     9.868019    1.744669   17.358364    ( 0.0000,  0.0000,  0.0000)
  56 Li     9.724960    0.002353   19.748257    ( 0.0000,  0.0000,  0.0000)
  57 Li     7.255403    1.744326   19.667130    ( 0.0000,  0.0000,  0.0000)
  58 Li     7.493303   -0.024227   21.995957    ( 0.0000,  0.0000,  0.0000)
  59 Li     4.965514    1.744749   22.136376    ( 0.0000,  0.0000,  0.0000)
  60 Li     4.935605    3.490000   10.000000    ( 0.0000,  0.0000,  0.0000)
  61 Li     7.403408    5.235000   10.000000    ( 0.0000,  0.0000,  0.0000)
  62 Li     7.403408    3.490000   12.467803    ( 0.0000,  0.0000,  0.0000)
  63 Li     4.935605    5.235000   12.467803    ( 0.0000,  0.0000,  0.0000)
  64 Li     9.871211    3.490000   14.935605    ( 0.0000,  0.0000,  0.0000)
  65 Li     7.403408    5.235000   14.935605    ( 0.0000,  0.0000,  0.0000)
  66 Li     7.389691    3.491056   17.315517    ( 0.0000,  0.0000,  0.0000)
  67 Li     9.866875    5.240482   17.365332    ( 0.0000,  0.0000,  0.0000)
  68 Li     9.727350    3.487627   19.743437    ( 0.0000,  0.0000,  0.0000)
  69 Li     7.260111    5.242028   19.663482    ( 0.0000,  0.0000,  0.0000)
  70 Li     7.504402    3.504325   21.993994    ( 0.0000,  0.0000,  0.0000)
  71 Li     4.948140    5.255259   22.169244    ( 0.0000,  0.0000,  0.0000)
  72 Li     4.935605    6.980000   10.000000    ( 0.0000,  0.0000,  0.0000)
  73 Li     7.403408    8.725000   10.000000    ( 0.0000,  0.0000,  0.0000)
  74 Li     7.403408    6.980000   12.467803    ( 0.0000,  0.0000,  0.0000)
  75 Li     4.935605    8.725000   12.467803    ( 0.0000,  0.0000,  0.0000)
  76 Li     9.871211    6.980000   14.935605    ( 0.0000,  0.0000,  0.0000)
  77 Li     7.403408    8.725000   14.935605    ( 0.0000,  0.0000,  0.0000)
  78 Li     7.386451    6.979970   17.308770    ( 0.0000,  0.0000,  0.0000)
  79 Li     9.865334    8.725626   17.368371    ( 0.0000,  0.0000,  0.0000)
  80 Li     9.716132    6.983617   19.766823    ( 0.0000,  0.0000,  0.0000)
  81 Li     7.254801    8.729949   19.648585    ( 0.0000,  0.0000,  0.0000)
  82 Li     7.460968    7.016817   21.999597    ( 0.0000,  0.0000,  0.0000)
  83 Li     4.893216    8.747359   22.210965    ( 0.0000,  0.0000,  0.0000)
  84 Li     4.935605   10.470000   10.000000    ( 0.0000,  0.0000,  0.0000)
  85 Li     7.403408   12.215000   10.000000    ( 0.0000,  0.0000,  0.0000)
  86 Li     7.403408   10.470000   12.467803    ( 0.0000,  0.0000,  0.0000)
  87 Li     4.935605   12.215000   12.467803    ( 0.0000,  0.0000,  0.0000)
  88 Li     9.871211   10.470000   14.935605    ( 0.0000,  0.0000,  0.0000)
  89 Li     7.403408   12.215000   14.935605    ( 0.0000,  0.0000,  0.0000)
  90 Li     7.381986   10.470308   17.306053    ( 0.0000,  0.0000,  0.0000)
  91 Li     9.867010   12.209232   17.366101    ( 0.0000,  0.0000,  0.0000)
  92 Li     9.718741   10.466423   19.765992    ( 0.0000,  0.0000,  0.0000)
  93 Li     7.262491   12.203547   19.659711    ( 0.0000,  0.0000,  0.0000)
  94 Li     7.470614   10.442884   22.000020    ( 0.0000,  0.0000,  0.0000)
  95 Li     4.937065   12.169967   22.187905    ( 0.0000,  0.0000,  0.0000)
  96 Li     9.871211    0.000000   10.000000    ( 0.0000,  0.0000,  0.0000)
  97 Li    12.339013    1.745000   10.000000    ( 0.0000,  0.0000,  0.0000)
  98 Li    12.339013    0.000000   12.467803    ( 0.0000,  0.0000,  0.0000)
  99 Li     9.871211    1.745000   12.467803    ( 0.0000,  0.0000,  0.0000)
 100 Li    14.806816    0.000000   14.935605    ( 0.0000,  0.0000,  0.0000)
 101 Li    12.339013    1.745000   14.935605    ( 0.0000,  0.0000,  0.0000)
 102 Li    12.336648   -0.000862   17.336433    ( 0.0000,  0.0000,  0.0000)
 103 Li    14.807417    1.745223   17.334063    ( 0.0000,  0.0000,  0.0000)
 104 Li    14.858217   -0.000931   19.662786    ( 0.0000,  0.0000,  0.0000)
 105 Li    12.284976    1.744634   19.664418    ( 0.0000,  0.0000,  0.0000)
 106 Li     9.871211    3.490000   10.000000    ( 0.0000,  0.0000,  0.0000)
 107 Li    12.339013    5.235000   10.000000    ( 0.0000,  0.0000,  0.0000)
 108 Li    12.339013    3.490000   12.467803    ( 0.0000,  0.0000,  0.0000)
 109 Li     9.871211    5.235000   12.467803    ( 0.0000,  0.0000,  0.0000)
 110 Li    14.806816    3.490000   14.935605    ( 0.0000,  0.0000,  0.0000)
 111 Li    12.339013    5.235000   14.935605    ( 0.0000,  0.0000,  0.0000)
 112 Li    12.336489    3.490901   17.336372    ( 0.0000,  0.0000,  0.0000)
 113 Li    14.809406    5.236832   17.334237    ( 0.0000,  0.0000,  0.0000)
 114 Li    14.856671    3.490609   19.662615    ( 0.0000,  0.0000,  0.0000)
 115 Li    12.284267    5.239820   19.664711    ( 0.0000,  0.0000,  0.0000)
 116 Li     9.871211    6.980000   10.000000    ( 0.0000,  0.0000,  0.0000)
 117 Li    12.339013    8.725000   10.000000    ( 0.0000,  0.0000,  0.0000)
 118 Li    12.339013    6.980000   12.467803    ( 0.0000,  0.0000,  0.0000)
 119 Li     9.871211    8.725000   12.467803    ( 0.0000,  0.0000,  0.0000)
 120 Li    14.806816    6.980000   14.935605    ( 0.0000,  0.0000,  0.0000)
 121 Li    12.339013    8.725000   14.935605    ( 0.0000,  0.0000,  0.0000)
 122 Li    12.338178    6.980629   17.335093    ( 0.0000,  0.0000,  0.0000)
 123 Li    14.802501    8.725481   17.329405    ( 0.0000,  0.0000,  0.0000)
 124 Li    14.870940    6.986020   19.662718    ( 0.0000,  0.0000,  0.0000)
 125 Li    12.284974    8.724913   19.663930    ( 0.0000,  0.0000,  0.0000)
 126 Li     9.871211   10.470000   10.000000    ( 0.0000,  0.0000,  0.0000)
 127 Li    12.339013   12.215000   10.000000    ( 0.0000,  0.0000,  0.0000)
 128 Li    12.339013   10.470000   12.467803    ( 0.0000,  0.0000,  0.0000)
 129 Li     9.871211   12.215000   12.467803    ( 0.0000,  0.0000,  0.0000)
 130 Li    14.806816   10.470000   14.935605    ( 0.0000,  0.0000,  0.0000)
 131 Li    12.339013   12.215000   14.935605    ( 0.0000,  0.0000,  0.0000)
 132 Li    12.338448   10.469313   17.335021    ( 0.0000,  0.0000,  0.0000)
 133 Li    14.808493   12.212480   17.333804    ( 0.0000,  0.0000,  0.0000)
 134 Li    14.870475   10.464312   19.662147    ( 0.0000,  0.0000,  0.0000)
 135 Li    12.284263   12.210628   19.664805    ( 0.0000,  0.0000,  0.0000)
 136 Li    14.806816    0.000000   10.000000    ( 0.0000,  0.0000,  0.0000)
 137 Li    17.274619    1.745000   10.000000    ( 0.0000,  0.0000,  0.0000)
 138 Li    17.274619    0.000000   12.467803    ( 0.0000,  0.0000,  0.0000)
 139 Li    14.806816    1.745000   12.467803    ( 0.0000,  0.0000,  0.0000)
 140 Li    19.742421    0.000000   14.935605    ( 0.0000,  0.0000,  0.0000)
 141 Li    17.274619    1.745000   14.935605    ( 0.0000,  0.0000,  0.0000)
 142 Li    17.273747   -0.006654   17.365453    ( 0.0000,  0.0000,  0.0000)
 143 Li    19.751906    1.743254   17.331328    ( 0.0000,  0.0000,  0.0000)
 144 Li    19.887719   -0.022871   19.691983    ( 0.0000,  0.0000,  0.0000)
 145 Li    17.417302    1.747083   19.738350    ( 0.0000,  0.0000,  0.0000)
 146 Li    14.806816    3.490000   10.000000    ( 0.0000,  0.0000,  0.0000)
 147 Li    17.274619    5.235000   10.000000    ( 0.0000,  0.0000,  0.0000)
 148 Li    17.274619    3.490000   12.467803    ( 0.0000,  0.0000,  0.0000)
 149 Li    14.806816    5.235000   12.467803    ( 0.0000,  0.0000,  0.0000)
 150 Li    19.742421    3.490000   14.935605    ( 0.0000,  0.0000,  0.0000)
 151 Li    17.274619    5.235000   14.935605    ( 0.0000,  0.0000,  0.0000)
 152 Li    17.274718    3.493537   17.360589    ( 0.0000,  0.0000,  0.0000)
 153 Li    19.749733    5.230787   17.315171    ( 0.0000,  0.0000,  0.0000)
 154 Li    19.893155    3.503102   19.688518    ( 0.0000,  0.0000,  0.0000)
 155 Li    17.423053    5.223668   19.761439    ( 0.0000,  0.0000,  0.0000)
 156 Li    14.806816    6.980000   10.000000    ( 0.0000,  0.0000,  0.0000)
 157 Li    17.274619    8.725000   10.000000    ( 0.0000,  0.0000,  0.0000)
 158 Li    17.274619    6.980000   12.467803    ( 0.0000,  0.0000,  0.0000)
 159 Li    14.806816    8.725000   12.467803    ( 0.0000,  0.0000,  0.0000)
 160 Li    19.742421    6.980000   14.935605    ( 0.0000,  0.0000,  0.0000)
 161 Li    17.274619    8.725000   14.935605    ( 0.0000,  0.0000,  0.0000)
 162 Li    17.282556    6.998179   17.391400    ( 0.0000,  0.0000,  0.0000)
 163 Li    19.769830    8.719332   17.298099    ( 0.0000,  0.0000,  0.0000)
 164 Li    19.887599    6.995029   19.665172    ( 0.0000,  0.0000,  0.0000)
 165 Li    17.455374    8.727609   19.848473    ( 0.0000,  0.0000,  0.0000)
 166 Li    14.806816   10.470000   10.000000    ( 0.0000,  0.0000,  0.0000)
 167 Li    17.274619   12.215000   10.000000    ( 0.0000,  0.0000,  0.0000)
 168 Li    17.274619   10.470000   12.467803    ( 0.0000,  0.0000,  0.0000)
 169 Li    14.806816   12.215000   12.467803    ( 0.0000,  0.0000,  0.0000)
 170 Li    19.742421   10.470000   14.935605    ( 0.0000,  0.0000,  0.0000)
 171 Li    17.274619   12.215000   14.935605    ( 0.0000,  0.0000,  0.0000)
 172 Li    17.286618   10.454869   17.392886    ( 0.0000,  0.0000,  0.0000)
 173 Li    19.753977   12.226654   17.305513    ( 0.0000,  0.0000,  0.0000)
 174 Li    19.890677   10.464388   19.644378    ( 0.0000,  0.0000,  0.0000)
 175 Li    17.426016   12.221751   19.776391    ( 0.0000,  0.0000,  0.0000)
 176 Li     2.459347    9.011647   24.274353    ( 0.0000,  0.0000,  0.0000)

Unit cell:
           periodic     x           y           z      points  spacing
  1. axis:    yes   19.742421    0.000000    0.000000   100     0.1974
  2. axis:    yes    0.000000   13.960000    0.000000    68     0.2053
  3. axis:    no     0.000000    0.000000   32.339013   160     0.2021

  Lengths:  19.742421  13.960000  32.339013
  Angles:   90.000000  90.000000  90.000000

Effective grid spacing dv^(1/3) = 0.2016

     iter     time        total  log10-change:
                         energy   eigst   dens
iter:   1 08:42:49  -310.500367        c
iter:   2 08:43:38  -310.500557        c -3.27
iter:   3 08:44:27  -310.500308c       c -3.24
iter:   4 08:45:12  -310.500273c       c -3.80
iter:   5 08:46:02  -310.500273c       c -4.07c

Converged after 5 iterations.

Dipole moment: (-39.075399, -17.830382, 0.775669) |e|*Ang

Energy contributions relative to reference atoms: (reference = -35893.444183)

Kinetic:       +329.796510
Potential:     -280.318550
External:        +0.000000
XC:            -354.836129
Entropy (-ST):   -5.748723
Local:           -2.267742
SIC:             +0.000000
--------------------------
Free energy:   -313.374635
Extrapolated:  -310.500273

Showing all kpts
 Kpt  Band  Eigenvalues  Occupancy
  0    86     -2.88632    1.14061
  0    87     -2.87163    1.09232
  0    88     -2.83915    0.98432
  0    89     -2.83002    0.95391

  1    86     -2.88617    1.14014
  1    87     -2.87160    1.09221
  1    88     -2.83997    0.98706
  1    89     -2.82899    0.95049


Fermi level: -2.84385

Gap: 0.032 eV
Transition (v -> c):
  (s=0, k=1, n=87, [0.25, 0.25, 0.00]) -> (s=0, k=1, n=88, [0.25, 0.25, 0.00])
No difference between direct/indirect transitions
