
  ___ ___ ___ _ _ _  
 |   |   |_  | | | | 
 | | | | | . | | | | 
 |__ |  _|___|_____|  25.7.0
 |___|_|             

User:   tew@Mathuss-MacBook-Air-357.local
Date:   Wed Nov 26 03:04:02 2025
Arch:   arm64
Pid:    56558
CWD:    /Users/tew/Documents/Project/GitHub/chem-com/step
Python: 3.13.5
gpaw:   /Users/tew/Documents/Project/GitHub/chem-com/.venv/lib/python3.13/site-packages/gpaw
_gpaw:  /Users/tew/Documents/Project/GitHub/chem-com/.venv/lib/python3.13/site-packages/
        _gpaw.cpython-313-darwin.so
ase:    /Users/tew/Documents/Project/GitHub/chem-com/.venv/lib/python3.13/site-packages/ase (version 3.26.0)
numpy:  /Users/tew/Documents/Project/GitHub/chem-com/.venv/lib/python3.13/site-packages/numpy (version 2.3.5)
scipy:  /Users/tew/Documents/Project/GitHub/chem-com/.venv/lib/python3.13/site-packages/scipy (version 1.16.3)
libxc:  2.x.y
units:  Angstrom and eV
cores: 1
OpenMP: False
OMP_NUM_THREADS: 1

Input parameters:
  basis: dzp
  convergence: {density: 0.0001,
                eigenstates: 5e-06}
  kpts: [2 2 1]
  mode: {interpolation: 3,
         name: lcao}
  occupations: {fixmagmom: False,
                name: fermi-dirac,
                width: 0.15}
  xc: PBE

System changes: positions, numbers, cell, pbc, initial_charges, initial_magmoms 

Initialize ...

species:
  Li:
    name: Lithium
    id: 830b4218f175192f93f959cfc0aad614
    Z: 3.0
    valence: 1
    core: 2
    charge: 0.0
    file: /Users/tew/Documents/Project/GitHub/chem-com/.venv/lib/python3.13/site-packages/gpaw_data/setups/Li.PBE.gz
    compensation charges: {type: gauss,
                           rc: 0.33,
                           lmax: 2}
    cutoffs: {filter: 1.91,
              core: 2.55}
    projectors:
      #              energy  rcut
      - 2s(1.00)    -2.874   1.058
      - 2p(0.00)    -1.090   1.058
      -  s          24.337   1.058
  
    # LCAO basis set for Li:
    #   Name: dzp
    #   File: /Users/tew/Documents/Project/GitHub/chem-com/.venv/lib/python3.13/site-packages/gpaw_data/setups/Li.dzp.basis.gz
    #   Number of radial functions: 3
    #   Number of spherical harmonics: 5
    #     l=0, rc=10.8906 Bohr: 2s-sz confined orbital
    #     l=0, rc=6.6719 Bohr: 2s-dz split-valence wave
    #     l=1, rc=10.8906 Bohr: p-type Gaussian polarization
    #   Number of RI-basis functions 0

Reference energy: -35893.444183  # eV

Spin-paired calculation

Convergence criteria:
 Maximum [total energy] change in last 3 cyles: 0.0005 eV / valence electron
 Maximum integral of absolute [dens]ity change: 0.0001 electrons / valence electron
 Maximum integral of absolute [eigenst]ate change: 5e-06 eV^2 / valence electron
 Maximum number of scf [iter]ations: 333
 (Square brackets indicate name in SCF output, whereas a 'c' in
 the SCF output indicates the quantity has converged.)

Symmetries present (total): 1

  ( 1  0  0)
  ( 0  1  0)
  ( 0  0  1)

4 k-points: 2 x 2 x 1 Monkhorst-Pack grid
2 k-points in the irreducible part of the Brillouin zone
       k-points in crystal coordinates                weights
   0:     0.25000000   -0.25000000    0.00000000          2/4
   1:     0.25000000    0.25000000    0.00000000          2/4

Wave functions: LCAO
  Diagonalizer: Serial LAPACK
  Atomic Correction: dense with blas
  Data-type: complex
 

Occupation numbers: Fermi-Dirac:
  width: 0.1500  # eV
 

Eigensolver
   LCAO using direct dense diagonalizer 

Densities:
  Coarse grid: 100*68*160 grid
  Fine grid: 200*136*320 grid
  Total Charge: 0.000000 

Density mixing:
  Method: separate
  Backend: pulay
  Linear mixing parameter: 0.05
  old densities: 5
  Damping of long wavelength oscillations: 50 

Hamiltonian:
  XC and Coulomb potentials evaluated on a 200*136*320 grid
  Using the PBE Exchange-Correlation functional
  Interpolation: tri-quintic (5. degree polynomial)
  Poisson solver: FastPoissonSolver using
    Stencil: 6*3+1=19 point O(h^6) finite-difference Laplacian
    FFT axes: [np.int64(0), np.int64(1)]
    FST axes: [np.int64(2)]
 

XC parameters: PBE with 2 nearest neighbor stencil

Memory estimate:
  Process memory now: 3793.11 MiB
  Calculator: 1570.72 MiB
    Density: 780.53 MiB
      Arrays: 215.09 MiB
      Localized functions: 482.94 MiB
      Mixer: 82.49 MiB
    Hamiltonian: 178.84 MiB
      Arrays: 140.65 MiB
      XC: 0.00 MiB
      Poisson: 0.00 MiB
      vbar: 38.19 MiB
    Wavefunctions: 611.36 MiB
      C [qnM]: 3.00 MiB
      S, T [2 x qmm]: 47.80 MiB
      P [aqMi]: 1.49 MiB
      BasisFunctions: 559.07 MiB
      Eigensolver: 0.00 MiB

Total number of cores used: 1

Number of atoms: 177
Number of atomic orbitals: 885
Number of bands in calculation: 111
Number of valence electrons: 177
Bands to converge: occupied

... initialized

Initializing position-dependent things.

Density initialized from atomic densities
          .------------------------------------------------.  
         /|                                                |  
        / |                                                |  
       /  |                                                |  
      /   |                                                |  
     /    |                                                |  
    /     |                                                |  
   /      |                                                |  
  /       |                                                |  
 *        |                                                |  
 |        |                                                |  
 |        |                                                |  
 |        |                                                |  
 |        |   LiLi           Li                            |  
 |        |          Li                                   Li  
 |        |   Li      Li  Li                               |  
 |     Li Li       Li                          Li          |  
 |        | Li Li       Li Li          Li           Li     |  
 |      Li|      Li Li          Li           Li      Li    |  
 |       Li  Li          Li Li       Li  Li       Li Li    |  
 |    Li Li   Li  Li LLi      Li Li       Li  Li           |  
 |        |Li Li      Li  Li       Li Li        Li Li      |  
 |  Li Li |    Li  Li      Li  Li       Li Li              |  
 |      Li| Li Li       Li Li       Li Li    Li Li  Li     |  
 |  Li  Li|      Li Li       Li LLi      Li  Li            |  
 |       Li  Li       Li Li       Li Li       Li  Li       |  
 |Li Li  Li   Li  Li Li    Li Li Li    Li Li  Li           |  
 |        Li  Li       Li Li       Li Li       Li  Li      |  
 | Li  Li |    Li  Li       Li Li       Li Li              |  
 |      Li| Li Li    Li Li Li    Li Li Li    Li Li  Li     |  
 |  Li  Li|      Li Li       Li Li       Li  Li            |  
 Li      Li  Li       Li Li       Li LLi      Li  Li       |  
 |Li Li   |   Li  Li       Li Li       Li Li               |  
 |        Li           Li          Li          Li          |  
 | Li  Li |    Li  Li       Li  Li      Li  Li             |  
 |        |                                                |  
 |      Li|          Li          Li          Li            |  
 Li       |  Li          Li           Li                   |  
 |        |                                                |  
 |        |                                                |  
 |        .------------------------------------------------.  
 |       /                                                /   
 |      /                                                /    
 |     /                                                /     
 |    /                                                /      
 |   /                                                /       
 |  /                                                /        
 | /                                                /         
 |/                                                /          
 *------------------------------------------------*           

Atomic positions and initial magnetic moments

Positions:
   0 Li     0.000000    0.000000   10.000000    ( 0.0000,  0.0000,  0.0000)
   1 Li     2.467803    1.745000   10.000000    ( 0.0000,  0.0000,  0.0000)
   2 Li     2.467803    0.000000   12.467803    ( 0.0000,  0.0000,  0.0000)
   3 Li     0.000000    1.745000   12.467803    ( 0.0000,  0.0000,  0.0000)
   4 Li     4.935605    0.000000   14.935605    ( 0.0000,  0.0000,  0.0000)
   5 Li     2.467803    1.745000   14.935605    ( 0.0000,  0.0000,  0.0000)
   6 Li     2.467785    0.043711   17.331803    ( 0.0000,  0.0000,  0.0000)
   7 Li     4.935635    1.731103   17.408825    ( 0.0000,  0.0000,  0.0000)
   8 Li     4.908861   -0.046608   19.872049    ( 0.0000,  0.0000,  0.0000)
   9 Li     2.522252    1.701089   19.820676    ( 0.0000,  0.0000,  0.0000)
  10 Li     2.425170   -0.109613   22.155010    ( 0.0000,  0.0000,  0.0000)
  11 Li    -0.118652    1.720324   22.033752    ( 0.0000,  0.0000,  0.0000)
  12 Li     0.000000    3.490000   10.000000    ( 0.0000,  0.0000,  0.0000)
  13 Li     2.467803    5.235000   10.000000    ( 0.0000,  0.0000,  0.0000)
  14 Li     2.467803    3.490000   12.467803    ( 0.0000,  0.0000,  0.0000)
  15 Li     0.000000    5.235000   12.467803    ( 0.0000,  0.0000,  0.0000)
  16 Li     4.935605    3.490000   14.935605    ( 0.0000,  0.0000,  0.0000)
  17 Li     2.467803    5.235000   14.935605    ( 0.0000,  0.0000,  0.0000)
  18 Li     2.474439    3.488107   17.392006    ( 0.0000,  0.0000,  0.0000)
  19 Li     4.936808    5.247246   17.403023    ( 0.0000,  0.0000,  0.0000)
  20 Li     4.868666    3.495841   19.835489    ( 0.0000,  0.0000,  0.0000)
  21 Li     2.522770    5.283499   19.811318    ( 0.0000,  0.0000,  0.0000)
  22 Li     2.402067    3.495666   22.132121    ( 0.0000,  0.0000,  0.0000)
  23 Li    -0.104360    5.282106   22.045641    ( 0.0000,  0.0000,  0.0000)
  24 Li     0.000000    6.980000   10.000000    ( 0.0000,  0.0000,  0.0000)
  25 Li     2.467803    8.725000   10.000000    ( 0.0000,  0.0000,  0.0000)
  26 Li     2.467803    6.980000   12.467803    ( 0.0000,  0.0000,  0.0000)
  27 Li     0.000000    8.725000   12.467803    ( 0.0000,  0.0000,  0.0000)
  28 Li     4.935605    6.980000   14.935605    ( 0.0000,  0.0000,  0.0000)
  29 Li     2.467803    8.725000   14.935605    ( 0.0000,  0.0000,  0.0000)
  30 Li     2.467769    6.928709   17.321609    ( 0.0000,  0.0000,  0.0000)
  31 Li     4.925946    8.699429   17.357960    ( 0.0000,  0.0000,  0.0000)
  32 Li     4.910550    7.023837   19.864311    ( 0.0000,  0.0000,  0.0000)
  33 Li     2.533923    8.654324   19.609690    ( 0.0000,  0.0000,  0.0000)
  34 Li     2.439760    7.086286   22.120956    ( 0.0000,  0.0000,  0.0000)
  35 Li     0.016612    8.827471   22.141821    ( 0.0000,  0.0000,  0.0000)
  36 Li     0.000000   10.470000   10.000000    ( 0.0000,  0.0000,  0.0000)
  37 Li     2.467803   12.215000   10.000000    ( 0.0000,  0.0000,  0.0000)
  38 Li     2.467803   10.470000   12.467803    ( 0.0000,  0.0000,  0.0000)
  39 Li     0.000000   12.215000   12.467803    ( 0.0000,  0.0000,  0.0000)
  40 Li     4.935605   10.470000   14.935605    ( 0.0000,  0.0000,  0.0000)
  41 Li     2.467803   12.215000   14.935605    ( 0.0000,  0.0000,  0.0000)
  42 Li     2.474466   10.479473   17.335747    ( 0.0000,  0.0000,  0.0000)
  43 Li     4.929314   12.242222   17.363120    ( 0.0000,  0.0000,  0.0000)
  44 Li     4.885831   10.466930   19.772823    ( 0.0000,  0.0000,  0.0000)
  45 Li     2.532563   12.281088   19.641244    ( 0.0000,  0.0000,  0.0000)
  46 Li     2.452712   10.467660   21.704231    ( 0.0000,  0.0000,  0.0000)
  47 Li    -0.026708   12.090099   22.116605    ( 0.0000,  0.0000,  0.0000)
  48 Li     4.935605    0.000000   10.000000    ( 0.0000,  0.0000,  0.0000)
  49 Li     7.403408    1.745000   10.000000    ( 0.0000,  0.0000,  0.0000)
  50 Li     7.403408    0.000000   12.467803    ( 0.0000,  0.0000,  0.0000)
  51 Li     4.935605    1.745000   12.467803    ( 0.0000,  0.0000,  0.0000)
  52 Li     9.871211    0.000000   14.935605    ( 0.0000,  0.0000,  0.0000)
  53 Li     7.403408    1.745000   14.935605    ( 0.0000,  0.0000,  0.0000)
  54 Li     7.397526   -0.001511   17.321126    ( 0.0000,  0.0000,  0.0000)
  55 Li     9.868485    1.744072   17.372674    ( 0.0000,  0.0000,  0.0000)
  56 Li     9.713889    0.001041   19.776897    ( 0.0000,  0.0000,  0.0000)
  57 Li     7.246680    1.742151   19.682969    ( 0.0000,  0.0000,  0.0000)
  58 Li     7.468025   -0.044663   22.017532    ( 0.0000,  0.0000,  0.0000)
  59 Li     4.960531    1.744734   22.164090    ( 0.0000,  0.0000,  0.0000)
  60 Li     4.935605    3.490000   10.000000    ( 0.0000,  0.0000,  0.0000)
  61 Li     7.403408    5.235000   10.000000    ( 0.0000,  0.0000,  0.0000)
  62 Li     7.403408    3.490000   12.467803    ( 0.0000,  0.0000,  0.0000)
  63 Li     4.935605    5.235000   12.467803    ( 0.0000,  0.0000,  0.0000)
  64 Li     9.871211    3.490000   14.935605    ( 0.0000,  0.0000,  0.0000)
  65 Li     7.403408    5.235000   14.935605    ( 0.0000,  0.0000,  0.0000)
  66 Li     7.384839    3.490589   17.323454    ( 0.0000,  0.0000,  0.0000)
  67 Li     9.868017    5.237948   17.375697    ( 0.0000,  0.0000,  0.0000)
  68 Li     9.723971    3.489017   19.757470    ( 0.0000,  0.0000,  0.0000)
  69 Li     7.248668    5.240477   19.681489    ( 0.0000,  0.0000,  0.0000)
  70 Li     7.512422    3.495991   22.007943    ( 0.0000,  0.0000,  0.0000)
  71 Li     4.953226    5.243610   22.177542    ( 0.0000,  0.0000,  0.0000)
  72 Li     4.935605    6.980000   10.000000    ( 0.0000,  0.0000,  0.0000)
  73 Li     7.403408    8.725000   10.000000    ( 0.0000,  0.0000,  0.0000)
  74 Li     7.403408    6.980000   12.467803    ( 0.0000,  0.0000,  0.0000)
  75 Li     4.935605    8.725000   12.467803    ( 0.0000,  0.0000,  0.0000)
  76 Li     9.871211    6.980000   14.935605    ( 0.0000,  0.0000,  0.0000)
  77 Li     7.403408    8.725000   14.935605    ( 0.0000,  0.0000,  0.0000)
  78 Li     7.394822    6.980785   17.318545    ( 0.0000,  0.0000,  0.0000)
  79 Li     9.867762    8.727247   17.379821    ( 0.0000,  0.0000,  0.0000)
  80 Li     9.709774    6.981549   19.784767    ( 0.0000,  0.0000,  0.0000)
  81 Li     7.252604    8.746400   19.662066    ( 0.0000,  0.0000,  0.0000)
  82 Li     7.454279    7.030038   22.019126    ( 0.0000,  0.0000,  0.0000)
  83 Li     4.897207    8.813060   22.254096    ( 0.0000,  0.0000,  0.0000)
  84 Li     4.935605   10.470000   10.000000    ( 0.0000,  0.0000,  0.0000)
  85 Li     7.403408   12.215000   10.000000    ( 0.0000,  0.0000,  0.0000)
  86 Li     7.403408   10.470000   12.467803    ( 0.0000,  0.0000,  0.0000)
  87 Li     4.935605   12.215000   12.467803    ( 0.0000,  0.0000,  0.0000)
  88 Li     9.871211   10.470000   14.935605    ( 0.0000,  0.0000,  0.0000)
  89 Li     7.403408   12.215000   14.935605    ( 0.0000,  0.0000,  0.0000)
  90 Li     7.377422   10.470137   17.309439    ( 0.0000,  0.0000,  0.0000)
  91 Li     9.868433   12.210733   17.378914    ( 0.0000,  0.0000,  0.0000)
  92 Li     9.719588   10.468394   19.781476    ( 0.0000,  0.0000,  0.0000)
  93 Li     7.255342   12.190972   19.666821    ( 0.0000,  0.0000,  0.0000)
  94 Li     7.490170   10.458634   22.019235    ( 0.0000,  0.0000,  0.0000)
  95 Li     4.913093   12.118596   22.243835    ( 0.0000,  0.0000,  0.0000)
  96 Li     9.871211    0.000000   10.000000    ( 0.0000,  0.0000,  0.0000)
  97 Li    12.339013    1.745000   10.000000    ( 0.0000,  0.0000,  0.0000)
  98 Li    12.339013    0.000000   12.467803    ( 0.0000,  0.0000,  0.0000)
  99 Li     9.871211    1.745000   12.467803    ( 0.0000,  0.0000,  0.0000)
 100 Li    14.806816    0.000000   14.935605    ( 0.0000,  0.0000,  0.0000)
 101 Li    12.339013    1.745000   14.935605    ( 0.0000,  0.0000,  0.0000)
 102 Li    12.338236   -0.000050   17.331422    ( 0.0000,  0.0000,  0.0000)
 103 Li    14.806993    1.746246   17.328702    ( 0.0000,  0.0000,  0.0000)
 104 Li    14.866290   -0.001295   19.672782    ( 0.0000,  0.0000,  0.0000)
 105 Li    12.281308    1.743793   19.673409    ( 0.0000,  0.0000,  0.0000)
 106 Li     9.871211    3.490000   10.000000    ( 0.0000,  0.0000,  0.0000)
 107 Li    12.339013    5.235000   10.000000    ( 0.0000,  0.0000,  0.0000)
 108 Li    12.339013    3.490000   12.467803    ( 0.0000,  0.0000,  0.0000)
 109 Li     9.871211    5.235000   12.467803    ( 0.0000,  0.0000,  0.0000)
 110 Li    14.806816    3.490000   14.935605    ( 0.0000,  0.0000,  0.0000)
 111 Li    12.339013    5.235000   14.935605    ( 0.0000,  0.0000,  0.0000)
 112 Li    12.337668    3.490266   17.331090    ( 0.0000,  0.0000,  0.0000)
 113 Li    14.807795    5.234378   17.328753    ( 0.0000,  0.0000,  0.0000)
 114 Li    14.860724    3.490236   19.672178    ( 0.0000,  0.0000,  0.0000)
 115 Li    12.280863    5.237935   19.673470    ( 0.0000,  0.0000,  0.0000)
 116 Li     9.871211    6.980000   10.000000    ( 0.0000,  0.0000,  0.0000)
 117 Li    12.339013    8.725000   10.000000    ( 0.0000,  0.0000,  0.0000)
 118 Li    12.339013    6.980000   12.467803    ( 0.0000,  0.0000,  0.0000)
 119 Li     9.871211    8.725000   12.467803    ( 0.0000,  0.0000,  0.0000)
 120 Li    14.806816    6.980000   14.935605    ( 0.0000,  0.0000,  0.0000)
 121 Li    12.339013    8.725000   14.935605    ( 0.0000,  0.0000,  0.0000)
 122 Li    12.338941    6.980074   17.330943    ( 0.0000,  0.0000,  0.0000)
 123 Li    14.801883    8.726355   17.325117    ( 0.0000,  0.0000,  0.0000)
 124 Li    14.871704    6.983418   19.672676    ( 0.0000,  0.0000,  0.0000)
 125 Li    12.280793    8.724834   19.673465    ( 0.0000,  0.0000,  0.0000)
 126 Li     9.871211   10.470000   10.000000    ( 0.0000,  0.0000,  0.0000)
 127 Li    12.339013   12.215000   10.000000    ( 0.0000,  0.0000,  0.0000)
 128 Li    12.339013   10.470000   12.467803    ( 0.0000,  0.0000,  0.0000)
 129 Li     9.871211   12.215000   12.467803    ( 0.0000,  0.0000,  0.0000)
 130 Li    14.806816   10.470000   14.935605    ( 0.0000,  0.0000,  0.0000)
 131 Li    12.339013   12.215000   14.935605    ( 0.0000,  0.0000,  0.0000)
 132 Li    12.340191   10.469711   17.330289    ( 0.0000,  0.0000,  0.0000)
 133 Li    14.804244   12.213021   17.327023    ( 0.0000,  0.0000,  0.0000)
 134 Li    14.870324   10.467640   19.670328    ( 0.0000,  0.0000,  0.0000)
 135 Li    12.280514   12.213437   19.673833    ( 0.0000,  0.0000,  0.0000)
 136 Li    14.806816    0.000000   10.000000    ( 0.0000,  0.0000,  0.0000)
 137 Li    17.274619    1.745000   10.000000    ( 0.0000,  0.0000,  0.0000)
 138 Li    17.274619    0.000000   12.467803    ( 0.0000,  0.0000,  0.0000)
 139 Li    14.806816    1.745000   12.467803    ( 0.0000,  0.0000,  0.0000)
 140 Li    19.742421    0.000000   14.935605    ( 0.0000,  0.0000,  0.0000)
 141 Li    17.274619    1.745000   14.935605    ( 0.0000,  0.0000,  0.0000)
 142 Li    17.270865   -0.012208   17.387491    ( 0.0000,  0.0000,  0.0000)
 143 Li    19.744893    1.738146   17.347361    ( 0.0000,  0.0000,  0.0000)
 144 Li    19.886251   -0.044718   19.720839    ( 0.0000,  0.0000,  0.0000)
 145 Li    17.423400    1.753682   19.759673    ( 0.0000,  0.0000,  0.0000)
 146 Li    14.806816    3.490000   10.000000    ( 0.0000,  0.0000,  0.0000)
 147 Li    17.274619    5.235000   10.000000    ( 0.0000,  0.0000,  0.0000)
 148 Li    17.274619    3.490000   12.467803    ( 0.0000,  0.0000,  0.0000)
 149 Li    14.806816    5.235000   12.467803    ( 0.0000,  0.0000,  0.0000)
 150 Li    19.742421    3.490000   14.935605    ( 0.0000,  0.0000,  0.0000)
 151 Li    17.274619    5.235000   14.935605    ( 0.0000,  0.0000,  0.0000)
 152 Li    17.276378    3.491468   17.369013    ( 0.0000,  0.0000,  0.0000)
 153 Li    19.744010    5.239570   17.340938    ( 0.0000,  0.0000,  0.0000)
 154 Li    19.906600    3.495055   19.709123    ( 0.0000,  0.0000,  0.0000)
 155 Li    17.425817    5.222460   19.768915    ( 0.0000,  0.0000,  0.0000)
 156 Li    14.806816    6.980000   10.000000    ( 0.0000,  0.0000,  0.0000)
 157 Li    17.274619    8.725000   10.000000    ( 0.0000,  0.0000,  0.0000)
 158 Li    17.274619    6.980000   12.467803    ( 0.0000,  0.0000,  0.0000)
 159 Li    14.806816    8.725000   12.467803    ( 0.0000,  0.0000,  0.0000)
 160 Li    19.742421    6.980000   14.935605    ( 0.0000,  0.0000,  0.0000)
 161 Li    17.274619    8.725000   14.935605    ( 0.0000,  0.0000,  0.0000)
 162 Li    17.274632    6.996906   17.398336    ( 0.0000,  0.0000,  0.0000)
 163 Li    19.770029    8.701661   17.300652    ( 0.0000,  0.0000,  0.0000)
 164 Li    19.886850    7.021863   19.711066    ( 0.0000,  0.0000,  0.0000)
 165 Li    17.453260    8.736118   19.860173    ( 0.0000,  0.0000,  0.0000)
 166 Li    14.806816   10.470000   10.000000    ( 0.0000,  0.0000,  0.0000)
 167 Li    17.274619   12.215000   10.000000    ( 0.0000,  0.0000,  0.0000)
 168 Li    17.274619   10.470000   12.467803    ( 0.0000,  0.0000,  0.0000)
 169 Li    14.806816   12.215000   12.467803    ( 0.0000,  0.0000,  0.0000)
 170 Li    19.742421   10.470000   14.935605    ( 0.0000,  0.0000,  0.0000)
 171 Li    17.274619   12.215000   14.935605    ( 0.0000,  0.0000,  0.0000)
 172 Li    17.291471   10.463834   17.404717    ( 0.0000,  0.0000,  0.0000)
 173 Li    19.763272   12.240623   17.303865    ( 0.0000,  0.0000,  0.0000)
 174 Li    19.894788   10.467800   19.628618    ( 0.0000,  0.0000,  0.0000)
 175 Li    17.441003   12.207740   19.830014    ( 0.0000,  0.0000,  0.0000)
 176 Li     2.471526    9.888333   24.186860    ( 0.0000,  0.0000,  0.0000)

Unit cell:
           periodic     x           y           z      points  spacing
  1. axis:    yes   19.742421    0.000000    0.000000   100     0.1974
  2. axis:    yes    0.000000   13.960000    0.000000    68     0.2053
  3. axis:    no     0.000000    0.000000   32.339013   160     0.2021

  Lengths:  19.742421  13.960000  32.339013
  Angles:   90.000000  90.000000  90.000000

Effective grid spacing dv^(1/3) = 0.2016

     iter     time        total  log10-change:
                         energy   eigst   dens
iter:   1 04:46:18  -329.046200        c
iter:   2 04:47:05  -318.072320        c -0.66
iter:   3 04:47:46  -315.601251        c -0.85
iter:   4 04:48:35  -314.633315        c -0.92
iter:   5 04:49:21  -311.937934        c -0.97
iter:   6 04:50:06  -311.166961        c -1.18
iter:   7 04:50:52  -310.859334        c -1.30
iter:   8 04:51:40  -310.635865        c -1.41
iter:   9 04:52:24  -310.553084        c -1.58
iter:  10 04:53:10  -310.514669        c -1.70
iter:  11 04:53:59  -310.489094c       c -1.81
iter:  12 04:54:46  -310.478910c       c -1.90
iter:  13 04:55:32  -310.464538c       c -1.96
iter:  14 04:56:21  -310.461137c       c -2.11
iter:  15 04:57:11  -310.458465c       c -2.19
iter:  16 04:57:53  -310.457850c       c -2.27
iter:  17 04:58:43  -310.457073c       c -2.34
iter:  18 04:59:29  -310.455459c       c -2.39
iter:  19 05:00:15  -310.455130c       c -2.50
iter:  20 05:01:01  -310.454260c       c -2.55
iter:  21 05:01:48  -310.454069c       c -2.64
iter:  22 05:02:34  -310.453737c       c -2.73
iter:  23 05:03:17  -310.453566c       c -2.80
iter:  24 05:04:03  -310.453595c       c -2.87
iter:  25 05:04:51  -310.453321c       c -2.96
iter:  26 05:05:38  -310.453330c       c -3.05
iter:  27 05:06:27  -310.453204c       c -3.13
iter:  28 05:07:14  -310.453255c       c -3.27
iter:  29 05:07:58  -310.453259c       c -3.36
iter:  30 05:08:42  -310.453238c       c -3.41
iter:  31 05:09:29  -310.453296c       c -3.47
iter:  32 05:10:16  -310.453274c       c -3.54
iter:  33 05:11:02  -310.453285c       c -3.60
iter:  34 05:11:48  -310.453257c       c -3.66
iter:  35 05:12:36  -310.453249c       c -3.73
iter:  36 05:13:23  -310.453251c       c -3.80
iter:  37 05:14:04  -310.453221c       c -3.87
iter:  38 05:14:50  -310.453232c       c -3.92
iter:  39 05:15:35  -310.453224c       c -4.07c

Converged after 39 iterations.

Dipole moment: (-39.936767, -15.586322, 0.748206) |e|*Ang

Energy contributions relative to reference atoms: (reference = -35893.444183)

Kinetic:       +328.764064
Potential:     -279.715259
External:        +0.000000
XC:            -354.397087
Entropy (-ST):   -5.743841
Local:           -2.233021
SIC:             +0.000000
--------------------------
Free energy:   -313.325145
Extrapolated:  -310.453224

Showing all kpts
 Kpt  Band  Eigenvalues  Occupancy
  0    86     -2.89057    1.13663
  0    87     -2.87431    1.08312
  0    88     -2.84598    0.98888
  0    89     -2.83507    0.95255

  1    86     -2.89058    1.13668
  1    87     -2.87424    1.08289
  1    88     -2.84690    0.99195
  1    89     -2.83391    0.94867


Fermi level: -2.84932

Gap: 0.027 eV
Transition (v -> c):
  (s=0, k=1, n=87, [0.25, 0.25, 0.00]) -> (s=0, k=1, n=88, [0.25, 0.25, 0.00])
No difference between direct/indirect transitions

Forces in eV/Ang:
  0 Li   -0.00111   -0.00140    0.12736
  1 Li   -0.00424   -0.00141    0.12524
  2 Li    0.00118   -0.00061   -0.05718
  3 Li   -0.00088    0.00104   -0.06055
  4 Li   -0.00176    0.01642   -0.05534
  5 Li    0.00314    0.02074   -0.06777
  6 Li   -0.00268    0.00212   -0.01279
  7 Li   -0.00311   -0.00005   -0.00693
  8 Li    0.01118    0.00867   -0.00147
  9 Li   -0.01698    0.00877    0.01237
 10 Li    0.00739    0.01688   -0.03583
 11 Li    0.01076   -0.00874   -0.01552
 12 Li   -0.00065    0.00062    0.12622
 13 Li   -0.00389    0.00167    0.12587
 14 Li    0.00117   -0.00048   -0.06502
 15 Li   -0.00070   -0.00065   -0.05838
 16 Li   -0.00798   -0.00095   -0.01529
 17 Li    0.00332   -0.02759   -0.07495
 18 Li   -0.00479    0.00283   -0.00231
 19 Li   -0.00394   -0.00052   -0.00695
 20 Li    0.01771    0.00013    0.00288
 21 Li   -0.01776   -0.01515    0.00989
 22 Li    0.01004   -0.00154   -0.03944
 23 Li    0.00676    0.00076   -0.02054
 24 Li   -0.00134    0.00076    0.12622
 25 Li   -0.00355   -0.00035    0.12280
 26 Li    0.00132    0.00126   -0.05448
 27 Li   -0.00006    0.00012   -0.05222
 28 Li   -0.00117   -0.01714   -0.05830
 29 Li    0.00529   -0.00768   -0.04190
 30 Li   -0.00244   -0.00655   -0.01475
 31 Li    0.01235    0.00512   -0.00394
 32 Li    0.01832   -0.01367   -0.00952
 33 Li   -0.01555    0.00077   -0.02140
 34 Li    0.00545    0.06555    0.04629
 35 Li    0.02567    0.00370   -0.01885
 36 Li   -0.00161    0.00006    0.12457
 37 Li   -0.00374    0.00011    0.12377
 38 Li    0.00106   -0.00034   -0.05491
 39 Li   -0.00019   -0.00035   -0.05287
 40 Li   -0.00170    0.00225   -0.04237
 41 Li    0.00520    0.01386   -0.05129
 42 Li   -0.00147   -0.00005    0.00983
 43 Li    0.00917   -0.00358   -0.00689
 44 Li    0.01911    0.00341   -0.01366
 45 Li   -0.01551    0.01049   -0.02404
 46 Li   -0.01087    0.05478   -0.20907
 47 Li    0.02221   -0.02381   -0.00563
 48 Li    0.00310   -0.00204    0.12825
 49 Li    0.00172   -0.00137    0.12640
 50 Li    0.00033    0.00012   -0.05856
 51 Li   -0.00059    0.00120   -0.06435
 52 Li    0.00491   -0.00202   -0.03305
 53 Li    0.00128   -0.00181   -0.06785
 54 Li   -0.00226   -0.00090    0.00969
 55 Li   -0.00063   -0.00169   -0.00665
 56 Li    0.00517   -0.00127   -0.01173
 57 Li    0.01298    0.00080    0.00059
 58 Li   -0.00614    0.00278   -0.01801
 59 Li   -0.01339   -0.00405   -0.02352
 60 Li    0.00272    0.00090    0.12698
 61 Li    0.00077    0.00156    0.12592
 62 Li   -0.00043   -0.00017   -0.05586
 63 Li   -0.00098   -0.00116   -0.06377
 64 Li    0.00269    0.00097   -0.03214
 65 Li    0.00188    0.00086   -0.06941
 66 Li    0.00304   -0.00089    0.00787
 67 Li   -0.00083    0.00190   -0.00744
 68 Li    0.00211    0.00011   -0.00876
 69 Li    0.01195   -0.00151    0.00091
 70 Li   -0.01112   -0.00139   -0.00930
 71 Li   -0.00847   -0.00220   -0.02897
 72 Li    0.00321    0.00135    0.12722
 73 Li   -0.00074    0.00011    0.12498
 74 Li    0.00034    0.00017   -0.05830
 75 Li   -0.00201   -0.00012   -0.05749
 76 Li    0.00445    0.00174   -0.03248
 77 Li    0.00519   -0.00354   -0.07907
 78 Li   -0.00059    0.00127    0.00930
 79 Li   -0.00117    0.00099   -0.00743
 80 Li    0.00788    0.00048   -0.01356
 81 Li    0.02228   -0.00949    0.00191
 82 Li   -0.00252   -0.00496   -0.01963
 83 Li   -0.02378    0.00291   -0.03558
 84 Li    0.00366   -0.00017    0.12494
 85 Li   -0.00033   -0.00041    0.12475
 86 Li    0.00075   -0.00031   -0.05614
 87 Li   -0.00175    0.00034   -0.05833
 88 Li    0.00274   -0.00062   -0.03174
 89 Li    0.00391    0.00410   -0.07828
 90 Li   -0.00036   -0.00018    0.00096
 91 Li   -0.00073   -0.00122   -0.00750
 92 Li    0.01059    0.00081   -0.01396
 93 Li    0.02488    0.00887    0.00005
 94 Li    0.00421    0.00197   -0.01312
 95 Li   -0.02689   -0.02978   -0.01213
 96 Li   -0.00012   -0.00009    0.12349
 97 Li    0.00061    0.00067    0.12323
 98 Li   -0.00016    0.00041   -0.05971
 99 Li    0.00131    0.00013   -0.05801
100 Li   -0.00417    0.00060   -0.05532
101 Li    0.00428    0.00002   -0.05528
102 Li   -0.00226   -0.00065    0.02859
103 Li    0.00366   -0.00201    0.03033
104 Li   -0.00575   -0.00157   -0.01468
105 Li    0.00672   -0.00097   -0.01353
106 Li    0.00127   -0.00010    0.12477
107 Li    0.00030   -0.00065    0.12364
108 Li   -0.00038    0.00004   -0.05943
109 Li    0.00154   -0.00024   -0.05810
110 Li   -0.00483   -0.00015   -0.05817
111 Li    0.00428   -0.00003   -0.05503
112 Li   -0.00267    0.00043    0.02932
113 Li    0.00374    0.00302    0.03050
114 Li   -0.00868    0.00014   -0.01555
115 Li    0.00757    0.00122   -0.01315
116 Li   -0.00022    0.00021    0.12328
117 Li   -0.00008   -0.00017    0.12443
118 Li   -0.00006   -0.00050   -0.05987
119 Li    0.00184    0.00013   -0.05931
120 Li   -0.00349   -0.00045   -0.05510
121 Li    0.00332    0.00003   -0.05482
122 Li   -0.00261    0.00000    0.02813
123 Li    0.00284    0.00237    0.03044
124 Li   -0.00708    0.00126   -0.01418
125 Li    0.00919   -0.00087   -0.01312
126 Li   -0.00065    0.00000    0.12358
127 Li    0.00009    0.00025    0.12426
128 Li    0.00024    0.00014   -0.05909
129 Li    0.00183    0.00012   -0.05923
130 Li   -0.00059   -0.00009   -0.05508
131 Li    0.00365    0.00007   -0.05468
132 Li   -0.00386    0.00011    0.02989
133 Li    0.00322   -0.00329    0.03005
134 Li   -0.00892    0.00020   -0.01349
135 Li    0.00923    0.00060   -0.01323
136 Li   -0.00081    0.00004    0.12424
137 Li    0.00086   -0.00125    0.12307
138 Li   -0.00138    0.00009   -0.05868
139 Li    0.00020   -0.00015   -0.06038
140 Li   -0.00515    0.01929   -0.08529
141 Li   -0.00269   -0.00786   -0.02475
142 Li    0.00368   -0.00618   -0.00197
143 Li    0.00613    0.00093    0.00372
144 Li   -0.01435    0.00841    0.00238
145 Li    0.00111   -0.00297   -0.00713
146 Li   -0.00208   -0.00020    0.12553
147 Li    0.00150    0.00162    0.12268
148 Li   -0.00061   -0.00011   -0.05522
149 Li    0.00039    0.00002   -0.06023
150 Li    0.00212   -0.00215   -0.05064
151 Li   -0.00313    0.01070   -0.02276
152 Li   -0.00476   -0.00034   -0.00456
153 Li    0.00646   -0.00168    0.00319
154 Li   -0.00793    0.00108   -0.00121
155 Li    0.00089    0.00382   -0.00701
156 Li    0.00010    0.00025    0.12420
157 Li    0.00216    0.00010    0.12139
158 Li   -0.00172   -0.00013   -0.05900
159 Li   -0.00002    0.00031   -0.06076
160 Li   -0.00624   -0.01851   -0.08478
161 Li   -0.00701    0.00179   -0.02741
162 Li    0.00248    0.00540   -0.00409
163 Li   -0.00852    0.00628    0.00347
164 Li   -0.01877   -0.01326   -0.00785
165 Li   -0.02009   -0.00473   -0.02363
166 Li    0.00068   -0.00020    0.12452
167 Li    0.00248   -0.00054    0.12165
168 Li   -0.00126   -0.00013   -0.05780
169 Li   -0.00007   -0.00022   -0.06047
170 Li   -0.00545    0.00180   -0.06509
171 Li   -0.00628   -0.00503   -0.02636
172 Li   -0.00182    0.00047   -0.00713
173 Li   -0.00675   -0.00490    0.00063
174 Li   -0.00526    0.00139   -0.00901
175 Li   -0.01771    0.00484   -0.01859
176 Li   -0.00676   -0.07175    0.11940

System changes: positions 

Initializing position-dependent things.

Density initialized from wave functions
          .------------------------------------------------.  
         /|                                                |  
        / |                                                |  
       /  |                                                |  
      /   |                                                |  
     /    |                                                |  
    /     |                                                |  
   /      |                                                |  
  /       |                                                |  
 *        |                                                |  
 |        |                                                |  
 |        |                                                |  
 |        |                                                |  
 |        |   LiLi           Li                            |  
 |        |          Li                                   Li  
 |        |   Li      Li  Li                               |  
 |     Li Li       Li                          Li          |  
 |        | Li Li       Li Li          Li           Li     |  
 |      Li|      Li Li          Li           Li      Li    |  
 |       Li  Li          Li Li       Li  Li       Li Li    |  
 |    Li Li   Li  Li LLi      Li Li       Li  Li           |  
 |        |Li Li      Li  Li       Li Li        Li Li      |  
 |  Li Li |    Li  Li      Li  Li       Li Li              |  
 |      Li| Li Li       Li Li       Li Li    Li Li  Li     |  
 |  Li  Li|      Li Li       Li LLi      Li  Li            |  
 |       Li  Li       Li Li       Li Li       Li  Li       |  
 |Li Li  Li   Li  Li Li    Li Li Li    Li Li  Li           |  
 |        Li  Li       Li Li       Li Li       Li  Li      |  
 | Li  Li |    Li  Li       Li Li       Li Li              |  
 |      Li| Li Li    Li Li Li    Li Li Li    Li Li  Li     |  
 |  Li  Li|      Li Li       Li Li       Li  Li            |  
 Li      Li  Li       Li Li       Li LLi      Li  Li       |  
 |Li Li   |   Li  Li       Li Li       Li Li               |  
 |        Li           Li          Li          Li          |  
 | Li  Li |    Li  Li       Li  Li      Li  Li             |  
 |        |                                                |  
 |      Li|          Li          Li          Li            |  
 Li       |  Li          Li           Li                   |  
 |        |                                                |  
 |        |                                                |  
 |        .------------------------------------------------.  
 |       /                                                /   
 |      /                                                /    
 |     /                                                /     
 |    /                                                /      
 |   /                                                /       
 |  /                                                /        
 | /                                                /         
 |/                                                /          
 *------------------------------------------------*           

Atomic positions and initial magnetic moments

Positions:
   0 Li     0.000000    0.000000   10.000000    ( 0.0000,  0.0000,  0.0000)
   1 Li     2.467803    1.745000   10.000000    ( 0.0000,  0.0000,  0.0000)
   2 Li     2.467803    0.000000   12.467803    ( 0.0000,  0.0000,  0.0000)
   3 Li     0.000000    1.745000   12.467803    ( 0.0000,  0.0000,  0.0000)
   4 Li     4.935605    0.000000   14.935605    ( 0.0000,  0.0000,  0.0000)
   5 Li     2.467803    1.745000   14.935605    ( 0.0000,  0.0000,  0.0000)
   6 Li     2.467757    0.043740   17.331672    ( 0.0000,  0.0000,  0.0000)
   7 Li     4.935605    1.731100   17.408761    ( 0.0000,  0.0000,  0.0000)
   8 Li     4.908976   -0.046527   19.872046    ( 0.0000,  0.0000,  0.0000)
   9 Li     2.522082    1.701167   19.820811    ( 0.0000,  0.0000,  0.0000)
  10 Li     2.425247   -0.109463   22.154665    ( 0.0000,  0.0000,  0.0000)
  11 Li    -0.118541    1.720232   22.033604    ( 0.0000,  0.0000,  0.0000)
  12 Li     0.000000    3.490000   10.000000    ( 0.0000,  0.0000,  0.0000)
  13 Li     2.467803    5.235000   10.000000    ( 0.0000,  0.0000,  0.0000)
  14 Li     2.467803    3.490000   12.467803    ( 0.0000,  0.0000,  0.0000)
  15 Li     0.000000    5.235000   12.467803    ( 0.0000,  0.0000,  0.0000)
  16 Li     4.935605    3.490000   14.935605    ( 0.0000,  0.0000,  0.0000)
  17 Li     2.467803    5.235000   14.935605    ( 0.0000,  0.0000,  0.0000)
  18 Li     2.474391    3.488136   17.391992    ( 0.0000,  0.0000,  0.0000)
  19 Li     4.936769    5.247244   17.402962    ( 0.0000,  0.0000,  0.0000)
  20 Li     4.868838    3.495840   19.835521    ( 0.0000,  0.0000,  0.0000)
  21 Li     2.522592    5.283355   19.811431    ( 0.0000,  0.0000,  0.0000)
  22 Li     2.402166    3.495649   22.131735    ( 0.0000,  0.0000,  0.0000)
  23 Li    -0.104296    5.282109   22.045437    ( 0.0000,  0.0000,  0.0000)
  24 Li     0.000000    6.980000   10.000000    ( 0.0000,  0.0000,  0.0000)
  25 Li     2.467803    8.725000   10.000000    ( 0.0000,  0.0000,  0.0000)
  26 Li     2.467803    6.980000   12.467803    ( 0.0000,  0.0000,  0.0000)
  27 Li     0.000000    8.725000   12.467803    ( 0.0000,  0.0000,  0.0000)
  28 Li     4.935605    6.980000   14.935605    ( 0.0000,  0.0000,  0.0000)
  29 Li     2.467803    8.725000   14.935605    ( 0.0000,  0.0000,  0.0000)
  30 Li     2.467744    6.928639   17.321463    ( 0.0000,  0.0000,  0.0000)
  31 Li     4.926070    8.699475   17.357923    ( 0.0000,  0.0000,  0.0000)
  32 Li     4.910737    7.023708   19.864230    ( 0.0000,  0.0000,  0.0000)
  33 Li     2.533768    8.654317   19.609468    ( 0.0000,  0.0000,  0.0000)
  34 Li     2.439812    7.086962   22.121446    ( 0.0000,  0.0000,  0.0000)
  35 Li     0.016864    8.827529   22.141638    ( 0.0000,  0.0000,  0.0000)
  36 Li     0.000000   10.470000   10.000000    ( 0.0000,  0.0000,  0.0000)
  37 Li     2.467803   12.215000   10.000000    ( 0.0000,  0.0000,  0.0000)
  38 Li     2.467803   10.470000   12.467803    ( 0.0000,  0.0000,  0.0000)
  39 Li     0.000000   12.215000   12.467803    ( 0.0000,  0.0000,  0.0000)
  40 Li     4.935605   10.470000   14.935605    ( 0.0000,  0.0000,  0.0000)
  41 Li     2.467803   12.215000   14.935605    ( 0.0000,  0.0000,  0.0000)
  42 Li     2.474452   10.479469   17.335850    ( 0.0000,  0.0000,  0.0000)
  43 Li     4.929405   12.242191   17.363051    ( 0.0000,  0.0000,  0.0000)
  44 Li     4.886020   10.466965   19.772682    ( 0.0000,  0.0000,  0.0000)
  45 Li     2.532410   12.281209   19.640983    ( 0.0000,  0.0000,  0.0000)
  46 Li     2.452603   10.468209   21.702082    ( 0.0000,  0.0000,  0.0000)
  47 Li    -0.026473   12.089849   22.116565    ( 0.0000,  0.0000,  0.0000)
  48 Li     4.935605    0.000000   10.000000    ( 0.0000,  0.0000,  0.0000)
  49 Li     7.403408    1.745000   10.000000    ( 0.0000,  0.0000,  0.0000)
  50 Li     7.403408    0.000000   12.467803    ( 0.0000,  0.0000,  0.0000)
  51 Li     4.935605    1.745000   12.467803    ( 0.0000,  0.0000,  0.0000)
  52 Li     9.871211    0.000000   14.935605    ( 0.0000,  0.0000,  0.0000)
  53 Li     7.403408    1.745000   14.935605    ( 0.0000,  0.0000,  0.0000)
  54 Li     7.397504   -0.001520   17.321225    ( 0.0000,  0.0000,  0.0000)
  55 Li     9.868479    1.744055   17.372612    ( 0.0000,  0.0000,  0.0000)
  56 Li     9.713938    0.001028   19.776788    ( 0.0000,  0.0000,  0.0000)
  57 Li     7.246808    1.742158   19.682979    ( 0.0000,  0.0000,  0.0000)
  58 Li     7.467956   -0.044641   22.017357    ( 0.0000,  0.0000,  0.0000)
  59 Li     4.960395    1.744694   22.163861    ( 0.0000,  0.0000,  0.0000)
  60 Li     4.935605    3.490000   10.000000    ( 0.0000,  0.0000,  0.0000)
  61 Li     7.403408    5.235000   10.000000    ( 0.0000,  0.0000,  0.0000)
  62 Li     7.403408    3.490000   12.467803    ( 0.0000,  0.0000,  0.0000)
  63 Li     4.935605    5.235000   12.467803    ( 0.0000,  0.0000,  0.0000)
  64 Li     9.871211    3.490000   14.935605    ( 0.0000,  0.0000,  0.0000)
  65 Li     7.403408    5.235000   14.935605    ( 0.0000,  0.0000,  0.0000)
  66 Li     7.384868    3.490580   17.323535    ( 0.0000,  0.0000,  0.0000)
  67 Li     9.868009    5.237967   17.375626    ( 0.0000,  0.0000,  0.0000)
  68 Li     9.723991    3.489018   19.757386    ( 0.0000,  0.0000,  0.0000)
  69 Li     7.248785    5.240462   19.681503    ( 0.0000,  0.0000,  0.0000)
  70 Li     7.512313    3.495974   22.007853    ( 0.0000,  0.0000,  0.0000)
  71 Li     4.953143    5.243584   22.177252    ( 0.0000,  0.0000,  0.0000)
  72 Li     4.935605    6.980000   10.000000    ( 0.0000,  0.0000,  0.0000)
  73 Li     7.403408    8.725000   10.000000    ( 0.0000,  0.0000,  0.0000)
  74 Li     7.403408    6.980000   12.467803    ( 0.0000,  0.0000,  0.0000)
  75 Li     4.935605    8.725000   12.467803    ( 0.0000,  0.0000,  0.0000)
  76 Li     9.871211    6.980000   14.935605    ( 0.0000,  0.0000,  0.0000)
  77 Li     7.403408    8.725000   14.935605    ( 0.0000,  0.0000,  0.0000)
  78 Li     7.394818    6.980798   17.318641    ( 0.0000,  0.0000,  0.0000)
  79 Li     9.867751    8.727257   17.379749    ( 0.0000,  0.0000,  0.0000)
  80 Li     9.709852    6.981553   19.784636    ( 0.0000,  0.0000,  0.0000)
  81 Li     7.252827    8.746309   19.662089    ( 0.0000,  0.0000,  0.0000)
  82 Li     7.454252    7.029992   22.018934    ( 0.0000,  0.0000,  0.0000)
  83 Li     4.896968    8.813107   22.253750    ( 0.0000,  0.0000,  0.0000)
  84 Li     4.935605   10.470000   10.000000    ( 0.0000,  0.0000,  0.0000)
  85 Li     7.403408   12.215000   10.000000    ( 0.0000,  0.0000,  0.0000)
  86 Li     7.403408   10.470000   12.467803    ( 0.0000,  0.0000,  0.0000)
  87 Li     4.935605   12.215000   12.467803    ( 0.0000,  0.0000,  0.0000)
  88 Li     9.871211   10.470000   14.935605    ( 0.0000,  0.0000,  0.0000)
  89 Li     7.403408   12.215000   14.935605    ( 0.0000,  0.0000,  0.0000)
  90 Li     7.377418   10.470135   17.309450    ( 0.0000,  0.0000,  0.0000)
  91 Li     9.868426   12.210721   17.378843    ( 0.0000,  0.0000,  0.0000)
  92 Li     9.719694   10.468402   19.781341    ( 0.0000,  0.0000,  0.0000)
  93 Li     7.255589   12.191057   19.666823    ( 0.0000,  0.0000,  0.0000)
  94 Li     7.490218   10.458659   22.019108    ( 0.0000,  0.0000,  0.0000)
  95 Li     4.912817   12.118284   22.243728    ( 0.0000,  0.0000,  0.0000)
  96 Li     9.871211    0.000000   10.000000    ( 0.0000,  0.0000,  0.0000)
  97 Li    12.339013    1.745000   10.000000    ( 0.0000,  0.0000,  0.0000)
  98 Li    12.339013    0.000000   12.467803    ( 0.0000,  0.0000,  0.0000)
  99 Li     9.871211    1.745000   12.467803    ( 0.0000,  0.0000,  0.0000)
 100 Li    14.806816    0.000000   14.935605    ( 0.0000,  0.0000,  0.0000)
 101 Li    12.339013    1.745000   14.935605    ( 0.0000,  0.0000,  0.0000)
 102 Li    12.338214   -0.000056   17.331707    ( 0.0000,  0.0000,  0.0000)
 103 Li    14.807030    1.746226   17.329005    ( 0.0000,  0.0000,  0.0000)
 104 Li    14.866235   -0.001311   19.672638    ( 0.0000,  0.0000,  0.0000)
 105 Li    12.281374    1.743783   19.673275    ( 0.0000,  0.0000,  0.0000)
 106 Li     9.871211    3.490000   10.000000    ( 0.0000,  0.0000,  0.0000)
 107 Li    12.339013    5.235000   10.000000    ( 0.0000,  0.0000,  0.0000)
 108 Li    12.339013    3.490000   12.467803    ( 0.0000,  0.0000,  0.0000)
 109 Li     9.871211    5.235000   12.467803    ( 0.0000,  0.0000,  0.0000)
 110 Li    14.806816    3.490000   14.935605    ( 0.0000,  0.0000,  0.0000)
 111 Li    12.339013    5.235000   14.935605    ( 0.0000,  0.0000,  0.0000)
 112 Li    12.337642    3.490270   17.331383    ( 0.0000,  0.0000,  0.0000)
 113 Li    14.807832    5.234408   17.329058    ( 0.0000,  0.0000,  0.0000)
 114 Li    14.860639    3.490237   19.672025    ( 0.0000,  0.0000,  0.0000)
 115 Li    12.280938    5.237947   19.673340    ( 0.0000,  0.0000,  0.0000)
 116 Li     9.871211    6.980000   10.000000    ( 0.0000,  0.0000,  0.0000)
 117 Li    12.339013    8.725000   10.000000    ( 0.0000,  0.0000,  0.0000)
 118 Li    12.339013    6.980000   12.467803    ( 0.0000,  0.0000,  0.0000)
 119 Li     9.871211    8.725000   12.467803    ( 0.0000,  0.0000,  0.0000)
 120 Li    14.806816    6.980000   14.935605    ( 0.0000,  0.0000,  0.0000)
 121 Li    12.339013    8.725000   14.935605    ( 0.0000,  0.0000,  0.0000)
 122 Li    12.338914    6.980074   17.331224    ( 0.0000,  0.0000,  0.0000)
 123 Li    14.801911    8.726379   17.325422    ( 0.0000,  0.0000,  0.0000)
 124 Li    14.871633    6.983430   19.672536    ( 0.0000,  0.0000,  0.0000)
 125 Li    12.280884    8.724826   19.673336    ( 0.0000,  0.0000,  0.0000)
 126 Li     9.871211   10.470000   10.000000    ( 0.0000,  0.0000,  0.0000)
 127 Li    12.339013   12.215000   10.000000    ( 0.0000,  0.0000,  0.0000)
 128 Li    12.339013   10.470000   12.467803    ( 0.0000,  0.0000,  0.0000)
 129 Li     9.871211   12.215000   12.467803    ( 0.0000,  0.0000,  0.0000)
 130 Li    14.806816   10.470000   14.935605    ( 0.0000,  0.0000,  0.0000)
 131 Li    12.339013   12.215000   14.935605    ( 0.0000,  0.0000,  0.0000)
 132 Li    12.340152   10.469712   17.330588    ( 0.0000,  0.0000,  0.0000)
 133 Li    14.804275   12.212988   17.327323    ( 0.0000,  0.0000,  0.0000)
 134 Li    14.870234   10.467643   19.670195    ( 0.0000,  0.0000,  0.0000)
 135 Li    12.280605   12.213444   19.673702    ( 0.0000,  0.0000,  0.0000)
 136 Li    14.806816    0.000000   10.000000    ( 0.0000,  0.0000,  0.0000)
 137 Li    17.274619    1.745000   10.000000    ( 0.0000,  0.0000,  0.0000)
 138 Li    17.274619    0.000000   12.467803    ( 0.0000,  0.0000,  0.0000)
 139 Li    14.806816    1.745000   12.467803    ( 0.0000,  0.0000,  0.0000)
 140 Li    19.742421    0.000000   14.935605    ( 0.0000,  0.0000,  0.0000)
 141 Li    17.274619    1.745000   14.935605    ( 0.0000,  0.0000,  0.0000)
 142 Li    17.270901   -0.012272   17.387477    ( 0.0000,  0.0000,  0.0000)
 143 Li    19.744953    1.738154   17.347403    ( 0.0000,  0.0000,  0.0000)
 144 Li    19.886107   -0.044640   19.720871    ( 0.0000,  0.0000,  0.0000)
 145 Li    17.423413    1.753654   19.759607    ( 0.0000,  0.0000,  0.0000)
 146 Li    14.806816    3.490000   10.000000    ( 0.0000,  0.0000,  0.0000)
 147 Li    17.274619    5.235000   10.000000    ( 0.0000,  0.0000,  0.0000)
 148 Li    17.274619    3.490000   12.467803    ( 0.0000,  0.0000,  0.0000)
 149 Li    14.806816    5.235000   12.467803    ( 0.0000,  0.0000,  0.0000)
 150 Li    19.742421    3.490000   14.935605    ( 0.0000,  0.0000,  0.0000)
 151 Li    17.274619    5.235000   14.935605    ( 0.0000,  0.0000,  0.0000)
 152 Li    17.276331    3.491464   17.368970    ( 0.0000,  0.0000,  0.0000)
 153 Li    19.744073    5.239556   17.340977    ( 0.0000,  0.0000,  0.0000)
 154 Li    19.906524    3.495064   19.709117    ( 0.0000,  0.0000,  0.0000)
 155 Li    17.425826    5.222498   19.768847    ( 0.0000,  0.0000,  0.0000)
 156 Li    14.806816    6.980000   10.000000    ( 0.0000,  0.0000,  0.0000)
 157 Li    17.274619    8.725000   10.000000    ( 0.0000,  0.0000,  0.0000)
 158 Li    17.274619    6.980000   12.467803    ( 0.0000,  0.0000,  0.0000)
 159 Li    14.806816    8.725000   12.467803    ( 0.0000,  0.0000,  0.0000)
 160 Li    19.742421    6.980000   14.935605    ( 0.0000,  0.0000,  0.0000)
 161 Li    17.274619    8.725000   14.935605    ( 0.0000,  0.0000,  0.0000)
 162 Li    17.274654    6.996959   17.398297    ( 0.0000,  0.0000,  0.0000)
 163 Li    19.769943    8.701719   17.300688    ( 0.0000,  0.0000,  0.0000)
 164 Li    19.886661    7.021738   19.711000    ( 0.0000,  0.0000,  0.0000)
 165 Li    17.453058    8.736073   19.859938    ( 0.0000,  0.0000,  0.0000)
 166 Li    14.806816   10.470000   10.000000    ( 0.0000,  0.0000,  0.0000)
 167 Li    17.274619   12.215000   10.000000    ( 0.0000,  0.0000,  0.0000)
 168 Li    17.274619   10.470000   12.467803    ( 0.0000,  0.0000,  0.0000)
 169 Li    14.806816   12.215000   12.467803    ( 0.0000,  0.0000,  0.0000)
 170 Li    19.742421   10.470000   14.935605    ( 0.0000,  0.0000,  0.0000)
 171 Li    17.274619   12.215000   14.935605    ( 0.0000,  0.0000,  0.0000)
 172 Li    17.291454   10.463842   17.404649    ( 0.0000,  0.0000,  0.0000)
 173 Li    19.763207   12.240578   17.303871    ( 0.0000,  0.0000,  0.0000)
 174 Li    19.894736   10.467815   19.628523    ( 0.0000,  0.0000,  0.0000)
 175 Li    17.440830   12.207784   19.829843    ( 0.0000,  0.0000,  0.0000)
 176 Li     2.471461    9.887856   24.188032    ( 0.0000,  0.0000,  0.0000)

Unit cell:
           periodic     x           y           z      points  spacing
  1. axis:    yes   19.742421    0.000000    0.000000   100     0.1974
  2. axis:    yes    0.000000   13.960000    0.000000    68     0.2053
  3. axis:    no     0.000000    0.000000   32.339013   160     0.2021

  Lengths:  19.742421  13.960000  32.339013
  Angles:   90.000000  90.000000  90.000000

Effective grid spacing dv^(1/3) = 0.2016

     iter     time        total  log10-change:
                         energy   eigst   dens
iter:   1 06:12:38  -310.454628        c
iter:   2 06:13:18  -310.454364        c -3.16
iter:   3 06:13:57  -310.454328c       c -3.06
iter:   4 06:14:37  -310.454336c       c -3.91
iter:   5 06:15:16  -310.454304c       c -4.08c

Converged after 5 iterations.

Dipole moment: (-39.946660, -15.591287, 0.748777) |e|*Ang

Energy contributions relative to reference atoms: (reference = -35893.444183)

Kinetic:       +328.792165
Potential:     -279.701162
External:        +0.000000
XC:            -354.407534
Entropy (-ST):   -5.743767
Local:           -2.265888
SIC:             +0.000000
--------------------------
Free energy:   -313.326187
Extrapolated:  -310.454304

Showing all kpts
 Kpt  Band  Eigenvalues  Occupancy
  0    86     -2.89039    1.13666
  0    87     -2.87417    1.08327
  0    88     -2.84580    0.98889
  0    89     -2.83488    0.95252

  1    86     -2.89040    1.13669
  1    87     -2.87410    1.08303
  1    88     -2.84673    0.99197
  1    89     -2.83373    0.94869


Fermi level: -2.84914

Gap: 0.027 eV
Transition (v -> c):
  (s=0, k=1, n=87, [0.25, 0.25, 0.00]) -> (s=0, k=1, n=88, [0.25, 0.25, 0.00])
No difference between direct/indirect transitions

Forces in eV/Ang:
  0 Li   -0.00095   -0.00147    0.12726
  1 Li   -0.00411   -0.00143    0.12485
  2 Li    0.00108   -0.00057   -0.05689
  3 Li   -0.00111    0.00105   -0.06025
  4 Li   -0.00181    0.01644   -0.05528
  5 Li    0.00320    0.02076   -0.06778
  6 Li   -0.00259    0.00216   -0.01286
  7 Li   -0.00311   -0.00007   -0.00701
  8 Li    0.01098    0.00837   -0.00162
  9 Li   -0.01681    0.00873    0.01195
 10 Li    0.00723    0.01694   -0.03590
 11 Li    0.01078   -0.00857   -0.01535
 12 Li   -0.00051    0.00064    0.12619
 13 Li   -0.00376    0.00173    0.12543
 14 Li    0.00108   -0.00050   -0.06473
 15 Li   -0.00093   -0.00069   -0.05810
 16 Li   -0.00799   -0.00096   -0.01529
 17 Li    0.00339   -0.02761   -0.07494
 18 Li   -0.00467    0.00284   -0.00236
 19 Li   -0.00392   -0.00050   -0.00703
 20 Li    0.01756    0.00006    0.00255
 21 Li   -0.01759   -0.01456    0.00983
 22 Li    0.00984   -0.00152   -0.03903
 23 Li    0.00691    0.00074   -0.02038
 24 Li   -0.00116    0.00084    0.12606
 25 Li   -0.00342   -0.00029    0.12220
 26 Li    0.00122    0.00122   -0.05423
 27 Li   -0.00029    0.00012   -0.05204
 28 Li   -0.00122   -0.01718   -0.05815
 29 Li    0.00535   -0.00770   -0.04175
 30 Li   -0.00234   -0.00652   -0.01477
 31 Li    0.01214    0.00499   -0.00400
 32 Li    0.01802   -0.01344   -0.00970
 33 Li   -0.01532    0.00018   -0.02180
 34 Li    0.00537    0.06476    0.04560
 35 Li    0.02554    0.00371   -0.01903
 36 Li   -0.00141    0.00003    0.12438
 37 Li   -0.00362    0.00001    0.12324
 38 Li    0.00095   -0.00032   -0.05474
 39 Li   -0.00041   -0.00033   -0.05265
 40 Li   -0.00175    0.00227   -0.04227
 41 Li    0.00526    0.01389   -0.05118
 42 Li   -0.00133   -0.00006    0.00977
 43 Li    0.00902   -0.00349   -0.00699
 44 Li    0.01905    0.00337   -0.01404
 45 Li   -0.01528    0.01110   -0.02474
 46 Li   -0.01076    0.05320   -0.20258
 47 Li    0.02202   -0.02345   -0.00581
 48 Li    0.00297   -0.00210    0.12778
 49 Li    0.00163   -0.00135    0.12627
 50 Li    0.00052    0.00014   -0.05828
 51 Li   -0.00049    0.00123   -0.06402
 52 Li    0.00480   -0.00205   -0.03332
 53 Li    0.00120   -0.00181   -0.06793
 54 Li   -0.00234   -0.00084    0.00954
 55 Li   -0.00057   -0.00166   -0.00668
 56 Li    0.00530   -0.00124   -0.01153
 57 Li    0.01286    0.00078    0.00043
 58 Li   -0.00623    0.00270   -0.01781
 59 Li   -0.01321   -0.00393   -0.02333
 60 Li    0.00261    0.00093    0.12659
 61 Li    0.00066    0.00157    0.12578
 62 Li   -0.00026   -0.00018   -0.05556
 63 Li   -0.00087   -0.00121   -0.06347
 64 Li    0.00255    0.00097   -0.03239
 65 Li    0.00180    0.00084   -0.06947
 66 Li    0.00292   -0.00087    0.00770
 67 Li   -0.00078    0.00184   -0.00748
 68 Li    0.00227    0.00012   -0.00856
 69 Li    0.01184   -0.00149    0.00072
 70 Li   -0.01115   -0.00140   -0.00913
 71 Li   -0.00841   -0.00214   -0.02880
 72 Li    0.00306    0.00141    0.12668
 73 Li   -0.00093    0.00013    0.12481
 74 Li    0.00056    0.00015   -0.05806
 75 Li   -0.00191   -0.00013   -0.05730
 76 Li    0.00437    0.00177   -0.03278
 77 Li    0.00515   -0.00356   -0.07915
 78 Li   -0.00071    0.00120    0.00919
 79 Li   -0.00112    0.00096   -0.00749
 80 Li    0.00797    0.00044   -0.01338
 81 Li    0.02196   -0.00936    0.00180
 82 Li   -0.00264   -0.00491   -0.01944
 83 Li   -0.02355    0.00305   -0.03560
 84 Li    0.00349   -0.00019    0.12436
 85 Li   -0.00050   -0.00044    0.12460
 86 Li    0.00099   -0.00030   -0.05591
 87 Li   -0.00165    0.00037   -0.05810
 88 Li    0.00273   -0.00061   -0.03209
 89 Li    0.00387    0.00415   -0.07837
 90 Li   -0.00038   -0.00017    0.00097
 91 Li   -0.00069   -0.00117   -0.00757
 92 Li    0.01064    0.00080   -0.01374
 93 Li    0.02458    0.00872   -0.00007
 94 Li    0.00422    0.00190   -0.01315
 95 Li   -0.02653   -0.02943   -0.01225
 96 Li   -0.00008   -0.00004    0.12364
 97 Li    0.00062    0.00072    0.12337
 98 Li   -0.00022    0.00038   -0.05967
 99 Li    0.00133    0.00013   -0.05785
100 Li   -0.00404    0.00056   -0.05529
101 Li    0.00416   -0.00001   -0.05521
102 Li   -0.00212   -0.00064    0.02823
103 Li    0.00348   -0.00201    0.02995
104 Li   -0.00583   -0.00150   -0.01443
105 Li    0.00680   -0.00094   -0.01328
106 Li    0.00135   -0.00010    0.12488
107 Li    0.00030   -0.00073    0.12379
108 Li   -0.00043    0.00005   -0.05948
109 Li    0.00157   -0.00023   -0.05794
110 Li   -0.00467   -0.00014   -0.05813
111 Li    0.00417    0.00001   -0.05498
112 Li   -0.00252    0.00042    0.02900
113 Li    0.00357    0.00301    0.03011
114 Li   -0.00871    0.00013   -0.01524
115 Li    0.00764    0.00117   -0.01290
116 Li   -0.00022    0.00016    0.12345
117 Li   -0.00008   -0.00022    0.12471
118 Li   -0.00013   -0.00046   -0.05980
119 Li    0.00191    0.00016   -0.05909
120 Li   -0.00339   -0.00042   -0.05508
121 Li    0.00321    0.00009   -0.05484
122 Li   -0.00247   -0.00000    0.02776
123 Li    0.00270    0.00234    0.03006
124 Li   -0.00714    0.00120   -0.01392
125 Li    0.00925   -0.00088   -0.01285
126 Li   -0.00071    0.00001    0.12380
127 Li    0.00009    0.00033    0.12450
128 Li    0.00015    0.00013   -0.05894
129 Li    0.00189    0.00009   -0.05901
130 Li   -0.00056   -0.00009   -0.05510
131 Li    0.00353    0.00000   -0.05467
132 Li   -0.00370    0.00012    0.02944
133 Li    0.00305   -0.00325    0.02967
134 Li   -0.00900    0.00021   -0.01324
135 Li    0.00929    0.00064   -0.01297
136 Li   -0.00087    0.00010    0.12447
137 Li    0.00081   -0.00124    0.12332
138 Li   -0.00142    0.00012   -0.05848
139 Li    0.00032   -0.00015   -0.06035
140 Li   -0.00510    0.01931   -0.08543
141 Li   -0.00258   -0.00787   -0.02508
142 Li    0.00359   -0.00605   -0.00205
143 Li    0.00611    0.00088    0.00365
144 Li   -0.01413    0.00810    0.00233
145 Li    0.00089   -0.00290   -0.00695
146 Li   -0.00218   -0.00022    0.12573
147 Li    0.00148    0.00162    0.12292
148 Li   -0.00066   -0.00012   -0.05500
149 Li    0.00050    0.00001   -0.06019
150 Li    0.00215   -0.00215   -0.05081
151 Li   -0.00304    0.01070   -0.02308
152 Li   -0.00472   -0.00033   -0.00459
153 Li    0.00643   -0.00166    0.00310
154 Li   -0.00792    0.00098   -0.00136
155 Li    0.00068    0.00379   -0.00685
156 Li    0.00007    0.00018    0.12445
157 Li    0.00224    0.00012    0.12160
158 Li   -0.00178   -0.00015   -0.05882
159 Li    0.00003    0.00031   -0.06067
160 Li   -0.00617   -0.01855   -0.08485
161 Li   -0.00695    0.00177   -0.02773
162 Li    0.00241    0.00528   -0.00416
163 Li   -0.00832    0.00614    0.00341
164 Li   -0.01847   -0.01301   -0.00784
165 Li   -0.01990   -0.00471   -0.02328
166 Li    0.00071   -0.00019    0.12481
167 Li    0.00252   -0.00057    0.12187
168 Li   -0.00131   -0.00012   -0.05763
169 Li    0.00001   -0.00023   -0.06039
170 Li   -0.00538    0.00181   -0.06523
171 Li   -0.00621   -0.00500   -0.02670
172 Li   -0.00196    0.00047   -0.00721
173 Li   -0.00658   -0.00480    0.00055
174 Li   -0.00539    0.00136   -0.00925
175 Li   -0.01759    0.00479   -0.01825
176 Li   -0.00679   -0.07084    0.11430

System changes: positions 

Initializing position-dependent things.

Density initialized from wave functions
          .------------------------------------------------.  
         /|                                                |  
        / |                                                |  
       /  |                                                |  
      /   |                                                |  
     /    |                                                |  
    /     |                                                |  
   /      |                                                |  
  /       |                                                |  
 *        |                                                |  
 |        |                                                |  
 |        |                                                |  
 |        |                                                |  
 |        |   LiLi           Li                            |  
 |        |          Li                                   Li  
 |        |   Li      Li  Li                               |  
 |     Li Li       Li                          Li          |  
 |        | Li Li       Li Li          Li           Li     |  
 |      Li|      Li Li          Li           Li      Li    |  
 |       Li  Li          Li Li       Li  Li       Li Li    |  
 |    Li Li   Li  Li LLi      Li Li       Li  Li           |  
 |        |Li Li      Li  Li       Li Li        Li Li      |  
 |  Li Li |    Li  Li      Li  Li       Li Li              |  
 |      Li| Li Li       Li Li       Li Li    Li Li  Li     |  
 |  Li  Li|      Li Li       Li LLi      Li  Li            |  
 |       Li  Li       Li Li       Li Li       Li  Li       |  
 |Li Li  Li   Li  Li Li    Li Li Li    Li Li  Li           |  
 |        Li  Li       Li Li       Li Li       Li  Li      |  
 | Li  Li |    Li  Li       Li Li       Li Li              |  
 |      Li| Li Li    Li Li Li    Li Li Li    Li Li  Li     |  
 |  Li  Li|      Li Li       Li Li       Li  Li            |  
 Li      Li  Li       Li Li       Li LLi      Li  Li       |  
 |Li Li   |   Li  Li       Li Li       Li Li               |  
 |        Li           Li          Li          Li          |  
 | Li  Li |    Li  Li       Li  Li      Li  Li             |  
 |        |                                                |  
 |      Li|          Li          Li          Li            |  
 Li       |  Li          Li           Li                   |  
 |        |                                                |  
 |        |                                                |  
 |        .------------------------------------------------.  
 |       /                                                /   
 |      /                                                /    
 |     /                                                /     
 |    /                                                /      
 |   /                                                /       
 |  /                                                /        
 | /                                                /         
 |/                                                /          
 *------------------------------------------------*           

Atomic positions and initial magnetic moments

Positions:
   0 Li     0.000000    0.000000   10.000000    ( 0.0000,  0.0000,  0.0000)
   1 Li     2.467803    1.745000   10.000000    ( 0.0000,  0.0000,  0.0000)
   2 Li     2.467803    0.000000   12.467803    ( 0.0000,  0.0000,  0.0000)
   3 Li     0.000000    1.745000   12.467803    ( 0.0000,  0.0000,  0.0000)
   4 Li     4.935605    0.000000   14.935605    ( 0.0000,  0.0000,  0.0000)
   5 Li     2.467803    1.745000   14.935605    ( 0.0000,  0.0000,  0.0000)
   6 Li     2.467702    0.043799   17.331408    ( 0.0000,  0.0000,  0.0000)
   7 Li     4.935545    1.731093   17.408633    ( 0.0000,  0.0000,  0.0000)
   8 Li     4.909205   -0.046369   19.872038    ( 0.0000,  0.0000,  0.0000)
   9 Li     2.521744    1.701324   19.821075    ( 0.0000,  0.0000,  0.0000)
  10 Li     2.425400   -0.109163   22.153974    ( 0.0000,  0.0000,  0.0000)
  11 Li    -0.118319    1.720048   22.033309    ( 0.0000,  0.0000,  0.0000)
  12 Li     0.000000    3.490000   10.000000    ( 0.0000,  0.0000,  0.0000)
  13 Li     2.467803    5.235000   10.000000    ( 0.0000,  0.0000,  0.0000)
  14 Li     2.467803    3.490000   12.467803    ( 0.0000,  0.0000,  0.0000)
  15 Li     0.000000    5.235000   12.467803    ( 0.0000,  0.0000,  0.0000)
  16 Li     4.935605    3.490000   14.935605    ( 0.0000,  0.0000,  0.0000)
  17 Li     2.467803    5.235000   14.935605    ( 0.0000,  0.0000,  0.0000)
  18 Li     2.474298    3.488194   17.391964    ( 0.0000,  0.0000,  0.0000)
  19 Li     4.936691    5.247241   17.402838    ( 0.0000,  0.0000,  0.0000)
  20 Li     4.869182    3.495837   19.835583    ( 0.0000,  0.0000,  0.0000)
  21 Li     2.522238    5.283073   19.811658    ( 0.0000,  0.0000,  0.0000)
  22 Li     2.402362    3.495613   22.130967    ( 0.0000,  0.0000,  0.0000)
  23 Li    -0.104165    5.282116   22.045032    ( 0.0000,  0.0000,  0.0000)
  24 Li     0.000000    6.980000   10.000000    ( 0.0000,  0.0000,  0.0000)
  25 Li     2.467803    8.725000   10.000000    ( 0.0000,  0.0000,  0.0000)
  26 Li     2.467803    6.980000   12.467803    ( 0.0000,  0.0000,  0.0000)
  27 Li     0.000000    8.725000   12.467803    ( 0.0000,  0.0000,  0.0000)
  28 Li     4.935605    6.980000   14.935605    ( 0.0000,  0.0000,  0.0000)
  29 Li     2.467803    8.725000   14.935605    ( 0.0000,  0.0000,  0.0000)
  30 Li     2.467694    6.928499   17.321169    ( 0.0000,  0.0000,  0.0000)
  31 Li     4.926316    8.699566   17.357847    ( 0.0000,  0.0000,  0.0000)
  32 Li     4.911106    7.023451   19.864067    ( 0.0000,  0.0000,  0.0000)
  33 Li     2.533462    8.654296   19.609020    ( 0.0000,  0.0000,  0.0000)
  34 Li     2.439915    7.088307   22.122421    ( 0.0000,  0.0000,  0.0000)
  35 Li     0.017367    8.827646   22.141272    ( 0.0000,  0.0000,  0.0000)
  36 Li     0.000000   10.470000   10.000000    ( 0.0000,  0.0000,  0.0000)
  37 Li     2.467803   12.215000   10.000000    ( 0.0000,  0.0000,  0.0000)
  38 Li     2.467803   10.470000   12.467803    ( 0.0000,  0.0000,  0.0000)
  39 Li     0.000000   12.215000   12.467803    ( 0.0000,  0.0000,  0.0000)
  40 Li     4.935605   10.470000   14.935605    ( 0.0000,  0.0000,  0.0000)
  41 Li     2.467803   12.215000   14.935605    ( 0.0000,  0.0000,  0.0000)
  42 Li     2.474425   10.479459   17.336053    ( 0.0000,  0.0000,  0.0000)
  43 Li     4.929585   12.242129   17.362912    ( 0.0000,  0.0000,  0.0000)
  44 Li     4.886398   10.467036   19.772395    ( 0.0000,  0.0000,  0.0000)
  45 Li     2.532105   12.281460   19.640452    ( 0.0000,  0.0000,  0.0000)
  46 Li     2.452387   10.469290   21.697849    ( 0.0000,  0.0000,  0.0000)
  47 Li    -0.026003   12.089352   22.116484    ( 0.0000,  0.0000,  0.0000)
  48 Li     4.935605    0.000000   10.000000    ( 0.0000,  0.0000,  0.0000)
  49 Li     7.403408    1.745000   10.000000    ( 0.0000,  0.0000,  0.0000)
  50 Li     7.403408    0.000000   12.467803    ( 0.0000,  0.0000,  0.0000)
  51 Li     4.935605    1.745000   12.467803    ( 0.0000,  0.0000,  0.0000)
  52 Li     9.871211    0.000000   14.935605    ( 0.0000,  0.0000,  0.0000)
  53 Li     7.403408    1.745000   14.935605    ( 0.0000,  0.0000,  0.0000)
  54 Li     7.397461   -0.001537   17.321422    ( 0.0000,  0.0000,  0.0000)
  55 Li     9.868468    1.744021   17.372486    ( 0.0000,  0.0000,  0.0000)
  56 Li     9.714037    0.001002   19.776571    ( 0.0000,  0.0000,  0.0000)
  57 Li     7.247063    1.742173   19.682998    ( 0.0000,  0.0000,  0.0000)
  58 Li     7.467817   -0.044597   22.017008    ( 0.0000,  0.0000,  0.0000)
  59 Li     4.960125    1.744614   22.163405    ( 0.0000,  0.0000,  0.0000)
  60 Li     4.935605    3.490000   10.000000    ( 0.0000,  0.0000,  0.0000)
  61 Li     7.403408    5.235000   10.000000    ( 0.0000,  0.0000,  0.0000)
  62 Li     7.403408    3.490000   12.467803    ( 0.0000,  0.0000,  0.0000)
  63 Li     4.935605    5.235000   12.467803    ( 0.0000,  0.0000,  0.0000)
  64 Li     9.871211    3.490000   14.935605    ( 0.0000,  0.0000,  0.0000)
  65 Li     7.403408    5.235000   14.935605    ( 0.0000,  0.0000,  0.0000)
  66 Li     7.384925    3.490561   17.323697    ( 0.0000,  0.0000,  0.0000)
  67 Li     9.867994    5.238003   17.375482    ( 0.0000,  0.0000,  0.0000)
  68 Li     9.724034    3.489022   19.757221    ( 0.0000,  0.0000,  0.0000)
  69 Li     7.249018    5.240431   19.681530    ( 0.0000,  0.0000,  0.0000)
  70 Li     7.512094    3.495941   22.007675    ( 0.0000,  0.0000,  0.0000)
  71 Li     4.952976    5.243534   22.176675    ( 0.0000,  0.0000,  0.0000)
  72 Li     4.935605    6.980000   10.000000    ( 0.0000,  0.0000,  0.0000)
  73 Li     7.403408    8.725000   10.000000    ( 0.0000,  0.0000,  0.0000)
  74 Li     7.403408    6.980000   12.467803    ( 0.0000,  0.0000,  0.0000)
  75 Li     4.935605    8.725000   12.467803    ( 0.0000,  0.0000,  0.0000)
  76 Li     9.871211    6.980000   14.935605    ( 0.0000,  0.0000,  0.0000)
  77 Li     7.403408    8.725000   14.935605    ( 0.0000,  0.0000,  0.0000)
  78 Li     7.394810    6.980823   17.318833    ( 0.0000,  0.0000,  0.0000)
  79 Li     9.867729    8.727278   17.379606    ( 0.0000,  0.0000,  0.0000)
  80 Li     9.710008    6.981561   19.784375    ( 0.0000,  0.0000,  0.0000)
  81 Li     7.253269    8.746130   19.662135    ( 0.0000,  0.0000,  0.0000)
  82 Li     7.454197    7.029900   22.018552    ( 0.0000,  0.0000,  0.0000)
  83 Li     4.896494    8.813204   22.253058    ( 0.0000,  0.0000,  0.0000)
  84 Li     4.935605   10.470000   10.000000    ( 0.0000,  0.0000,  0.0000)
  85 Li     7.403408   12.215000   10.000000    ( 0.0000,  0.0000,  0.0000)
  86 Li     7.403408   10.470000   12.467803    ( 0.0000,  0.0000,  0.0000)
  87 Li     4.935605   12.215000   12.467803    ( 0.0000,  0.0000,  0.0000)
  88 Li     9.871211   10.470000   14.935605    ( 0.0000,  0.0000,  0.0000)
  89 Li     7.403408   12.215000   14.935605    ( 0.0000,  0.0000,  0.0000)
  90 Li     7.377408   10.470132   17.309472    ( 0.0000,  0.0000,  0.0000)
  91 Li     9.868413   12.210698   17.378699    ( 0.0000,  0.0000,  0.0000)
  92 Li     9.719909   10.468420   19.781071    ( 0.0000,  0.0000,  0.0000)
  93 Li     7.256082   12.191227   19.666827    ( 0.0000,  0.0000,  0.0000)
  94 Li     7.490314   10.458707   22.018854    ( 0.0000,  0.0000,  0.0000)
  95 Li     4.912268   12.117661   22.243513    ( 0.0000,  0.0000,  0.0000)
  96 Li     9.871211    0.000000   10.000000    ( 0.0000,  0.0000,  0.0000)
  97 Li    12.339013    1.745000   10.000000    ( 0.0000,  0.0000,  0.0000)
  98 Li    12.339013    0.000000   12.467803    ( 0.0000,  0.0000,  0.0000)
  99 Li     9.871211    1.745000   12.467803    ( 0.0000,  0.0000,  0.0000)
 100 Li    14.806816    0.000000   14.935605    ( 0.0000,  0.0000,  0.0000)
 101 Li    12.339013    1.745000   14.935605    ( 0.0000,  0.0000,  0.0000)
 102 Li    12.338171   -0.000069   17.332276    ( 0.0000,  0.0000,  0.0000)
 103 Li    14.807101    1.746187   17.329607    ( 0.0000,  0.0000,  0.0000)
 104 Li    14.866123   -0.001342   19.672351    ( 0.0000,  0.0000,  0.0000)
 105 Li    12.281508    1.743764   19.673011    ( 0.0000,  0.0000,  0.0000)
 106 Li     9.871211    3.490000   10.000000    ( 0.0000,  0.0000,  0.0000)
 107 Li    12.339013    5.235000   10.000000    ( 0.0000,  0.0000,  0.0000)
 108 Li    12.339013    3.490000   12.467803    ( 0.0000,  0.0000,  0.0000)
 109 Li     9.871211    5.235000   12.467803    ( 0.0000,  0.0000,  0.0000)
 110 Li    14.806816    3.490000   14.935605    ( 0.0000,  0.0000,  0.0000)
 111 Li    12.339013    5.235000   14.935605    ( 0.0000,  0.0000,  0.0000)
 112 Li    12.337591    3.490278   17.331966    ( 0.0000,  0.0000,  0.0000)
 113 Li    14.807904    5.234467   17.329664    ( 0.0000,  0.0000,  0.0000)
 114 Li    14.860466    3.490240   19.671721    ( 0.0000,  0.0000,  0.0000)
 115 Li    12.281089    5.237969   19.673084    ( 0.0000,  0.0000,  0.0000)
 116 Li     9.871211    6.980000   10.000000    ( 0.0000,  0.0000,  0.0000)
 117 Li    12.339013    8.725000   10.000000    ( 0.0000,  0.0000,  0.0000)
 118 Li    12.339013    6.980000   12.467803    ( 0.0000,  0.0000,  0.0000)
 119 Li     9.871211    8.725000   12.467803    ( 0.0000,  0.0000,  0.0000)
 120 Li    14.806816    6.980000   14.935605    ( 0.0000,  0.0000,  0.0000)
 121 Li    12.339013    8.725000   14.935605    ( 0.0000,  0.0000,  0.0000)
 122 Li    12.338864    6.980073   17.331784    ( 0.0000,  0.0000,  0.0000)
 123 Li    14.801966    8.726426   17.326028    ( 0.0000,  0.0000,  0.0000)
 124 Li    14.871490    6.983453   19.672260    ( 0.0000,  0.0000,  0.0000)
 125 Li    12.281067    8.724808   19.673080    ( 0.0000,  0.0000,  0.0000)
 126 Li     9.871211   10.470000   10.000000    ( 0.0000,  0.0000,  0.0000)
 127 Li    12.339013   12.215000   10.000000    ( 0.0000,  0.0000,  0.0000)
 128 Li    12.339013   10.470000   12.467803    ( 0.0000,  0.0000,  0.0000)
 129 Li     9.871211   12.215000   12.467803    ( 0.0000,  0.0000,  0.0000)
 130 Li    14.806816   10.470000   14.935605    ( 0.0000,  0.0000,  0.0000)
 131 Li    12.339013   12.215000   14.935605    ( 0.0000,  0.0000,  0.0000)
 132 Li    12.340077   10.469714   17.331182    ( 0.0000,  0.0000,  0.0000)
 133 Li    14.804335   12.212923   17.327919    ( 0.0000,  0.0000,  0.0000)
 134 Li    14.870054   10.467649   19.669932    ( 0.0000,  0.0000,  0.0000)
 135 Li    12.280789   12.213458   19.673445    ( 0.0000,  0.0000,  0.0000)
 136 Li    14.806816    0.000000   10.000000    ( 0.0000,  0.0000,  0.0000)
 137 Li    17.274619    1.745000   10.000000    ( 0.0000,  0.0000,  0.0000)
 138 Li    17.274619    0.000000   12.467803    ( 0.0000,  0.0000,  0.0000)
 139 Li    14.806816    1.745000   12.467803    ( 0.0000,  0.0000,  0.0000)
 140 Li    19.742421    0.000000   14.935605    ( 0.0000,  0.0000,  0.0000)
 141 Li    17.274619    1.745000   14.935605    ( 0.0000,  0.0000,  0.0000)
 142 Li    17.270972   -0.012397   17.387449    ( 0.0000,  0.0000,  0.0000)
 143 Li    19.745072    1.738169   17.347487    ( 0.0000,  0.0000,  0.0000)
 144 Li    19.885820   -0.044488   19.720935    ( 0.0000,  0.0000,  0.0000)
 145 Li    17.423435    1.753599   19.759478    ( 0.0000,  0.0000,  0.0000)
 146 Li    14.806816    3.490000   10.000000    ( 0.0000,  0.0000,  0.0000)
 147 Li    17.274619    5.235000   10.000000    ( 0.0000,  0.0000,  0.0000)
 148 Li    17.274619    3.490000   12.467803    ( 0.0000,  0.0000,  0.0000)
 149 Li    14.806816    5.235000   12.467803    ( 0.0000,  0.0000,  0.0000)
 150 Li    19.742421    3.490000   14.935605    ( 0.0000,  0.0000,  0.0000)
 151 Li    17.274619    5.235000   14.935605    ( 0.0000,  0.0000,  0.0000)
 152 Li    17.276237    3.491456   17.368883    ( 0.0000,  0.0000,  0.0000)
 153 Li    19.744199    5.239527   17.341055    ( 0.0000,  0.0000,  0.0000)
 154 Li    19.906372    3.495080   19.709102    ( 0.0000,  0.0000,  0.0000)
 155 Li    17.425843    5.222574   19.768712    ( 0.0000,  0.0000,  0.0000)
 156 Li    14.806816    6.980000   10.000000    ( 0.0000,  0.0000,  0.0000)
 157 Li    17.274619    8.725000   10.000000    ( 0.0000,  0.0000,  0.0000)
 158 Li    17.274619    6.980000   12.467803    ( 0.0000,  0.0000,  0.0000)
 159 Li    14.806816    8.725000   12.467803    ( 0.0000,  0.0000,  0.0000)
 160 Li    19.742421    6.980000   14.935605    ( 0.0000,  0.0000,  0.0000)
 161 Li    17.274619    8.725000   14.935605    ( 0.0000,  0.0000,  0.0000)
 162 Li    17.274699    6.997066   17.398218    ( 0.0000,  0.0000,  0.0000)
 163 Li    19.769774    8.701833   17.300759    ( 0.0000,  0.0000,  0.0000)
 164 Li    19.886287    7.021490   19.710868    ( 0.0000,  0.0000,  0.0000)
 165 Li    17.452655    8.735984   19.859473    ( 0.0000,  0.0000,  0.0000)
 166 Li    14.806816   10.470000   10.000000    ( 0.0000,  0.0000,  0.0000)
 167 Li    17.274619   12.215000   10.000000    ( 0.0000,  0.0000,  0.0000)
 168 Li    17.274619   10.470000   12.467803    ( 0.0000,  0.0000,  0.0000)
 169 Li    14.806816   12.215000   12.467803    ( 0.0000,  0.0000,  0.0000)
 170 Li    19.742421   10.470000   14.935605    ( 0.0000,  0.0000,  0.0000)
 171 Li    17.274619   12.215000   14.935605    ( 0.0000,  0.0000,  0.0000)
 172 Li    17.291419   10.463856   17.404511    ( 0.0000,  0.0000,  0.0000)
 173 Li    19.763079   12.240489   17.303882    ( 0.0000,  0.0000,  0.0000)
 174 Li    19.894630   10.467844   19.628331    ( 0.0000,  0.0000,  0.0000)
 175 Li    17.440484   12.207872   19.829503    ( 0.0000,  0.0000,  0.0000)
 176 Li     2.471332    9.886919   24.190322    ( 0.0000,  0.0000,  0.0000)

Unit cell:
           periodic     x           y           z      points  spacing
  1. axis:    yes   19.742421    0.000000    0.000000   100     0.1974
  2. axis:    yes    0.000000   13.960000    0.000000    68     0.2053
  3. axis:    no     0.000000    0.000000   32.339013   160     0.2021

  Lengths:  19.742421  13.960000  32.339013
  Angles:   90.000000  90.000000  90.000000

Effective grid spacing dv^(1/3) = 0.2016

     iter     time        total  log10-change:
                         energy   eigst   dens
iter:   1 06:42:53  -310.456374        c
iter:   2 06:43:41  -310.456366        c -3.77
iter:   3 06:44:28  -310.456320c       c -4.03c

Converged after 3 iterations.

Dipole moment: (-39.968465, -15.601376, 0.749278) |e|*Ang

Energy contributions relative to reference atoms: (reference = -35893.444183)

Kinetic:       +328.797264
Potential:     -279.702657
External:        +0.000000
XC:            -354.413204
Entropy (-ST):   -5.743685
Local:           -2.265880
SIC:             +0.000000
--------------------------
Free energy:   -313.328163
Extrapolated:  -310.456320

Showing all kpts
 Kpt  Band  Eigenvalues  Occupancy
  0    86     -2.89009    1.13678
  0    87     -2.87386    1.08336
  0    88     -2.84549    0.98897
  0    89     -2.83455    0.95257

  1    86     -2.89009    1.13678
  1    87     -2.87379    1.08314
  1    88     -2.84642    0.99207
  1    89     -2.83343    0.94884


Fermi level: -2.84879

Gap: 0.027 eV
Transition (v -> c):
  (s=0, k=1, n=87, [0.25, 0.25, 0.00]) -> (s=0, k=1, n=88, [0.25, 0.25, 0.00])
No difference between direct/indirect transitions

Forces in eV/Ang:
  0 Li   -0.00118   -0.00138    0.12750
  1 Li   -0.00428   -0.00140    0.12544
  2 Li    0.00118   -0.00062   -0.05689
  3 Li   -0.00087    0.00104   -0.06039
  4 Li   -0.00187    0.01637   -0.05551
  5 Li    0.00320    0.02088   -0.06798
  6 Li   -0.00261    0.00224   -0.01257
  7 Li   -0.00309   -0.00003   -0.00671
  8 Li    0.01049    0.00787   -0.00167
  9 Li   -0.01637    0.00864    0.01119
 10 Li    0.00718    0.01690   -0.03582
 11 Li    0.01087   -0.00832   -0.01510
 12 Li   -0.00073    0.00063    0.12639
 13 Li   -0.00393    0.00167    0.12608
 14 Li    0.00116   -0.00047   -0.06478
 15 Li   -0.00068   -0.00064   -0.05819
 16 Li   -0.00809   -0.00095   -0.01546
 17 Li    0.00340   -0.02772   -0.07527
 18 Li   -0.00458    0.00275   -0.00215
 19 Li   -0.00379   -0.00064   -0.00682
 20 Li    0.01722   -0.00018    0.00217
 21 Li   -0.01715   -0.01353    0.00992
 22 Li    0.00971   -0.00158   -0.03822
 23 Li    0.00724    0.00077   -0.01996
 24 Li   -0.00140    0.00074    0.12637
 25 Li   -0.00358   -0.00036    0.12300
 26 Li    0.00132    0.00126   -0.05417
 27 Li   -0.00002    0.00011   -0.05205
 28 Li   -0.00127   -0.01709   -0.05840
 29 Li    0.00536   -0.00757   -0.04189
 30 Li   -0.00237   -0.00643   -0.01454
 31 Li    0.01185    0.00488   -0.00401
 32 Li    0.01738   -0.01313   -0.00980
 33 Li   -0.01478   -0.00121   -0.02271
 34 Li    0.00545    0.06321    0.04452
 35 Li    0.02545    0.00387   -0.01900
 36 Li   -0.00166    0.00005    0.12472
 37 Li   -0.00378    0.00011    0.12398
 38 Li    0.00106   -0.00035   -0.05464
 39 Li   -0.00016   -0.00036   -0.05270
 40 Li   -0.00180    0.00223   -0.04252
 41 Li    0.00527    0.01373   -0.05128
 42 Li   -0.00130   -0.00001    0.00972
 43 Li    0.00878   -0.00341   -0.00690
 44 Li    0.01909    0.00342   -0.01469
 45 Li   -0.01476    0.01278   -0.02637
 46 Li   -0.01039    0.04989   -0.18798
 47 Li    0.02177   -0.02275   -0.00594
 48 Li    0.00313   -0.00203    0.12844
 49 Li    0.00179   -0.00135    0.12655
 50 Li    0.00031    0.00014   -0.05842
 51 Li   -0.00059    0.00120   -0.06408
 52 Li    0.00483   -0.00203   -0.03321
 53 Li    0.00118   -0.00183   -0.06779
 54 Li   -0.00221   -0.00078    0.00939
 55 Li   -0.00060   -0.00163   -0.00652
 56 Li    0.00557   -0.00119   -0.01148
 57 Li    0.01274    0.00084    0.00021
 58 Li   -0.00651    0.00264   -0.01749
 59 Li   -0.01308   -0.00375   -0.02301
 60 Li    0.00276    0.00091    0.12720
 61 Li    0.00084    0.00155    0.12608
 62 Li   -0.00044   -0.00016   -0.05570
 63 Li   -0.00098   -0.00115   -0.06348
 64 Li    0.00264    0.00097   -0.03234
 65 Li    0.00177    0.00090   -0.06934
 66 Li    0.00289   -0.00083    0.00762
 67 Li   -0.00080    0.00182   -0.00731
 68 Li    0.00245    0.00016   -0.00849
 69 Li    0.01185   -0.00161    0.00045
 70 Li   -0.01126   -0.00143   -0.00906
 71 Li   -0.00855   -0.00198   -0.02834
 72 Li    0.00323    0.00133    0.12742
 73 Li   -0.00069    0.00010    0.12513
 74 Li    0.00031    0.00016   -0.05815
 75 Li   -0.00203   -0.00013   -0.05722
 76 Li    0.00436    0.00175   -0.03263
 77 Li    0.00508   -0.00355   -0.07906
 78 Li   -0.00058    0.00112    0.00901
 79 Li   -0.00115    0.00094   -0.00731
 80 Li    0.00822    0.00041   -0.01337
 81 Li    0.02165   -0.00905    0.00148
 82 Li   -0.00290   -0.00489   -0.01905
 83 Li   -0.02346    0.00345   -0.03516
 84 Li    0.00367   -0.00017    0.12514
 85 Li   -0.00028   -0.00039    0.12491
 86 Li    0.00070   -0.00032   -0.05595
 87 Li   -0.00176    0.00032   -0.05807
 88 Li    0.00268   -0.00062   -0.03191
 89 Li    0.00381    0.00412   -0.07827
 90 Li   -0.00012   -0.00016    0.00101
 91 Li   -0.00074   -0.00115   -0.00738
 92 Li    0.01087    0.00076   -0.01377
 93 Li    0.02418    0.00845   -0.00036
 94 Li    0.00406    0.00179   -0.01306
 95 Li   -0.02618   -0.02876   -0.01223
 96 Li   -0.00005   -0.00006    0.12360
 97 Li    0.00063    0.00069    0.12330
 98 Li   -0.00015    0.00045   -0.05967
 99 Li    0.00131    0.00014   -0.05795
100 Li   -0.00407    0.00056   -0.05485
101 Li    0.00420    0.00002   -0.05489
102 Li   -0.00210   -0.00068    0.02739
[...]
139 Li    0.00020   -0.00017   -0.06030
140 Li   -0.00523    0.01930   -0.08521
141 Li   -0.00260   -0.00812   -0.02501
142 Li    0.00320   -0.00437   -0.00278
143 Li    0.00450    0.00051    0.00290
144 Li   -0.01248    0.00411    0.00100
145 Li   -0.00127   -0.00208   -0.00687
146 Li   -0.00217   -0.00024    0.12573
147 Li    0.00152    0.00164    0.12296
148 Li   -0.00064   -0.00013   -0.05496
149 Li    0.00040   -0.00000   -0.06016
150 Li    0.00212   -0.00220   -0.05039
151 Li   -0.00311    0.01085   -0.02320
152 Li   -0.00332   -0.00021   -0.00423
153 Li    0.00446   -0.00182    0.00186
154 Li   -0.00903   -0.00016   -0.00289
155 Li   -0.00173    0.00286   -0.00707
156 Li    0.00010    0.00020    0.12441
157 Li    0.00221    0.00010    0.12164
158 Li   -0.00177   -0.00016   -0.05879
159 Li   -0.00006    0.00032   -0.06068
160 Li   -0.00629   -0.01845   -0.08431
161 Li   -0.00714    0.00189   -0.02817
162 Li    0.00216    0.00361   -0.00485
163 Li   -0.00708    0.00460    0.00186
164 Li   -0.01529   -0.00960   -0.00789
165 Li   -0.01703   -0.00351   -0.02047
166 Li    0.00072   -0.00020    0.12479
167 Li    0.00252   -0.00056    0.12191
168 Li   -0.00130   -0.00012   -0.05757
169 Li   -0.00009   -0.00024   -0.06039
170 Li   -0.00539    0.00172   -0.06521
171 Li   -0.00635   -0.00500   -0.02714
172 Li   -0.00242    0.00063   -0.00756
173 Li   -0.00563   -0.00345   -0.00038
174 Li   -0.01118    0.00137   -0.01337
175 Li   -0.01529    0.00351   -0.01571
176 Li   -0.00627   -0.05781    0.04853

System changes: positions 

Initializing position-dependent things.

Density initialized from wave functions
          .------------------------------------------------.  
         /|                                                |  
        / |                                                |  
       /  |                                                |  
      /   |                                                |  
     /    |                                                |  
    /     |                                                |  
   /      |                                                |  
  /       |                                                |  
 *        |                                                |  
 |        |                                                |  
 |        |                                                |  
 |        |                                                |  
 |        |   LiLi           Li                            |  
 |        |          Li                                   Li  
 |        |   Li      Li  Li                               |  
 |     Li Li       Li                          Li          |  
 |        | Li Li       Li Li          Li           Li     |  
 |      Li|      Li Li          Li           Li      Li    |  
 |       Li  Li          Li Li       Li  Li       Li Li    |  
 |    Li Li   Li  Li LLi      Li Li       Li  Li           |  
 |        |Li Li      Li  Li       Li Li        Li Li      |  
 |  Li Li |    Li  Li      Li  Li       Li Li              |  
 |      Li| Li Li       Li Li       Li Li    Li Li  Li     |  
 |  Li  Li|      Li Li       Li LLi      Li  Li            |  
 |       Li  Li       Li Li       Li Li       Li  Li       |  
 |Li Li  Li   Li  Li Li    Li Li Li    Li Li  Li           |  
 |        Li  Li       Li Li       Li Li       Li  Li      |  
 | Li  Li |    Li  Li       Li Li       Li Li              |  
 |      Li| Li Li    Li Li Li    Li Li Li    Li Li  Li     |  
 |  Li  Li|      Li Li       Li Li       Li  Li            |  
 Li      Li  Li       Li Li       Li LLi      Li  Li       |  
 |Li Li   |   Li  Li       Li Li       Li Li               |  
 |        Li           Li          Li          Li          |  
 | Li  Li |    Li  Li       Li  Li      Li  Li             |  
 |        |                                                |  
 |      Li|          Li          Li          Li            |  
 Li       |  Li          Li           Li                   |  
 |        |                                                |  
 |        |                                                |  
 |        .------------------------------------------------.  
 |       /                                                /   
 |      /                                                /    
 |     /                                                /     
 |    /                                                /      
 |   /                                                /       
 |  /                                                /        
 | /                                                /         
 |/                                                /          
 *------------------------------------------------*           

Atomic positions and initial magnetic moments

Positions:
   0 Li     0.000000    0.000000   10.000000    ( 0.0000,  0.0000,  0.0000)
   1 Li     2.467803    1.745000   10.000000    ( 0.0000,  0.0000,  0.0000)
   2 Li     2.467803    0.000000   12.467803    ( 0.0000,  0.0000,  0.0000)
   3 Li     0.000000    1.745000   12.467803    ( 0.0000,  0.0000,  0.0000)
   4 Li     4.935605    0.000000   14.935605    ( 0.0000,  0.0000,  0.0000)
   5 Li     2.467803    1.745000   14.935605    ( 0.0000,  0.0000,  0.0000)
   6 Li     2.467218    0.044404   17.329043    ( 0.0000,  0.0000,  0.0000)
   7 Li     4.935006    1.731033   17.407533    ( 0.0000,  0.0000,  0.0000)
   8 Li     4.911157   -0.045143   19.871913    ( 0.0000,  0.0000,  0.0000)
   9 Li     2.518807    1.702712   19.823160    ( 0.0000,  0.0000,  0.0000)
  10 Li     2.426749   -0.106488   22.147693    ( 0.0000,  0.0000,  0.0000)
  11 Li    -0.116277    1.718457   22.030728    ( 0.0000,  0.0000,  0.0000)
  12 Li     0.000000    3.490000   10.000000    ( 0.0000,  0.0000,  0.0000)
  13 Li     2.467803    5.235000   10.000000    ( 0.0000,  0.0000,  0.0000)
  14 Li     2.467803    3.490000   12.467803    ( 0.0000,  0.0000,  0.0000)
  15 Li     0.000000    5.235000   12.467803    ( 0.0000,  0.0000,  0.0000)
  16 Li     4.935605    3.490000   14.935605    ( 0.0000,  0.0000,  0.0000)
  17 Li     2.467803    5.235000   14.935605    ( 0.0000,  0.0000,  0.0000)
  18 Li     2.473496    3.488706   17.391763    ( 0.0000,  0.0000,  0.0000)
  19 Li     4.936024    5.247182   17.401765    ( 0.0000,  0.0000,  0.0000)
  20 Li     4.872199    3.495738   19.835947    ( 0.0000,  0.0000,  0.0000)
  21 Li     2.519154    5.280961   19.813781    ( 0.0000,  0.0000,  0.0000)
  22 Li     2.404054    3.495280   22.124275    ( 0.0000,  0.0000,  0.0000)
  23 Li    -0.102845    5.282213   22.041477    ( 0.0000,  0.0000,  0.0000)
  24 Li     0.000000    6.980000   10.000000    ( 0.0000,  0.0000,  0.0000)
  25 Li     2.467803    8.725000   10.000000    ( 0.0000,  0.0000,  0.0000)
  26 Li     2.467803    6.980000   12.467803    ( 0.0000,  0.0000,  0.0000)
  27 Li     0.000000    8.725000   12.467803    ( 0.0000,  0.0000,  0.0000)
  28 Li     4.935605    6.980000   14.935605    ( 0.0000,  0.0000,  0.0000)
  29 Li     2.467803    8.725000   14.935605    ( 0.0000,  0.0000,  0.0000)
  30 Li     2.467257    6.927228   17.318555    ( 0.0000,  0.0000,  0.0000)
  31 Li     4.928449    8.700309   17.357143    ( 0.0000,  0.0000,  0.0000)
  32 Li     4.914234    7.021259   19.862512    ( 0.0000,  0.0000,  0.0000)
  33 Li     2.530869    8.653483   19.604547    ( 0.0000,  0.0000,  0.0000)
  34 Li     2.440835    7.100039   22.130895    ( 0.0000,  0.0000,  0.0000)
  35 Li     0.021868    8.828808   22.137874    ( 0.0000,  0.0000,  0.0000)
  36 Li     0.000000   10.470000   10.000000    ( 0.0000,  0.0000,  0.0000)
  37 Li     2.467803   12.215000   10.000000    ( 0.0000,  0.0000,  0.0000)
  38 Li     2.467803   10.470000   12.467803    ( 0.0000,  0.0000,  0.0000)
  39 Li     0.000000   12.215000   12.467803    ( 0.0000,  0.0000,  0.0000)
  40 Li     4.935605   10.470000   14.935605    ( 0.0000,  0.0000,  0.0000)
  41 Li     2.467803   12.215000   14.935605    ( 0.0000,  0.0000,  0.0000)
  42 Li     2.474221   10.479381   17.337861    ( 0.0000,  0.0000,  0.0000)
  43 Li     4.931151   12.241634   17.361635    ( 0.0000,  0.0000,  0.0000)
  44 Li     4.889901   10.467680   19.769491    ( 0.0000,  0.0000,  0.0000)
  45 Li     2.529526   12.284447   19.634881    ( 0.0000,  0.0000,  0.0000)
  46 Li     2.450511   10.477894   21.664432    ( 0.0000,  0.0000,  0.0000)
  47 Li    -0.021814   12.085049   22.115687    ( 0.0000,  0.0000,  0.0000)
  48 Li     4.935605    0.000000   10.000000    ( 0.0000,  0.0000,  0.0000)
  49 Li     7.403408    1.745000   10.000000    ( 0.0000,  0.0000,  0.0000)
  50 Li     7.403408    0.000000   12.467803    ( 0.0000,  0.0000,  0.0000)
  51 Li     4.935605    1.745000   12.467803    ( 0.0000,  0.0000,  0.0000)
  52 Li     9.871211    0.000000   14.935605    ( 0.0000,  0.0000,  0.0000)
  53 Li     7.403408    1.745000   14.935605    ( 0.0000,  0.0000,  0.0000)
  54 Li     7.397082   -0.001660   17.323132    ( 0.0000,  0.0000,  0.0000)
  55 Li     9.868366    1.743725   17.371359    ( 0.0000,  0.0000,  0.0000)
  56 Li     9.715033    0.000788   19.774633    ( 0.0000,  0.0000,  0.0000)
  57 Li     7.249358    1.742307   19.683088    ( 0.0000,  0.0000,  0.0000)
  58 Li     7.466446   -0.044253   22.013961    ( 0.0000,  0.0000,  0.0000)
  59 Li     4.957747    1.743942   22.159379    ( 0.0000,  0.0000,  0.0000)
  60 Li     4.935605    3.490000   10.000000    ( 0.0000,  0.0000,  0.0000)
  61 Li     7.403408    5.235000   10.000000    ( 0.0000,  0.0000,  0.0000)
  62 Li     7.403408    3.490000   12.467803    ( 0.0000,  0.0000,  0.0000)
  63 Li     4.935605    5.235000   12.467803    ( 0.0000,  0.0000,  0.0000)
  64 Li     9.871211    3.490000   14.935605    ( 0.0000,  0.0000,  0.0000)
  65 Li     7.403408    5.235000   14.935605    ( 0.0000,  0.0000,  0.0000)
  66 Li     7.385404    3.490409   17.325098    ( 0.0000,  0.0000,  0.0000)
  67 Li     9.867860    5.238309   17.374181    ( 0.0000,  0.0000,  0.0000)
  68 Li     9.724499    3.489058   19.755738    ( 0.0000,  0.0000,  0.0000)
  69 Li     7.251145    5.240122   19.681673    ( 0.0000,  0.0000,  0.0000)
  70 Li     7.510072    3.495620   22.006099    ( 0.0000,  0.0000,  0.0000)
  71 Li     4.951422    5.243163   22.171568    ( 0.0000,  0.0000,  0.0000)
  72 Li     4.935605    6.980000   10.000000    ( 0.0000,  0.0000,  0.0000)
  73 Li     7.403408    8.725000   10.000000    ( 0.0000,  0.0000,  0.0000)
  74 Li     7.403408    6.980000   12.467803    ( 0.0000,  0.0000,  0.0000)
  75 Li     4.935605    8.725000   12.467803    ( 0.0000,  0.0000,  0.0000)
  76 Li     9.871211    6.980000   14.935605    ( 0.0000,  0.0000,  0.0000)
  77 Li     7.403408    8.725000   14.935605    ( 0.0000,  0.0000,  0.0000)
  78 Li     7.394744    6.981010   17.320500    ( 0.0000,  0.0000,  0.0000)
  79 Li     9.867538    8.727453   17.378301    ( 0.0000,  0.0000,  0.0000)
  80 Li     9.711511    6.981612   19.782025    ( 0.0000,  0.0000,  0.0000)
  81 Li     7.257186    8.744613   19.662450    ( 0.0000,  0.0000,  0.0000)
  82 Li     7.453604    7.029086   22.015205    ( 0.0000,  0.0000,  0.0000)
  83 Li     4.892266    8.814273   22.246821    ( 0.0000,  0.0000,  0.0000)
  84 Li     4.935605   10.470000   10.000000    ( 0.0000,  0.0000,  0.0000)
  85 Li     7.403408   12.215000   10.000000    ( 0.0000,  0.0000,  0.0000)
  86 Li     7.403408   10.470000   12.467803    ( 0.0000,  0.0000,  0.0000)
  87 Li     4.935605   12.215000   12.467803    ( 0.0000,  0.0000,  0.0000)
  88 Li     9.871211   10.470000   14.935605    ( 0.0000,  0.0000,  0.0000)
  89 Li     7.403408   12.215000   14.935605    ( 0.0000,  0.0000,  0.0000)
  90 Li     7.377377   10.470105   17.309688    ( 0.0000,  0.0000,  0.0000)
  91 Li     9.868287   12.210511   17.377390    ( 0.0000,  0.0000,  0.0000)
  92 Li     9.721927   10.468570   19.778637    ( 0.0000,  0.0000,  0.0000)
  93 Li     7.260434   12.192663   19.666767    ( 0.0000,  0.0000,  0.0000)
  94 Li     7.491148   10.459119   22.016561    ( 0.0000,  0.0000,  0.0000)
  95 Li     4.907432   12.112195   22.241525    ( 0.0000,  0.0000,  0.0000)
  96 Li     9.871211    0.000000   10.000000    ( 0.0000,  0.0000,  0.0000)
  97 Li    12.339013    1.745000   10.000000    ( 0.0000,  0.0000,  0.0000)
  98 Li    12.339013    0.000000   12.467803    ( 0.0000,  0.0000,  0.0000)
  99 Li     9.871211    1.745000   12.467803    ( 0.0000,  0.0000,  0.0000)
 100 Li    14.806816    0.000000   14.935605    ( 0.0000,  0.0000,  0.0000)
 101 Li    12.339013    1.745000   14.935605    ( 0.0000,  0.0000,  0.0000)
 102 Li    12.337811   -0.000186   17.337131    ( 0.0000,  0.0000,  0.0000)
 103 Li    14.807708    1.745823   17.334742    ( 0.0000,  0.0000,  0.0000)
 104 Li    14.865130   -0.001592   19.669956    ( 0.0000,  0.0000,  0.0000)
 105 Li    12.282679    1.743588   19.670822    ( 0.0000,  0.0000,  0.0000)
 106 Li     9.871211    3.490000   10.000000    ( 0.0000,  0.0000,  0.0000)
 107 Li    12.339013    5.235000   10.000000    ( 0.0000,  0.0000,  0.0000)
 108 Li    12.339013    3.490000   12.467803    ( 0.0000,  0.0000,  0.0000)
 109 Li     9.871211    5.235000   12.467803    ( 0.0000,  0.0000,  0.0000)
 110 Li    14.806816    3.490000   14.935605    ( 0.0000,  0.0000,  0.0000)
 111 Li    12.339013    5.235000   14.935605    ( 0.0000,  0.0000,  0.0000)
 112 Li    12.337165    3.490353   17.336957    ( 0.0000,  0.0000,  0.0000)
 113 Li    14.808520    5.235001   17.334827    ( 0.0000,  0.0000,  0.0000)
 114 Li    14.858983    3.490263   19.669187    ( 0.0000,  0.0000,  0.0000)
 115 Li    12.282413    5.238168   19.670957    ( 0.0000,  0.0000,  0.0000)
 116 Li     9.871211    6.980000   10.000000    ( 0.0000,  0.0000,  0.0000)
 117 Li    12.339013    8.725000   10.000000    ( 0.0000,  0.0000,  0.0000)
 118 Li    12.339013    6.980000   12.467803    ( 0.0000,  0.0000,  0.0000)
 119 Li     9.871211    8.725000   12.467803    ( 0.0000,  0.0000,  0.0000)
 120 Li    14.806816    6.980000   14.935605    ( 0.0000,  0.0000,  0.0000)
 121 Li    12.339013    8.725000   14.935605    ( 0.0000,  0.0000,  0.0000)
 122 Li    12.338428    6.980079   17.336565    ( 0.0000,  0.0000,  0.0000)
 123 Li    14.802446    8.726842   17.331216    ( 0.0000,  0.0000,  0.0000)
 124 Li    14.870213    6.983633   19.669957    ( 0.0000,  0.0000,  0.0000)
 125 Li    12.282682    8.724648   19.670968    ( 0.0000,  0.0000,  0.0000)
 126 Li     9.871211   10.470000   10.000000    ( 0.0000,  0.0000,  0.0000)
 127 Li    12.339013   12.215000   10.000000    ( 0.0000,  0.0000,  0.0000)
 128 Li    12.339013   10.470000   12.467803    ( 0.0000,  0.0000,  0.0000)
 129 Li     9.871211   12.215000   12.467803    ( 0.0000,  0.0000,  0.0000)
 130 Li    14.806816   10.470000   14.935605    ( 0.0000,  0.0000,  0.0000)
 131 Li    12.339013   12.215000   14.935605    ( 0.0000,  0.0000,  0.0000)
 132 Li    12.339426   10.469733   17.336263    ( 0.0000,  0.0000,  0.0000)
 133 Li    14.804853   12.212351   17.333018    ( 0.0000,  0.0000,  0.0000)
 134 Li    14.868428   10.467709   19.667749    ( 0.0000,  0.0000,  0.0000)
 135 Li    12.282410   12.213593   19.671313    ( 0.0000,  0.0000,  0.0000)
 136 Li    14.806816    0.000000   10.000000    ( 0.0000,  0.0000,  0.0000)
 137 Li    17.274619    1.745000   10.000000    ( 0.0000,  0.0000,  0.0000)
 138 Li    17.274619    0.000000   12.467803    ( 0.0000,  0.0000,  0.0000)
 139 Li    14.806816    1.745000   12.467803    ( 0.0000,  0.0000,  0.0000)
 140 Li    19.742421    0.000000   14.935605    ( 0.0000,  0.0000,  0.0000)
 141 Li    17.274619    1.745000   14.935605    ( 0.0000,  0.0000,  0.0000)
 142 Li    17.271610   -0.013465   17.387166    ( 0.0000,  0.0000,  0.0000)
 143 Li    19.746076    1.738286   17.348228    ( 0.0000,  0.0000,  0.0000)
 144 Li    19.883286   -0.043326   19.721458    ( 0.0000,  0.0000,  0.0000)
 145 Li    17.423521    1.753145   19.758302    ( 0.0000,  0.0000,  0.0000)
 146 Li    14.806816    3.490000   10.000000    ( 0.0000,  0.0000,  0.0000)
 147 Li    17.274619    5.235000   10.000000    ( 0.0000,  0.0000,  0.0000)
 148 Li    17.274619    3.490000   12.467803    ( 0.0000,  0.0000,  0.0000)
 149 Li    14.806816    5.235000   12.467803    ( 0.0000,  0.0000,  0.0000)
 150 Li    19.742421    3.490000   14.935605    ( 0.0000,  0.0000,  0.0000)
 151 Li    17.274619    5.235000   14.935605    ( 0.0000,  0.0000,  0.0000)
 152 Li    17.275454    3.491391   17.368107    ( 0.0000,  0.0000,  0.0000)
 153 Li    19.745249    5.239258   17.341720    ( 0.0000,  0.0000,  0.0000)
 154 Li    19.904922    3.495152   19.708880    ( 0.0000,  0.0000,  0.0000)
 155 Li    17.425852    5.223221   19.767459    ( 0.0000,  0.0000,  0.0000)
 156 Li    14.806816    6.980000   10.000000    ( 0.0000,  0.0000,  0.0000)
 157 Li    17.274619    8.725000   10.000000    ( 0.0000,  0.0000,  0.0000)
 158 Li    17.274619    6.980000   12.467803    ( 0.0000,  0.0000,  0.0000)
 159 Li    14.806816    8.725000   12.467803    ( 0.0000,  0.0000,  0.0000)
 160 Li    19.742421    6.980000   14.935605    ( 0.0000,  0.0000,  0.0000)
 161 Li    17.274619    8.725000   14.935605    ( 0.0000,  0.0000,  0.0000)
 162 Li    17.275092    6.997952   17.397455    ( 0.0000,  0.0000,  0.0000)
 163 Li    19.768287    8.702798   17.301334    ( 0.0000,  0.0000,  0.0000)
 164 Li    19.883014    7.019411   19.709660    ( 0.0000,  0.0000,  0.0000)
 165 Li    17.449097    8.735224   19.855350    ( 0.0000,  0.0000,  0.0000)
 166 Li    14.806816   10.470000   10.000000    ( 0.0000,  0.0000,  0.0000)
 167 Li    17.274619   12.215000   10.000000    ( 0.0000,  0.0000,  0.0000)
 168 Li    17.274619   10.470000   12.467803    ( 0.0000,  0.0000,  0.0000)
 169 Li    14.806816   12.215000   12.467803    ( 0.0000,  0.0000,  0.0000)
 170 Li    19.742421   10.470000   14.935605    ( 0.0000,  0.0000,  0.0000)
 171 Li    17.274619   12.215000   14.935605    ( 0.0000,  0.0000,  0.0000)
 172 Li    17.291064   10.464003   17.403225    ( 0.0000,  0.0000,  0.0000)
 173 Li    19.761958   12.239744   17.303940    ( 0.0000,  0.0000,  0.0000)
 174 Li    19.893334   10.468118   19.626280    ( 0.0000,  0.0000,  0.0000)
 175 Li    17.437430   12.208609   19.826549    ( 0.0000,  0.0000,  0.0000)
 176 Li     2.470182    9.879504   24.207396    ( 0.0000,  0.0000,  0.0000)

Unit cell:
           periodic     x           y           z      points  spacing
  1. axis:    yes   19.742421    0.000000    0.000000   100     0.1974
  2. axis:    yes    0.000000   13.960000    0.000000    68     0.2053
  3. axis:    no     0.000000    0.000000   32.339013   160     0.2021

  Lengths:  19.742421  13.960000  32.339013
  Angles:   90.000000  90.000000  90.000000

Effective grid spacing dv^(1/3) = 0.2016

     iter     time        total  log10-change:
                         energy   eigst   dens
iter:   1 09:07:46  -310.469022        c
iter:   2 09:08:36  -310.469241        c -3.26
iter:   3 09:09:23  -310.469035c       c -3.29
iter:   4 09:10:09  -310.468956c       c -3.64
iter:   5 09:11:04  -310.468951c       c -4.02c

Converged after 5 iterations.

Dipole moment: (-40.154115, -15.687663, 0.759422) |e|*Ang

Energy contributions relative to reference atoms: (reference = -35893.444183)

Kinetic:       +328.888510
Potential:     -279.751399
External:        +0.000000
XC:            -354.468823
Entropy (-ST):   -5.742983
Local:           -2.265748
SIC:             +0.000000
--------------------------
Free energy:   -313.340443
Extrapolated:  -310.468951

Showing all kpts
 Kpt  Band  Eigenvalues  Occupancy
  0    86     -2.88851    1.13744
  0    87     -2.87245    1.08459
  0    88     -2.84390    0.98964
  0    89     -2.83293    0.95311

  1    86     -2.88844    1.13724
  1    87     -2.87238    1.08437
  1    88     -2.84487    0.99285
  1    89     -2.83205    0.95018


Fermi level: -2.84701

Gap: 0.028 eV
Transition (v -> c):
  (s=0, k=1, n=87, [0.25, 0.25, 0.00]) -> (s=0, k=1, n=88, [0.25, 0.25, 0.00])
No difference between direct/indirect transitions
