
  ___ ___ ___ _ _ _  
 |   |   |_  | | | | 
 | | | | | . | | | | 
 |__ |  _|___|_____|  25.7.0
 |___|_|             

User:   tew@Mathuss-MacBook-Air-357.local
Date:   Wed Nov 26 03:04:02 2025
Arch:   arm64
Pid:    56558
CWD:    /Users/tew/Documents/Project/GitHub/chem-com/step
Python: 3.13.5
gpaw:   /Users/tew/Documents/Project/GitHub/chem-com/.venv/lib/python3.13/site-packages/gpaw
_gpaw:  /Users/tew/Documents/Project/GitHub/chem-com/.venv/lib/python3.13/site-packages/
        _gpaw.cpython-313-darwin.so
ase:    /Users/tew/Documents/Project/GitHub/chem-com/.venv/lib/python3.13/site-packages/ase (version 3.26.0)
numpy:  /Users/tew/Documents/Project/GitHub/chem-com/.venv/lib/python3.13/site-packages/numpy (version 2.3.5)
scipy:  /Users/tew/Documents/Project/GitHub/chem-com/.venv/lib/python3.13/site-packages/scipy (version 1.16.3)
libxc:  2.x.y
units:  Angstrom and eV
cores: 1
OpenMP: False
OMP_NUM_THREADS: 1

Input parameters:
  basis: dzp
  convergence: {density: 0.0001,
                eigenstates: 5e-06}
  kpts: [2 2 1]
  mode: {interpolation: 3,
         name: lcao}
  occupations: {fixmagmom: False,
                name: fermi-dirac,
                width: 0.15}
  xc: PBE

System changes: positions, numbers, cell, pbc, initial_charges, initial_magmoms 

Initialize ...

species:
  Li:
    name: Lithium
    id: 830b4218f175192f93f959cfc0aad614
    Z: 3.0
    valence: 1
    core: 2
    charge: 0.0
    file: /Users/tew/Documents/Project/GitHub/chem-com/.venv/lib/python3.13/site-packages/gpaw_data/setups/Li.PBE.gz
    compensation charges: {type: gauss,
                           rc: 0.33,
                           lmax: 2}
    cutoffs: {filter: 1.91,
              core: 2.55}
    projectors:
      #              energy  rcut
      - 2s(1.00)    -2.874   1.058
      - 2p(0.00)    -1.090   1.058
      -  s          24.337   1.058
  
    # LCAO basis set for Li:
    #   Name: dzp
    #   File: /Users/tew/Documents/Project/GitHub/chem-com/.venv/lib/python3.13/site-packages/gpaw_data/setups/Li.dzp.basis.gz
    #   Number of radial functions: 3
    #   Number of spherical harmonics: 5
    #     l=0, rc=10.8906 Bohr: 2s-sz confined orbital
    #     l=0, rc=6.6719 Bohr: 2s-dz split-valence wave
    #     l=1, rc=10.8906 Bohr: p-type Gaussian polarization
    #   Number of RI-basis functions 0

Reference energy: -35893.444183  # eV

Spin-paired calculation

Convergence criteria:
 Maximum [total energy] change in last 3 cyles: 0.0005 eV / valence electron
 Maximum integral of absolute [dens]ity change: 0.0001 electrons / valence electron
 Maximum integral of absolute [eigenst]ate change: 5e-06 eV^2 / valence electron
 Maximum number of scf [iter]ations: 333
 (Square brackets indicate name in SCF output, whereas a 'c' in
 the SCF output indicates the quantity has converged.)

Symmetries present (total): 1

  ( 1  0  0)
  ( 0  1  0)
  ( 0  0  1)

4 k-points: 2 x 2 x 1 Monkhorst-Pack grid
2 k-points in the irreducible part of the Brillouin zone
       k-points in crystal coordinates                weights
   0:     0.25000000   -0.25000000    0.00000000          2/4
   1:     0.25000000    0.25000000    0.00000000          2/4

Wave functions: LCAO
  Diagonalizer: Serial LAPACK
  Atomic Correction: dense with blas
  Data-type: complex
 

Occupation numbers: Fermi-Dirac:
  width: 0.1500  # eV
 

Eigensolver
   LCAO using direct dense diagonalizer 

Densities:
  Coarse grid: 100*68*160 grid
  Fine grid: 200*136*320 grid
  Total Charge: 0.000000 

Density mixing:
  Method: separate
  Backend: pulay
  Linear mixing parameter: 0.05
  old densities: 5
  Damping of long wavelength oscillations: 50 

Hamiltonian:
  XC and Coulomb potentials evaluated on a 200*136*320 grid
  Using the PBE Exchange-Correlation functional
  Interpolation: tri-quintic (5. degree polynomial)
  Poisson solver: FastPoissonSolver using
    Stencil: 6*3+1=19 point O(h^6) finite-difference Laplacian
    FFT axes: [np.int64(0), np.int64(1)]
    FST axes: [np.int64(2)]
 

XC parameters: PBE with 2 nearest neighbor stencil

Memory estimate:
  Process memory now: 3793.11 MiB
  Calculator: 1570.72 MiB
    Density: 780.53 MiB
      Arrays: 215.09 MiB
      Localized functions: 482.94 MiB
      Mixer: 82.49 MiB
    Hamiltonian: 178.84 MiB
      Arrays: 140.65 MiB
      XC: 0.00 MiB
      Poisson: 0.00 MiB
      vbar: 38.19 MiB
    Wavefunctions: 611.36 MiB
      C [qnM]: 3.00 MiB
      S, T [2 x qmm]: 47.80 MiB
      P [aqMi]: 1.49 MiB
      BasisFunctions: 559.07 MiB
      Eigensolver: 0.00 MiB

Total number of cores used: 1

Number of atoms: 177
Number of atomic orbitals: 885
Number of bands in calculation: 111
Number of valence electrons: 177
Bands to converge: occupied

... initialized

Initializing position-dependent things.

Density initialized from atomic densities
          .------------------------------------------------.  
         /|                                                |  
        / |                                                |  
       /  |                                                |  
      /   |                                                |  
     /    |                                                |  
    /     |                                                |  
   /      |                                                |  
  /       |                                                |  
 *        |                                                |  
 |        |                                                |  
 |        |                                                |  
 |        |                                                |  
 |        |  Li Li           Li                            |  
 |        |          Li                                   Li  
 |        |   Li      Li  Li                               |  
 |     Li Li       Li                          Li          |  
 |        | Li Li       Li Li          Li           Li     |  
 |      Li|      Li Li          Li           Li      Li    |  
 |       Li  Li          Li Li       Li  Li       Li Li    |  
 |    Li Li   Li  Li LLi      Li Li       Li  Li           |  
 |        |Li Li      Li  Li       Li Li        Li Li      |  
 |  Li Li |    Li  Li      Li  Li       Li Li              |  
 |      Li| Li Li       Li Li       Li Li    Li Li  Li     |  
 |  Li  Li|      Li Li       Li LLi      Li  Li            |  
 |       Li  Li       Li Li       Li Li       Li  Li       |  
 |Li Li  Li   Li  Li Li    Li Li Li    Li Li  Li           |  
 |        Li  Li       Li Li       Li Li       Li  Li      |  
 | Li  Li |    Li  Li       Li Li       Li Li              |  
 |      Li| Li Li    Li Li Li    Li Li Li    Li Li  Li     |  
 |  Li  Li|      Li Li       Li Li       Li  Li            |  
 Li      Li  Li       Li Li       Li LLi      Li  Li       |  
 |Li Li   |   Li  Li       Li Li       Li Li               |  
 |        Li           Li          Li          Li          |  
 | Li  Li |    Li  Li       Li  Li      Li  Li             |  
 |        |                                                |  
 |      Li|          Li          Li          Li            |  
 Li       |  Li          Li           Li                   |  
 |        |                                                |  
 |        |                                                |  
 |        .------------------------------------------------.  
 |       /                                                /   
 |      /                                                /    
 |     /                                                /     
 |    /                                                /      
 |   /                                                /       
 |  /                                                /        
 | /                                                /         
 |/                                                /          
 *------------------------------------------------*           

Atomic positions and initial magnetic moments

Positions:
   0 Li     0.000000    0.000000   10.000000    ( 0.0000,  0.0000,  0.0000)
   1 Li     2.467803    1.745000   10.000000    ( 0.0000,  0.0000,  0.0000)
   2 Li     2.467803    0.000000   12.467803    ( 0.0000,  0.0000,  0.0000)
   3 Li     0.000000    1.745000   12.467803    ( 0.0000,  0.0000,  0.0000)
   4 Li     4.935605    0.000000   14.935605    ( 0.0000,  0.0000,  0.0000)
   5 Li     2.467803    1.745000   14.935605    ( 0.0000,  0.0000,  0.0000)
   6 Li     2.468938    0.034203   17.335805    ( 0.0000,  0.0000,  0.0000)
   7 Li     4.934500    1.734577   17.401916    ( 0.0000,  0.0000,  0.0000)
   8 Li     4.904350   -0.039337   19.858331    ( 0.0000,  0.0000,  0.0000)
   9 Li     2.522225    1.712067   19.807822    ( 0.0000,  0.0000,  0.0000)
  10 Li     2.421034   -0.086459   22.138947    ( 0.0000,  0.0000,  0.0000)
  11 Li    -0.122369    1.726493   22.025454    ( 0.0000,  0.0000,  0.0000)
  12 Li     0.000000    3.490000   10.000000    ( 0.0000,  0.0000,  0.0000)
  13 Li     2.467803    5.235000   10.000000    ( 0.0000,  0.0000,  0.0000)
  14 Li     2.467803    3.490000   12.467803    ( 0.0000,  0.0000,  0.0000)
  15 Li     0.000000    5.235000   12.467803    ( 0.0000,  0.0000,  0.0000)
  16 Li     4.935605    3.490000   14.935605    ( 0.0000,  0.0000,  0.0000)
  17 Li     2.467803    5.235000   14.935605    ( 0.0000,  0.0000,  0.0000)
  18 Li     2.473929    3.487160   17.380957    ( 0.0000,  0.0000,  0.0000)
  19 Li     4.936260    5.242946   17.393214    ( 0.0000,  0.0000,  0.0000)
  20 Li     4.874204    3.498761   19.830910    ( 0.0000,  0.0000,  0.0000)
  21 Li     2.523003    5.274815   19.793784    ( 0.0000,  0.0000,  0.0000)
  22 Li     2.403707    3.498500   22.121780    ( 0.0000,  0.0000,  0.0000)
  23 Li    -0.100932    5.287152   22.043287    ( 0.0000,  0.0000,  0.0000)
  24 Li     0.000000    6.980000   10.000000    ( 0.0000,  0.0000,  0.0000)
  25 Li     2.467803    8.725000   10.000000    ( 0.0000,  0.0000,  0.0000)
  26 Li     2.467803    6.980000   12.467803    ( 0.0000,  0.0000,  0.0000)
  27 Li     0.000000    8.725000   12.467803    ( 0.0000,  0.0000,  0.0000)
  28 Li     4.935605    6.980000   14.935605    ( 0.0000,  0.0000,  0.0000)
  29 Li     2.467803    8.725000   14.935605    ( 0.0000,  0.0000,  0.0000)
  30 Li     2.468915    6.934427   17.320514    ( 0.0000,  0.0000,  0.0000)
  31 Li     4.925587    8.705822   17.355547    ( 0.0000,  0.0000,  0.0000)
  32 Li     4.906885    7.015181   19.846723    ( 0.0000,  0.0000,  0.0000)
  33 Li     2.532387    8.671993   19.618897    ( 0.0000,  0.0000,  0.0000)
  34 Li     2.442920    7.061470   22.087865    ( 0.0000,  0.0000,  0.0000)
  35 Li     0.022287    8.801853   22.134334    ( 0.0000,  0.0000,  0.0000)
  36 Li     0.000000   10.470000   10.000000    ( 0.0000,  0.0000,  0.0000)
  37 Li     2.467803   12.215000   10.000000    ( 0.0000,  0.0000,  0.0000)
  38 Li     2.467803   10.470000   12.467803    ( 0.0000,  0.0000,  0.0000)
  39 Li     0.000000   12.215000   12.467803    ( 0.0000,  0.0000,  0.0000)
  40 Li     4.935605   10.470000   14.935605    ( 0.0000,  0.0000,  0.0000)
  41 Li     2.467803   12.215000   14.935605    ( 0.0000,  0.0000,  0.0000)
  42 Li     2.473938   10.484209   17.331118    ( 0.0000,  0.0000,  0.0000)
  43 Li     4.930640   12.236655   17.363287    ( 0.0000,  0.0000,  0.0000)
  44 Li     4.888345   10.465395   19.778107    ( 0.0000,  0.0000,  0.0000)
  45 Li     2.530347   12.261125   19.666229    ( 0.0000,  0.0000,  0.0000)
  46 Li     2.452633   10.466490   21.775322    ( 0.0000,  0.0000,  0.0000)
  47 Li    -0.042693   12.104502   22.096510    ( 0.0000,  0.0000,  0.0000)
  48 Li     4.935605    0.000000   10.000000    ( 0.0000,  0.0000,  0.0000)
  49 Li     7.403408    1.745000   10.000000    ( 0.0000,  0.0000,  0.0000)
  50 Li     7.403408    0.000000   12.467803    ( 0.0000,  0.0000,  0.0000)
  51 Li     4.935605    1.745000   12.467803    ( 0.0000,  0.0000,  0.0000)
  52 Li     9.871211    0.000000   14.935605    ( 0.0000,  0.0000,  0.0000)
  53 Li     7.403408    1.745000   14.935605    ( 0.0000,  0.0000,  0.0000)
  54 Li     7.395999   -0.001574   17.318437    ( 0.0000,  0.0000,  0.0000)
  55 Li     9.868290    1.744304   17.367926    ( 0.0000,  0.0000,  0.0000)
  56 Li     9.717381    0.001518   19.767574    ( 0.0000,  0.0000,  0.0000)
  57 Li     7.248729    1.742863   19.677521    ( 0.0000,  0.0000,  0.0000)
  58 Li     7.476803   -0.037990   22.011474    ( 0.0000,  0.0000,  0.0000)
  59 Li     4.962752    1.744801   22.156686    ( 0.0000,  0.0000,  0.0000)
  60 Li     4.935605    3.490000   10.000000    ( 0.0000,  0.0000,  0.0000)
  61 Li     7.403408    5.235000   10.000000    ( 0.0000,  0.0000,  0.0000)
  62 Li     7.403408    3.490000   12.467803    ( 0.0000,  0.0000,  0.0000)
  63 Li     4.935605    5.235000   12.467803    ( 0.0000,  0.0000,  0.0000)
  64 Li     9.871211    3.490000   14.935605    ( 0.0000,  0.0000,  0.0000)
  65 Li     7.403408    5.235000   14.935605    ( 0.0000,  0.0000,  0.0000)
  66 Li     7.386484    3.490883   17.320184    ( 0.0000,  0.0000,  0.0000)
  67 Li     9.867588    5.238726   17.372460    ( 0.0000,  0.0000,  0.0000)
  68 Li     9.724943    3.488525   19.753004    ( 0.0000,  0.0000,  0.0000)
  69 Li     7.251711    5.241079   19.675301    ( 0.0000,  0.0000,  0.0000)
  70 Li     7.510101    3.498986   22.004283    ( 0.0000,  0.0000,  0.0000)
  71 Li     4.951796    5.247715   22.176864    ( 0.0000,  0.0000,  0.0000)
  72 Li     4.935605    6.980000   10.000000    ( 0.0000,  0.0000,  0.0000)
  73 Li     7.403408    8.725000   10.000000    ( 0.0000,  0.0000,  0.0000)
  74 Li     7.403408    6.980000   12.467803    ( 0.0000,  0.0000,  0.0000)
  75 Li     4.935605    8.725000   12.467803    ( 0.0000,  0.0000,  0.0000)
  76 Li     9.871211    6.980000   14.935605    ( 0.0000,  0.0000,  0.0000)
  77 Li     7.403408    8.725000   14.935605    ( 0.0000,  0.0000,  0.0000)
  78 Li     7.391943    6.980485   17.314566    ( 0.0000,  0.0000,  0.0000)
  79 Li     9.866893    8.726685   17.376233    ( 0.0000,  0.0000,  0.0000)
  80 Li     9.711209    6.982366   19.779378    ( 0.0000,  0.0000,  0.0000)
  81 Li     7.252610    8.741050   19.657169    ( 0.0000,  0.0000,  0.0000)
  82 Li     7.456184    7.026053   22.013865    ( 0.0000,  0.0000,  0.0000)
  83 Li     4.897866    8.791045   22.241975    ( 0.0000,  0.0000,  0.0000)
  84 Li     4.935605   10.470000   10.000000    ( 0.0000,  0.0000,  0.0000)
  85 Li     7.403408   12.215000   10.000000    ( 0.0000,  0.0000,  0.0000)
  86 Li     7.403408   10.470000   12.467803    ( 0.0000,  0.0000,  0.0000)
  87 Li     4.935605   12.215000   12.467803    ( 0.0000,  0.0000,  0.0000)
  88 Li     9.871211   10.470000   14.935605    ( 0.0000,  0.0000,  0.0000)
  89 Li     7.403408   12.215000   14.935605    ( 0.0000,  0.0000,  0.0000)
  90 Li     7.378894   10.470206   17.307736    ( 0.0000,  0.0000,  0.0000)
  91 Li     9.867899   12.210285   17.374873    ( 0.0000,  0.0000,  0.0000)
  92 Li     9.718569   10.467591   19.776910    ( 0.0000,  0.0000,  0.0000)
  93 Li     7.256717   12.195008   19.664300    ( 0.0000,  0.0000,  0.0000)
  94 Li     7.483103   10.452951   22.013947    ( 0.0000,  0.0000,  0.0000)
  95 Li     4.921696   12.136439   22.226584    ( 0.0000,  0.0000,  0.0000)
  96 Li     9.871211    0.000000   10.000000    ( 0.0000,  0.0000,  0.0000)
  97 Li    12.339013    1.745000   10.000000    ( 0.0000,  0.0000,  0.0000)
  98 Li    12.339013    0.000000   12.467803    ( 0.0000,  0.0000,  0.0000)
  99 Li     9.871211    1.745000   12.467803    ( 0.0000,  0.0000,  0.0000)
 100 Li    14.806816    0.000000   14.935605    ( 0.0000,  0.0000,  0.0000)
 101 Li    12.339013    1.745000   14.935605    ( 0.0000,  0.0000,  0.0000)
 102 Li    12.337845   -0.000237   17.331563    ( 0.0000,  0.0000,  0.0000)
 103 Li    14.806912    1.745935   17.328962    ( 0.0000,  0.0000,  0.0000)
 104 Li    14.863799   -0.001148   19.669999    ( 0.0000,  0.0000,  0.0000)
 105 Li    12.282263    1.744095   19.670930    ( 0.0000,  0.0000,  0.0000)
 106 Li     9.871211    3.490000   10.000000    ( 0.0000,  0.0000,  0.0000)
 107 Li    12.339013    5.235000   10.000000    ( 0.0000,  0.0000,  0.0000)
 108 Li    12.339013    3.490000   12.467803    ( 0.0000,  0.0000,  0.0000)
 109 Li     9.871211    5.235000   12.467803    ( 0.0000,  0.0000,  0.0000)
 110 Li    14.806816    3.490000   14.935605    ( 0.0000,  0.0000,  0.0000)
 111 Li    12.339013    5.235000   14.935605    ( 0.0000,  0.0000,  0.0000)
 112 Li    12.337419    3.490398   17.331315    ( 0.0000,  0.0000,  0.0000)
 113 Li    14.808115    5.235002   17.329039    ( 0.0000,  0.0000,  0.0000)
 114 Li    14.859625    3.490354   19.669546    ( 0.0000,  0.0000,  0.0000)
 115 Li    12.281595    5.238497   19.671022    ( 0.0000,  0.0000,  0.0000)
 116 Li     9.871211    6.980000   10.000000    ( 0.0000,  0.0000,  0.0000)
 117 Li    12.339013    8.725000   10.000000    ( 0.0000,  0.0000,  0.0000)
 118 Li    12.339013    6.980000   12.467803    ( 0.0000,  0.0000,  0.0000)
 119 Li     9.871211    8.725000   12.467803    ( 0.0000,  0.0000,  0.0000)
 120 Li    14.806816    6.980000   14.935605    ( 0.0000,  0.0000,  0.0000)
 121 Li    12.339013    8.725000   14.935605    ( 0.0000,  0.0000,  0.0000)
 122 Li    12.338902    6.980272   17.330845    ( 0.0000,  0.0000,  0.0000)
 123 Li    14.801910    8.726016   17.324884    ( 0.0000,  0.0000,  0.0000)
 124 Li    14.871920    6.984334   19.669840    ( 0.0000,  0.0000,  0.0000)
 125 Li    12.281753    8.724876   19.670742    ( 0.0000,  0.0000,  0.0000)
 126 Li     9.871211   10.470000   10.000000    ( 0.0000,  0.0000,  0.0000)
 127 Li    12.339013   12.215000   10.000000    ( 0.0000,  0.0000,  0.0000)
 128 Li    12.339013   10.470000   12.467803    ( 0.0000,  0.0000,  0.0000)
 129 Li     9.871211   12.215000   12.467803    ( 0.0000,  0.0000,  0.0000)
 130 Li    14.806816   10.470000   14.935605    ( 0.0000,  0.0000,  0.0000)
 131 Li    12.339013   12.215000   14.935605    ( 0.0000,  0.0000,  0.0000)
 132 Li    12.339839   10.469566   17.330355    ( 0.0000,  0.0000,  0.0000)
 133 Li    14.805452   12.213048   17.327742    ( 0.0000,  0.0000,  0.0000)
 134 Li    14.870885   10.466461   19.668079    ( 0.0000,  0.0000,  0.0000)
 135 Li    12.281333   12.212532   19.671294    ( 0.0000,  0.0000,  0.0000)
 136 Li    14.806816    0.000000   10.000000    ( 0.0000,  0.0000,  0.0000)
 137 Li    17.274619    1.745000   10.000000    ( 0.0000,  0.0000,  0.0000)
 138 Li    17.274619    0.000000   12.467803    ( 0.0000,  0.0000,  0.0000)
 139 Li    14.806816    1.745000   12.467803    ( 0.0000,  0.0000,  0.0000)
 140 Li    19.742421    0.000000   14.935605    ( 0.0000,  0.0000,  0.0000)
 141 Li    17.274619    1.745000   14.935605    ( 0.0000,  0.0000,  0.0000)
 142 Li    17.271735   -0.010257   17.380062    ( 0.0000,  0.0000,  0.0000)
 143 Li    19.747189    1.739860   17.341524    ( 0.0000,  0.0000,  0.0000)
 144 Li    19.887239   -0.037330   19.710990    ( 0.0000,  0.0000,  0.0000)
 145 Li    17.421578    1.751512   19.752850    ( 0.0000,  0.0000,  0.0000)
 146 Li    14.806816    3.490000   10.000000    ( 0.0000,  0.0000,  0.0000)
 147 Li    17.274619    5.235000   10.000000    ( 0.0000,  0.0000,  0.0000)
 148 Li    17.274619    3.490000   12.467803    ( 0.0000,  0.0000,  0.0000)
 149 Li    14.806816    5.235000   12.467803    ( 0.0000,  0.0000,  0.0000)
 150 Li    19.742421    3.490000   14.935605    ( 0.0000,  0.0000,  0.0000)
 151 Li    17.274619    5.235000   14.935605    ( 0.0000,  0.0000,  0.0000)
 152 Li    17.275870    3.492202   17.366203    ( 0.0000,  0.0000,  0.0000)
 153 Li    19.745864    5.236715   17.331889    ( 0.0000,  0.0000,  0.0000)
 154 Li    19.902501    3.497583   19.702202    ( 0.0000,  0.0000,  0.0000)
 155 Li    17.425203    5.222701   19.766713    ( 0.0000,  0.0000,  0.0000)
 156 Li    14.806816    6.980000   10.000000    ( 0.0000,  0.0000,  0.0000)
 157 Li    17.274619    8.725000   10.000000    ( 0.0000,  0.0000,  0.0000)
 158 Li    17.274619    6.980000   12.467803    ( 0.0000,  0.0000,  0.0000)
 159 Li    14.806816    8.725000   12.467803    ( 0.0000,  0.0000,  0.0000)
 160 Li    19.742421    6.980000   14.935605    ( 0.0000,  0.0000,  0.0000)
 161 Li    17.274619    8.725000   14.935605    ( 0.0000,  0.0000,  0.0000)
 162 Li    17.277386    6.997303   17.396330    ( 0.0000,  0.0000,  0.0000)
 163 Li    19.770445    8.707495   17.299264    ( 0.0000,  0.0000,  0.0000)
 164 Li    19.888138    7.013048   19.696330    ( 0.0000,  0.0000,  0.0000)
 165 Li    17.454979    8.733339   19.857775    ( 0.0000,  0.0000,  0.0000)
 166 Li    14.806816   10.470000   10.000000    ( 0.0000,  0.0000,  0.0000)
 167 Li    17.274619   12.215000   10.000000    ( 0.0000,  0.0000,  0.0000)
 168 Li    17.274619   10.470000   12.467803    ( 0.0000,  0.0000,  0.0000)
 169 Li    14.806816   12.215000   12.467803    ( 0.0000,  0.0000,  0.0000)
 170 Li    19.742421   10.470000   14.935605    ( 0.0000,  0.0000,  0.0000)
 171 Li    17.274619   12.215000   14.935605    ( 0.0000,  0.0000,  0.0000)
 172 Li    17.290016   10.460752   17.401115    ( 0.0000,  0.0000,  0.0000)
 173 Li    19.760310   12.235930   17.304084    ( 0.0000,  0.0000,  0.0000)
 174 Li    19.894091   10.466700   19.634494    ( 0.0000,  0.0000,  0.0000)
 175 Li    17.436593   12.212448   19.812537    ( 0.0000,  0.0000,  0.0000)
 176 Li     2.467759    9.597500   24.213374    ( 0.0000,  0.0000,  0.0000)

Unit cell:
           periodic     x           y           z      points  spacing
  1. axis:    yes   19.742421    0.000000    0.000000   100     0.1974
  2. axis:    yes    0.000000   13.960000    0.000000    68     0.2053
  3. axis:    no     0.000000    0.000000   32.339013   160     0.2021

  Lengths:  19.742421  13.960000  32.339013
  Angles:   90.000000  90.000000  90.000000

Effective grid spacing dv^(1/3) = 0.2016

     iter     time        total  log10-change:
                         energy   eigst   dens
iter:   1 04:12:58  -329.067873        c
iter:   2 04:13:46  -318.073783        c -0.66
iter:   3 04:14:31  -315.619219        c -0.85
iter:   4 04:15:17  -314.652686        c -0.92
iter:   5 04:16:02  -311.951548        c -0.97
iter:   6 04:16:46  -311.178010        c -1.18
iter:   7 04:17:36  -310.870442        c -1.30
iter:   8 04:18:23  -310.646569        c -1.41
iter:   9 04:19:08  -310.563705        c -1.58
iter:  10 04:20:02  -310.525881        c -1.70
iter:  11 04:20:56  -310.500070c       c -1.81
iter:  12 04:21:45  -310.489940c       c -1.90
iter:  13 04:22:33  -310.475601c       c -1.96
iter:  14 04:23:24  -310.472209c       c -2.11
iter:  15 04:24:11  -310.469555c       c -2.19
iter:  16 04:24:57  -310.468919c       c -2.27
iter:  17 04:25:44  -310.468138c       c -2.34
iter:  18 04:26:31  -310.466504c       c -2.39
iter:  19 04:27:16  -310.466169c       c -2.49
iter:  20 04:28:03  -310.465294c       c -2.55
iter:  21 04:28:50  -310.465101c       c -2.63
iter:  22 04:29:37  -310.464771c       c -2.72
iter:  23 04:30:25  -310.464597c       c -2.80
iter:  24 04:31:10  -310.464632c       c -2.86
iter:  25 04:31:54  -310.464351c       c -2.95
iter:  26 04:32:40  -310.464358c       c -3.04
iter:  27 04:33:26  -310.464227c       c -3.12
iter:  28 04:34:16  -310.464276c       c -3.26
iter:  29 04:35:03  -310.464282c       c -3.35
iter:  30 04:35:48  -310.464259c       c -3.40
iter:  31 04:36:33  -310.464320c       c -3.46
iter:  32 04:37:16  -310.464298c       c -3.53
iter:  33 04:38:05  -310.464310c       c -3.59
iter:  34 04:38:49  -310.464281c       c -3.65
iter:  35 04:39:37  -310.464272c       c -3.71
iter:  36 04:40:25  -310.464274c       c -3.79
iter:  37 04:41:12  -310.464243c       c -3.86
iter:  38 04:41:57  -310.464253c       c -3.91
iter:  39 04:42:41  -310.464245c       c -4.06c

Converged after 39 iterations.

Dipole moment: (-39.635623, -16.323336, 0.755265) |e|*Ang

Energy contributions relative to reference atoms: (reference = -35893.444183)

Kinetic:       +329.067572
Potential:     -279.903544
External:        +0.000000
XC:            -354.522519
Entropy (-ST):   -5.746190
Local:           -2.232659
SIC:             +0.000000
--------------------------
Free energy:   -313.337341
Extrapolated:  -310.464245

Showing all kpts
 Kpt  Band  Eigenvalues  Occupancy
  0    86     -2.88970    1.13808
  0    87     -2.87383    1.08586
  0    88     -2.84375    0.98580
  0    89     -2.83441    0.95470

  1    86     -2.88968    1.13800
  1    87     -2.87375    1.08560
  1    88     -2.84503    0.99006
  1    89     -2.83266    0.94886


Fermi level: -2.84801

Gap: 0.029 eV
Transition (v -> c):
  (s=0, k=1, n=87, [0.25, 0.25, 0.00]) -> (s=0, k=1, n=88, [0.25, 0.25, 0.00])
No difference between direct/indirect transitions

Forces in eV/Ang:
  0 Li   -0.00101   -0.00150    0.12746
  1 Li   -0.00434   -0.00112    0.12509
  2 Li    0.00117   -0.00033   -0.05822
  3 Li   -0.00086    0.00081   -0.06080
  4 Li   -0.00237    0.01362   -0.05464
  5 Li    0.00330    0.01547   -0.06648
  6 Li   -0.00260   -0.00092   -0.00597
  7 Li   -0.00140   -0.00012   -0.00511
  8 Li    0.01071    0.00581    0.00143
  9 Li   -0.01655    0.00667    0.01155
 10 Li    0.00687    0.02290   -0.03800
 11 Li    0.00873   -0.00661   -0.01613
 12 Li   -0.00073    0.00094    0.12645
 13 Li   -0.00387    0.00154    0.12590
 14 Li    0.00113   -0.00061   -0.06436
 15 Li   -0.00061   -0.00032   -0.05770
 16 Li   -0.00717   -0.00167   -0.02389
 17 Li    0.00364   -0.02547   -0.07668
 18 Li   -0.00449    0.00389    0.00114
 19 Li   -0.00248   -0.00071   -0.00537
 20 Li    0.01583    0.00020    0.00312
 21 Li   -0.01727   -0.01712    0.00575
 22 Li    0.00875   -0.00270   -0.03783
 23 Li    0.00417   -0.00284   -0.02156
 24 Li   -0.00136    0.00052    0.12591
 25 Li   -0.00350   -0.00027    0.12271
 26 Li    0.00128    0.00121   -0.05424
 27 Li   -0.00004    0.00008   -0.05239
 28 Li   -0.00142   -0.01472   -0.05913
 29 Li    0.00527   -0.00571   -0.04459
 30 Li   -0.00206   -0.00442   -0.00796
 31 Li    0.01192    0.00385   -0.00230
 32 Li    0.02046   -0.01196   -0.00847
 33 Li   -0.01590    0.00349   -0.01668
 34 Li    0.00313    0.07007    0.06027
 35 Li    0.02361    0.00177   -0.02017
 36 Li   -0.00157    0.00008    0.12470
 37 Li   -0.00378   -0.00009    0.12415
 38 Li    0.00105   -0.00049   -0.05474
 39 Li   -0.00022   -0.00041   -0.05338
 40 Li   -0.00189    0.00340   -0.04675
 41 Li    0.00504    0.01500   -0.05858
 42 Li   -0.00143   -0.00008    0.00971
 43 Li    0.00738   -0.00197   -0.00614
 44 Li    0.01801    0.00439   -0.01135
 45 Li   -0.01569    0.01329   -0.02234
 46 Li   -0.00933    0.07149   -0.19867
 47 Li    0.01626   -0.02134   -0.00523
 48 Li    0.00307   -0.00214    0.12834
 49 Li    0.00192   -0.00111    0.12649
 50 Li    0.00024    0.00016   -0.05844
 51 Li   -0.00051    0.00093   -0.06434
 52 Li    0.00475   -0.00222   -0.03569
 53 Li    0.00131   -0.00144   -0.07023
 54 Li   -0.00222   -0.00019    0.00970
 55 Li   -0.00022   -0.00130   -0.00476
 56 Li    0.00454   -0.00098   -0.00937
 57 Li    0.01304    0.00064    0.00103
 58 Li   -0.00538    0.00259   -0.01790
 59 Li   -0.01153   -0.00306   -0.02500
 60 Li    0.00280    0.00130    0.12720
 61 Li    0.00056    0.00144    0.12573
 62 Li   -0.00032   -0.00021   -0.05632
 63 Li   -0.00104   -0.00090   -0.06332
 64 Li    0.00298    0.00148   -0.03490
 65 Li    0.00213    0.00009   -0.07275
 66 Li    0.00204   -0.00134    0.00824
 67 Li   -0.00037    0.00165   -0.00613
 68 Li    0.00200    0.00017   -0.00708
 69 Li    0.01171   -0.00151    0.00146
 70 Li   -0.00907   -0.00196   -0.01110
 71 Li   -0.00549   -0.00434   -0.03148
 72 Li    0.00325    0.00112    0.12685
 73 Li   -0.00080    0.00002    0.12511
 74 Li    0.00035    0.00025   -0.05803
 75 Li   -0.00194   -0.00007   -0.05752
 76 Li    0.00418    0.00174   -0.03490
 77 Li    0.00548   -0.00266   -0.08108
 78 Li   -0.00003    0.00094    0.00952
 79 Li   -0.00057    0.00077   -0.00623
 80 Li    0.00860   -0.00027   -0.01214
 81 Li    0.01810   -0.00740    0.00335
 82 Li   -0.00008   -0.00555   -0.01980
 83 Li   -0.02322    0.00039   -0.03782
 84 Li    0.00357   -0.00025    0.12509
 85 Li   -0.00023   -0.00046    0.12484
 86 Li    0.00065   -0.00041   -0.05632
 87 Li   -0.00160    0.00036   -0.05892
 88 Li    0.00282   -0.00088   -0.03426
 89 Li    0.00373    0.00357   -0.07964
 90 Li   -0.00008   -0.00018    0.00346
 91 Li   -0.00019   -0.00111   -0.00634
 92 Li    0.01040    0.00124   -0.01231
 93 Li    0.02162    0.00677    0.00078
 94 Li    0.00553    0.00316   -0.01410
 95 Li   -0.02080   -0.02699   -0.01209
 96 Li   -0.00000    0.00002    0.12365
 97 Li    0.00065    0.00059    0.12319
 98 Li   -0.00011    0.00040   -0.05968
 99 Li    0.00135    0.00012   -0.05799
100 Li   -0.00421    0.00058   -0.05553
101 Li    0.00421   -0.00001   -0.05535
102 Li   -0.00228   -0.00086    0.02674
103 Li    0.00355   -0.00144    0.02786
104 Li   -0.00491   -0.00114   -0.01284
105 Li    0.00578   -0.00076   -0.01188
106 Li    0.00115   -0.00015    0.12469
107 Li    0.00020   -0.00064    0.12381
108 Li   -0.00028    0.00003   -0.05948
109 Li    0.00164   -0.00027   -0.05815
110 Li   -0.00480   -0.00024   -0.05776
111 Li    0.00418   -0.00003   -0.05493
112 Li   -0.00256    0.00066    0.02722
113 Li    0.00364    0.00297    0.02810
114 Li   -0.00704    0.00017   -0.01337
115 Li    0.00703    0.00117   -0.01137
116 Li   -0.00027    0.00018    0.12338
117 Li   -0.00009   -0.00008    0.12446
118 Li   -0.00002   -0.00049   -0.05986
119 Li    0.00181    0.00017   -0.05931
120 Li   -0.00309   -0.00035   -0.05510
121 Li    0.00327    0.00007   -0.05491
122 Li   -0.00286   -0.00008    0.02615
123 Li    0.00282    0.00182    0.02858
124 Li   -0.00694    0.00065   -0.01215
125 Li    0.00823   -0.00063   -0.01129
126 Li   -0.00055   -0.00000    0.12365
127 Li    0.00009    0.00028    0.12421
128 Li    0.00024    0.00021   -0.05921
129 Li    0.00183    0.00015   -0.05908
130 Li   -0.00089   -0.00012   -0.05510
131 Li    0.00371    0.00010   -0.05468
132 Li   -0.00373    0.00012    0.02750
133 Li    0.00335   -0.00322    0.02785
134 Li   -0.00839    0.00037   -0.01165
135 Li    0.00825    0.00018   -0.01142
136 Li   -0.00106    0.00017    0.12441
137 Li    0.00073   -0.00092    0.12317
138 Li   -0.00133    0.00012   -0.05839
139 Li    0.00006   -0.00011   -0.06044
140 Li   -0.00454    0.01655   -0.08510
141 Li   -0.00261   -0.00613   -0.02835
142 Li    0.00300   -0.00469   -0.00109
143 Li    0.00432    0.00046    0.00481
144 Li   -0.01161    0.00517    0.00349
145 Li   -0.00035   -0.00213   -0.00651
146 Li   -0.00196   -0.00032    0.12545
147 Li    0.00175    0.00148    0.12257
148 Li   -0.00078   -0.00013   -0.05566
149 Li    0.00030   -0.00010   -0.06020
150 Li    0.00111   -0.00336   -0.05852
151 Li   -0.00344    0.01064   -0.02531
152 Li   -0.00347   -0.00048   -0.00314
153 Li    0.00473   -0.00152    0.00404
154 Li   -0.00724    0.00160   -0.00083
155 Li   -0.00077    0.00334   -0.00622
156 Li    0.00024    0.00029    0.12426
157 Li    0.00208    0.00006    0.12146
158 Li   -0.00172   -0.00016   -0.05891
159 Li   -0.00007    0.00028   -0.06078
160 Li   -0.00617   -0.01547   -0.08449
161 Li   -0.00705    0.00132   -0.02997
162 Li    0.00124    0.00375   -0.00412
163 Li   -0.00810    0.00468    0.00511
164 Li   -0.01776   -0.01078   -0.00908
165 Li   -0.01810   -0.00365   -0.02307
166 Li    0.00061   -0.00030    0.12449
167 Li    0.00253   -0.00072    0.12186
168 Li   -0.00133   -0.00017   -0.05796
169 Li   -0.00008   -0.00016   -0.06040
170 Li   -0.00548    0.00276   -0.06946
171 Li   -0.00590   -0.00633   -0.02820
172 Li   -0.00198    0.00068   -0.00636
173 Li   -0.00542   -0.00298    0.00157
174 Li   -0.00492    0.00137   -0.00833
175 Li   -0.01474    0.00355   -0.01542
176 Li   -0.00711   -0.09518    0.11117

System changes: positions 

Initializing position-dependent things.

Density initialized from wave functions
          .------------------------------------------------.  
         /|                                                |  
        / |                                                |  
       /  |                                                |  
      /   |                                                |  
     /    |                                                |  
    /     |                                                |  
   /      |                                                |  
  /       |                                                |  
 *        |                                                |  
 |        |                                                |  
 |        |                                                |  
 |        |                                                |  
 |        |  Li Li           Li                            |  
 |        |          Li                                   Li  
 |        |   Li      Li  Li                               |  
 |     Li Li       Li                          Li          |  
 |        | Li Li       Li Li          Li           Li     |  
 |      Li|      Li Li          Li           Li      Li    |  
 |       Li  Li          Li Li       Li  Li       Li Li    |  
 |    Li Li   Li  Li LLi      Li Li       Li  Li           |  
 |        |Li Li      Li  Li       Li Li        Li Li      |  
 |  Li Li |    Li  Li      Li  Li       Li Li              |  
 |      Li| Li Li       Li Li       Li Li    Li Li  Li     |  
 |  Li  Li|      Li Li       Li LLi      Li  Li            |  
 |       Li  Li       Li Li       Li Li       Li  Li       |  
 |Li Li  Li   Li  Li Li    Li Li Li    Li Li  Li           |  
 |        Li  Li       Li Li       Li Li       Li  Li      |  
 | Li  Li |    Li  Li       Li Li       Li Li              |  
 |      Li| Li Li    Li Li Li    Li Li Li    Li Li  Li     |  
 |  Li  Li|      Li Li       Li Li       Li  Li            |  
 Li      Li  Li       Li Li       Li LLi      Li  Li       |  
 |Li Li   |   Li  Li       Li Li       Li Li               |  
 |        Li           Li          Li          Li          |  
 | Li  Li |    Li  Li       Li  Li      Li  Li             |  
 |        |                                                |  
 |      Li|          Li          Li          Li            |  
 Li       |  Li          Li           Li                   |  
 |        |                                                |  
 |        |                                                |  
 |        .------------------------------------------------.  
 |       /                                                /   
 |      /                                                /    
 |     /                                                /     
 |    /                                                /      
 |   /                                                /       
 |  /                                                /        
 | /                                                /         
 |/                                                /          
 *------------------------------------------------*           

Atomic positions and initial magnetic moments

Positions:
   0 Li     0.000000    0.000000   10.000000    ( 0.0000,  0.0000,  0.0000)
   1 Li     2.467803    1.745000   10.000000    ( 0.0000,  0.0000,  0.0000)
   2 Li     2.467803    0.000000   12.467803    ( 0.0000,  0.0000,  0.0000)
   3 Li     0.000000    1.745000   12.467803    ( 0.0000,  0.0000,  0.0000)
   4 Li     4.935605    0.000000   14.935605    ( 0.0000,  0.0000,  0.0000)
   5 Li     2.467803    1.745000   14.935605    ( 0.0000,  0.0000,  0.0000)
   6 Li     2.468910    0.034208   17.335739    ( 0.0000,  0.0000,  0.0000)
   7 Li     4.934488    1.734571   17.401876    ( 0.0000,  0.0000,  0.0000)
   8 Li     4.904464   -0.039290   19.858366    ( 0.0000,  0.0000,  0.0000)
   9 Li     2.522060    1.712117   19.807957    ( 0.0000,  0.0000,  0.0000)
  10 Li     2.421109   -0.086265   22.138592    ( 0.0000,  0.0000,  0.0000)
  11 Li    -0.122276    1.726418   22.025306    ( 0.0000,  0.0000,  0.0000)
  12 Li     0.000000    3.490000   10.000000    ( 0.0000,  0.0000,  0.0000)
  13 Li     2.467803    5.235000   10.000000    ( 0.0000,  0.0000,  0.0000)
  14 Li     2.467803    3.490000   12.467803    ( 0.0000,  0.0000,  0.0000)
  15 Li     0.000000    5.235000   12.467803    ( 0.0000,  0.0000,  0.0000)
  16 Li     4.935605    3.490000   14.935605    ( 0.0000,  0.0000,  0.0000)
  17 Li     2.467803    5.235000   14.935605    ( 0.0000,  0.0000,  0.0000)
  18 Li     2.473885    3.487200   17.380986    ( 0.0000,  0.0000,  0.0000)
  19 Li     4.936236    5.242945   17.393175    ( 0.0000,  0.0000,  0.0000)
  20 Li     4.874354    3.498759   19.830948    ( 0.0000,  0.0000,  0.0000)
  21 Li     2.522830    5.274657   19.793868    ( 0.0000,  0.0000,  0.0000)
  22 Li     2.403792    3.498468   22.121417    ( 0.0000,  0.0000,  0.0000)
  23 Li    -0.100896    5.287116   22.043075    ( 0.0000,  0.0000,  0.0000)
  24 Li     0.000000    6.980000   10.000000    ( 0.0000,  0.0000,  0.0000)
  25 Li     2.467803    8.725000   10.000000    ( 0.0000,  0.0000,  0.0000)
  26 Li     2.467803    6.980000   12.467803    ( 0.0000,  0.0000,  0.0000)
  27 Li     0.000000    8.725000   12.467803    ( 0.0000,  0.0000,  0.0000)
  28 Li     4.935605    6.980000   14.935605    ( 0.0000,  0.0000,  0.0000)
  29 Li     2.467803    8.725000   14.935605    ( 0.0000,  0.0000,  0.0000)
  30 Li     2.468893    6.934374   17.320436    ( 0.0000,  0.0000,  0.0000)
  31 Li     4.925707    8.705851   17.355527    ( 0.0000,  0.0000,  0.0000)
  32 Li     4.907095    7.015074   19.846665    ( 0.0000,  0.0000,  0.0000)
  33 Li     2.532230    8.672001   19.618716    ( 0.0000,  0.0000,  0.0000)
  34 Li     2.442946    7.062208   22.088518    ( 0.0000,  0.0000,  0.0000)
  35 Li     0.022515    8.801909   22.134144    ( 0.0000,  0.0000,  0.0000)
  36 Li     0.000000   10.470000   10.000000    ( 0.0000,  0.0000,  0.0000)
  37 Li     2.467803   12.215000   10.000000    ( 0.0000,  0.0000,  0.0000)
  38 Li     2.467803   10.470000   12.467803    ( 0.0000,  0.0000,  0.0000)
  39 Li     0.000000   12.215000   12.467803    ( 0.0000,  0.0000,  0.0000)
  40 Li     4.935605   10.470000   14.935605    ( 0.0000,  0.0000,  0.0000)
  41 Li     2.467803   12.215000   14.935605    ( 0.0000,  0.0000,  0.0000)
  42 Li     2.473924   10.484202   17.331222    ( 0.0000,  0.0000,  0.0000)
  43 Li     4.930711   12.236644   17.363225    ( 0.0000,  0.0000,  0.0000)
  44 Li     4.888522   10.465441   19.777986    ( 0.0000,  0.0000,  0.0000)
  45 Li     2.530194   12.261288   19.665968    ( 0.0000,  0.0000,  0.0000)
  46 Li     2.452540   10.467206   21.773228    ( 0.0000,  0.0000,  0.0000)
  47 Li    -0.042506   12.104267   22.096488    ( 0.0000,  0.0000,  0.0000)
  48 Li     4.935605    0.000000   10.000000    ( 0.0000,  0.0000,  0.0000)
  49 Li     7.403408    1.745000   10.000000    ( 0.0000,  0.0000,  0.0000)
  50 Li     7.403408    0.000000   12.467803    ( 0.0000,  0.0000,  0.0000)
  51 Li     4.935605    1.745000   12.467803    ( 0.0000,  0.0000,  0.0000)
  52 Li     9.871211    0.000000   14.935605    ( 0.0000,  0.0000,  0.0000)
  53 Li     7.403408    1.745000   14.935605    ( 0.0000,  0.0000,  0.0000)
  54 Li     7.395979   -0.001576   17.318538    ( 0.0000,  0.0000,  0.0000)
  55 Li     9.868288    1.744290   17.367885    ( 0.0000,  0.0000,  0.0000)
  56 Li     9.717422    0.001507   19.767494    ( 0.0000,  0.0000,  0.0000)
  57 Li     7.248856    1.742869   19.677539    ( 0.0000,  0.0000,  0.0000)
  58 Li     7.476736   -0.037974   22.011304    ( 0.0000,  0.0000,  0.0000)
  59 Li     4.962633    1.744770   22.156448    ( 0.0000,  0.0000,  0.0000)
  60 Li     4.935605    3.490000   10.000000    ( 0.0000,  0.0000,  0.0000)
  61 Li     7.403408    5.235000   10.000000    ( 0.0000,  0.0000,  0.0000)
  62 Li     7.403408    3.490000   12.467803    ( 0.0000,  0.0000,  0.0000)
  63 Li     4.935605    5.235000   12.467803    ( 0.0000,  0.0000,  0.0000)
  64 Li     9.871211    3.490000   14.935605    ( 0.0000,  0.0000,  0.0000)
  65 Li     7.403408    5.235000   14.935605    ( 0.0000,  0.0000,  0.0000)
  66 Li     7.386502    3.490869   17.320271    ( 0.0000,  0.0000,  0.0000)
  67 Li     9.867584    5.238742   17.372404    ( 0.0000,  0.0000,  0.0000)
  68 Li     9.724961    3.488528   19.752940    ( 0.0000,  0.0000,  0.0000)
  69 Li     7.251824    5.241063   19.675325    ( 0.0000,  0.0000,  0.0000)
  70 Li     7.510014    3.498962   22.004177    ( 0.0000,  0.0000,  0.0000)
  71 Li     4.951743    5.247666   22.176550    ( 0.0000,  0.0000,  0.0000)
  72 Li     4.935605    6.980000   10.000000    ( 0.0000,  0.0000,  0.0000)
  73 Li     7.403408    8.725000   10.000000    ( 0.0000,  0.0000,  0.0000)
  74 Li     7.403408    6.980000   12.467803    ( 0.0000,  0.0000,  0.0000)
  75 Li     4.935605    8.725000   12.467803    ( 0.0000,  0.0000,  0.0000)
  76 Li     9.871211    6.980000   14.935605    ( 0.0000,  0.0000,  0.0000)
  77 Li     7.403408    8.725000   14.935605    ( 0.0000,  0.0000,  0.0000)
  78 Li     7.391947    6.980495   17.314667    ( 0.0000,  0.0000,  0.0000)
  79 Li     9.866888    8.726694   17.376176    ( 0.0000,  0.0000,  0.0000)
  80 Li     9.711293    6.982362   19.779265    ( 0.0000,  0.0000,  0.0000)
  81 Li     7.252791    8.740984   19.657209    ( 0.0000,  0.0000,  0.0000)
  82 Li     7.456180    7.026004   22.013675    ( 0.0000,  0.0000,  0.0000)
  83 Li     4.897633    8.791082   22.241615    ( 0.0000,  0.0000,  0.0000)
  84 Li     4.935605   10.470000   10.000000    ( 0.0000,  0.0000,  0.0000)
  85 Li     7.403408   12.215000   10.000000    ( 0.0000,  0.0000,  0.0000)
  86 Li     7.403408   10.470000   12.467803    ( 0.0000,  0.0000,  0.0000)
  87 Li     4.935605   12.215000   12.467803    ( 0.0000,  0.0000,  0.0000)
  88 Li     9.871211   10.470000   14.935605    ( 0.0000,  0.0000,  0.0000)
  89 Li     7.403408   12.215000   14.935605    ( 0.0000,  0.0000,  0.0000)
  90 Li     7.378891   10.470204   17.307773    ( 0.0000,  0.0000,  0.0000)
  91 Li     9.867898   12.210274   17.374816    ( 0.0000,  0.0000,  0.0000)
  92 Li     9.718675   10.467604   19.776794    ( 0.0000,  0.0000,  0.0000)
  93 Li     7.256931   12.195069   19.664312    ( 0.0000,  0.0000,  0.0000)
  94 Li     7.483169   10.452991   22.013814    ( 0.0000,  0.0000,  0.0000)
  95 Li     4.921475   12.136142   22.226489    ( 0.0000,  0.0000,  0.0000)
  96 Li     9.871211    0.000000   10.000000    ( 0.0000,  0.0000,  0.0000)
  97 Li    12.339013    1.745000   10.000000    ( 0.0000,  0.0000,  0.0000)
  98 Li    12.339013    0.000000   12.467803    ( 0.0000,  0.0000,  0.0000)
  99 Li     9.871211    1.745000   12.467803    ( 0.0000,  0.0000,  0.0000)
 100 Li    14.806816    0.000000   14.935605    ( 0.0000,  0.0000,  0.0000)
 101 Li    12.339013    1.745000   14.935605    ( 0.0000,  0.0000,  0.0000)
 102 Li    12.337823   -0.000245   17.331830    ( 0.0000,  0.0000,  0.0000)
 103 Li    14.806948    1.745921   17.329241    ( 0.0000,  0.0000,  0.0000)
 104 Li    14.863754   -0.001160   19.669875    ( 0.0000,  0.0000,  0.0000)
 105 Li    12.282319    1.744087   19.670815    ( 0.0000,  0.0000,  0.0000)
 106 Li     9.871211    3.490000   10.000000    ( 0.0000,  0.0000,  0.0000)
 107 Li    12.339013    5.235000   10.000000    ( 0.0000,  0.0000,  0.0000)
 108 Li    12.339013    3.490000   12.467803    ( 0.0000,  0.0000,  0.0000)
 109 Li     9.871211    5.235000   12.467803    ( 0.0000,  0.0000,  0.0000)
 110 Li    14.806816    3.490000   14.935605    ( 0.0000,  0.0000,  0.0000)
 111 Li    12.339013    5.235000   14.935605    ( 0.0000,  0.0000,  0.0000)
 112 Li    12.337394    3.490405   17.331587    ( 0.0000,  0.0000,  0.0000)
 113 Li    14.808151    5.235030   17.329320    ( 0.0000,  0.0000,  0.0000)
 114 Li    14.859556    3.490356   19.669417    ( 0.0000,  0.0000,  0.0000)
 115 Li    12.281664    5.238508   19.670912    ( 0.0000,  0.0000,  0.0000)
 116 Li     9.871211    6.980000   10.000000    ( 0.0000,  0.0000,  0.0000)
 117 Li    12.339013    8.725000   10.000000    ( 0.0000,  0.0000,  0.0000)
 118 Li    12.339013    6.980000   12.467803    ( 0.0000,  0.0000,  0.0000)
 119 Li     9.871211    8.725000   12.467803    ( 0.0000,  0.0000,  0.0000)
 120 Li    14.806816    6.980000   14.935605    ( 0.0000,  0.0000,  0.0000)
 121 Li    12.339013    8.725000   14.935605    ( 0.0000,  0.0000,  0.0000)
 122 Li    12.338873    6.980271   17.331107    ( 0.0000,  0.0000,  0.0000)
 123 Li    14.801939    8.726035   17.325170    ( 0.0000,  0.0000,  0.0000)
 124 Li    14.871850    6.984339   19.669723    ( 0.0000,  0.0000,  0.0000)
 125 Li    12.281834    8.724870   19.670633    ( 0.0000,  0.0000,  0.0000)
 126 Li     9.871211   10.470000   10.000000    ( 0.0000,  0.0000,  0.0000)
 127 Li    12.339013   12.215000   10.000000    ( 0.0000,  0.0000,  0.0000)
 128 Li    12.339013   10.470000   12.467803    ( 0.0000,  0.0000,  0.0000)
 129 Li     9.871211   12.215000   12.467803    ( 0.0000,  0.0000,  0.0000)
 130 Li    14.806816   10.470000   14.935605    ( 0.0000,  0.0000,  0.0000)
 131 Li    12.339013   12.215000   14.935605    ( 0.0000,  0.0000,  0.0000)
 132 Li    12.339803   10.469567   17.330630    ( 0.0000,  0.0000,  0.0000)
 133 Li    14.805484   12.213015   17.328019    ( 0.0000,  0.0000,  0.0000)
 134 Li    14.870800   10.466466   19.667966    ( 0.0000,  0.0000,  0.0000)
 135 Li    12.281415   12.212535   19.671184    ( 0.0000,  0.0000,  0.0000)
 136 Li    14.806816    0.000000   10.000000    ( 0.0000,  0.0000,  0.0000)
 137 Li    17.274619    1.745000   10.000000    ( 0.0000,  0.0000,  0.0000)
 138 Li    17.274619    0.000000   12.467803    ( 0.0000,  0.0000,  0.0000)
 139 Li    14.806816    1.745000   12.467803    ( 0.0000,  0.0000,  0.0000)
 140 Li    19.742421    0.000000   14.935605    ( 0.0000,  0.0000,  0.0000)
 141 Li    17.274619    1.745000   14.935605    ( 0.0000,  0.0000,  0.0000)
 142 Li    17.271764   -0.010307   17.380062    ( 0.0000,  0.0000,  0.0000)
 143 Li    19.747229    1.739862   17.341581    ( 0.0000,  0.0000,  0.0000)
 144 Li    19.887122   -0.037289   19.711039    ( 0.0000,  0.0000,  0.0000)
 145 Li    17.421577    1.751494   19.752795    ( 0.0000,  0.0000,  0.0000)
 146 Li    14.806816    3.490000   10.000000    ( 0.0000,  0.0000,  0.0000)
 147 Li    17.274619    5.235000   10.000000    ( 0.0000,  0.0000,  0.0000)
 148 Li    17.274619    3.490000   12.467803    ( 0.0000,  0.0000,  0.0000)
 149 Li    14.806816    5.235000   12.467803    ( 0.0000,  0.0000,  0.0000)
 150 Li    19.742421    3.490000   14.935605    ( 0.0000,  0.0000,  0.0000)
 151 Li    17.274619    5.235000   14.935605    ( 0.0000,  0.0000,  0.0000)
 152 Li    17.275837    3.492196   17.366176    ( 0.0000,  0.0000,  0.0000)
 153 Li    19.745908    5.236704   17.331943    ( 0.0000,  0.0000,  0.0000)
 154 Li    19.902435    3.497595   19.702205    ( 0.0000,  0.0000,  0.0000)
 155 Li    17.425197    5.222735   19.766654    ( 0.0000,  0.0000,  0.0000)
 156 Li    14.806816    6.980000   10.000000    ( 0.0000,  0.0000,  0.0000)
 157 Li    17.274619    8.725000   10.000000    ( 0.0000,  0.0000,  0.0000)
 158 Li    17.274619    6.980000   12.467803    ( 0.0000,  0.0000,  0.0000)
 159 Li    14.806816    8.725000   12.467803    ( 0.0000,  0.0000,  0.0000)
 160 Li    19.742421    6.980000   14.935605    ( 0.0000,  0.0000,  0.0000)
 161 Li    17.274619    8.725000   14.935605    ( 0.0000,  0.0000,  0.0000)
 162 Li    17.277394    6.997340   17.396291    ( 0.0000,  0.0000,  0.0000)
 163 Li    19.770364    8.707533   17.299318    ( 0.0000,  0.0000,  0.0000)
 164 Li    19.887958    7.012953   19.696262    ( 0.0000,  0.0000,  0.0000)
 165 Li    17.454795    8.733307   19.857548    ( 0.0000,  0.0000,  0.0000)
 166 Li    14.806816   10.470000   10.000000    ( 0.0000,  0.0000,  0.0000)
 167 Li    17.274619   12.215000   10.000000    ( 0.0000,  0.0000,  0.0000)
 168 Li    17.274619   10.470000   12.467803    ( 0.0000,  0.0000,  0.0000)
 169 Li    14.806816   12.215000   12.467803    ( 0.0000,  0.0000,  0.0000)
 170 Li    19.742421   10.470000   14.935605    ( 0.0000,  0.0000,  0.0000)
 171 Li    17.274619   12.215000   14.935605    ( 0.0000,  0.0000,  0.0000)
 172 Li    17.289998   10.460763   17.401057    ( 0.0000,  0.0000,  0.0000)
 173 Li    19.760261   12.235907   17.304100    ( 0.0000,  0.0000,  0.0000)
 174 Li    19.894043   10.466715   19.634402    ( 0.0000,  0.0000,  0.0000)
 175 Li    17.436452   12.212477   19.812409    ( 0.0000,  0.0000,  0.0000)
 176 Li     2.467693    9.596986   24.214446    ( 0.0000,  0.0000,  0.0000)

Unit cell:
           periodic     x           y           z      points  spacing
  1. axis:    yes   19.742421    0.000000    0.000000   100     0.1974
  2. axis:    yes    0.000000   13.960000    0.000000    68     0.2053
  3. axis:    no     0.000000    0.000000   32.339013   160     0.2021

  Lengths:  19.742421  13.960000  32.339013
  Angles:   90.000000  90.000000  90.000000

Effective grid spacing dv^(1/3) = 0.2016

     iter     time        total  log10-change:
                         energy   eigst   dens
iter:   1 06:06:21  -310.465643        c
iter:   2 06:07:07  -310.465349        c -3.15
iter:   3 06:07:49  -310.465315c       c -3.05
iter:   4 06:08:32  -310.465324c       c -3.90
iter:   5 06:09:11  -310.465291c       c -4.07c

Converged after 5 iterations.

Dipole moment: (-39.642380, -16.327823, 0.755807) |e|*Ang

Energy contributions relative to reference atoms: (reference = -35893.444183)

Kinetic:       +329.096714
Potential:     -279.888966
External:        +0.000000
XC:            -354.533188
Entropy (-ST):   -5.746114
Local:           -2.266795
SIC:             +0.000000
--------------------------
Free energy:   -313.338348
Extrapolated:  -310.465291

Showing all kpts
 Kpt  Band  Eigenvalues  Occupancy
  0    86     -2.88953    1.13810
  0    87     -2.87370    1.08600
  0    88     -2.84358    0.98581
  0    89     -2.83423    0.95467

  1    86     -2.88950    1.13800
  1    87     -2.87362    1.08573
  1    88     -2.84486    0.99008
  1    89     -2.83249    0.94888


Fermi level: -2.84784

Gap: 0.029 eV
Transition (v -> c):
  (s=0, k=1, n=87, [0.25, 0.25, 0.00]) -> (s=0, k=1, n=88, [0.25, 0.25, 0.00])
No difference between direct/indirect transitions

Forces in eV/Ang:
  0 Li   -0.00086   -0.00156    0.12737
  1 Li   -0.00420   -0.00114    0.12469
  2 Li    0.00107   -0.00029   -0.05791
  3 Li   -0.00110    0.00082   -0.06049
  4 Li   -0.00241    0.01364   -0.05457
  5 Li    0.00337    0.01548   -0.06645
  6 Li   -0.00250   -0.00085   -0.00616
  7 Li   -0.00144   -0.00015   -0.00523
  8 Li    0.01053    0.00555    0.00125
  9 Li   -0.01638    0.00671    0.01113
 10 Li    0.00672    0.02287   -0.03804
 11 Li    0.00874   -0.00645   -0.01596
 12 Li   -0.00058    0.00097    0.12641
 13 Li   -0.00373    0.00162    0.12542
 14 Li    0.00104   -0.00064   -0.06405
 15 Li   -0.00085   -0.00036   -0.05741
 16 Li   -0.00718   -0.00168   -0.02385
 17 Li    0.00371   -0.02549   -0.07660
 18 Li   -0.00436    0.00389    0.00102
 19 Li   -0.00248   -0.00069   -0.00547
 20 Li    0.01570    0.00012    0.00277
 21 Li   -0.01711   -0.01643    0.00584
 22 Li    0.00857   -0.00265   -0.03744
 23 Li    0.00433   -0.00282   -0.02143
 24 Li   -0.00117    0.00059    0.12573
 25 Li   -0.00337   -0.00022    0.12209
 26 Li    0.00118    0.00117   -0.05400
 27 Li   -0.00028    0.00009   -0.05221
 28 Li   -0.00149   -0.01476   -0.05895
 29 Li    0.00533   -0.00574   -0.04441
 30 Li   -0.00195   -0.00441   -0.00806
 31 Li    0.01171    0.00375   -0.00237
 32 Li    0.02012   -0.01177   -0.00865
 33 Li   -0.01565    0.00295   -0.01699
 34 Li    0.00306    0.06912    0.05934
 35 Li    0.02349    0.00182   -0.02034
 36 Li   -0.00136    0.00004    0.12451
 37 Li   -0.00365   -0.00020    0.12361
 38 Li    0.00094   -0.00047   -0.05456
 39 Li   -0.00045   -0.00038   -0.05315
 40 Li   -0.00195    0.00342   -0.04662
 41 Li    0.00511    0.01502   -0.05845
 42 Li   -0.00130   -0.00010    0.00961
 43 Li    0.00726   -0.00192   -0.00627
 44 Li    0.01790    0.00433   -0.01169
 45 Li   -0.01545    0.01376   -0.02296
 46 Li   -0.00930    0.06939   -0.19280
 47 Li    0.01608   -0.02096   -0.00543
 48 Li    0.00294   -0.00220    0.12786
 49 Li    0.00183   -0.00110    0.12635
 50 Li    0.00043    0.00019   -0.05815
 51 Li   -0.00041    0.00094   -0.06399
 52 Li    0.00463   -0.00225   -0.03594
 53 Li    0.00123   -0.00144   -0.07030
 54 Li   -0.00228   -0.00016    0.00953
 55 Li   -0.00016   -0.00128   -0.00481
 56 Li    0.00467   -0.00096   -0.00917
 57 Li    0.01291    0.00063    0.00087
 58 Li   -0.00544    0.00252   -0.01771
 59 Li   -0.01135   -0.00295   -0.02478
 60 Li    0.00268    0.00133    0.12678
 61 Li    0.00044    0.00146    0.12557
 62 Li   -0.00014   -0.00022   -0.05602
 63 Li   -0.00094   -0.00095   -0.06303
 64 Li    0.00284    0.00148   -0.03514
 65 Li    0.00204    0.00006   -0.07280
 66 Li    0.00193   -0.00130    0.00805
 67 Li   -0.00032    0.00159   -0.00618
 68 Li    0.00216    0.00019   -0.00690
 69 Li    0.01158   -0.00148    0.00128
 70 Li   -0.00911   -0.00195   -0.01092
 71 Li   -0.00545   -0.00425   -0.03132
 72 Li    0.00310    0.00118    0.12629
 73 Li   -0.00100    0.00004    0.12493
 74 Li    0.00057    0.00024   -0.05779
 75 Li   -0.00183   -0.00007   -0.05733
 76 Li    0.00411    0.00176   -0.03519
 77 Li    0.00545   -0.00267   -0.08115
 78 Li   -0.00016    0.00088    0.00941
 79 Li   -0.00052    0.00075   -0.00630
 80 Li    0.00865   -0.00029   -0.01195
 81 Li    0.01782   -0.00729    0.00324
 82 Li   -0.00021   -0.00548   -0.01962
 83 Li   -0.02299    0.00056   -0.03780
 84 Li    0.00340   -0.00029    0.12450
 85 Li   -0.00040   -0.00049    0.12468
 86 Li    0.00089   -0.00040   -0.05610
 87 Li   -0.00150    0.00040   -0.05867
 88 Li    0.00280   -0.00088   -0.03461
 89 Li    0.00368    0.00362   -0.07971
 90 Li   -0.00011   -0.00016    0.00343
 91 Li   -0.00014   -0.00105   -0.00641
 92 Li    0.01042    0.00124   -0.01210
 93 Li    0.02137    0.00665    0.00066
 94 Li    0.00553    0.00306   -0.01411
 95 Li   -0.02046   -0.02663   -0.01221
 96 Li    0.00004    0.00007    0.12378
 97 Li    0.00066    0.00064    0.12330
 98 Li   -0.00017    0.00036   -0.05965
 99 Li    0.00136    0.00012   -0.05783
100 Li   -0.00408    0.00054   -0.05551
101 Li    0.00408   -0.00004   -0.05527
102 Li   -0.00214   -0.00085    0.02640
103 Li    0.00336   -0.00144    0.02752
104 Li   -0.00501   -0.00108   -0.01260
105 Li    0.00587   -0.00074   -0.01165
106 Li    0.00122   -0.00016    0.12478
107 Li    0.00020   -0.00073    0.12397
108 Li   -0.00033    0.00004   -0.05953
109 Li    0.00167   -0.00025   -0.05797
110 Li   -0.00464   -0.00023   -0.05774
111 Li    0.00407    0.00001   -0.05488
112 Li   -0.00241    0.00065    0.02691
113 Li    0.00346    0.00296    0.02774
114 Li   -0.00711    0.00016   -0.01309
115 Li    0.00711    0.00111   -0.01114
116 Li   -0.00028    0.00012    0.12356
117 Li   -0.00010   -0.00012    0.12474
118 Li   -0.00010   -0.00045   -0.05978
119 Li    0.00188    0.00019   -0.05907
120 Li   -0.00300   -0.00032   -0.05510
121 Li    0.00315    0.00012   -0.05494
122 Li   -0.00271   -0.00009    0.02579
123 Li    0.00268    0.00180    0.02822
124 Li   -0.00700    0.00061   -0.01191
125 Li    0.00831   -0.00064   -0.01104
126 Li   -0.00060    0.00001    0.12387
127 Li    0.00009    0.00037    0.12444
128 Li    0.00015    0.00019   -0.05906
129 Li    0.00189    0.00012   -0.05886
130 Li   -0.00086   -0.00013   -0.05512
131 Li    0.00359    0.00003   -0.05468
132 Li   -0.00357    0.00013    0.02709
133 Li    0.00318   -0.00318    0.02750
134 Li   -0.00847    0.00038   -0.01140
135 Li    0.00832    0.00023   -0.01119
136 Li   -0.00113    0.00023    0.12464
137 Li    0.00066   -0.00092    0.12344
138 Li   -0.00137    0.00014   -0.05818
139 Li    0.00020   -0.00011   -0.06041
140 Li   -0.00448    0.01657   -0.08525
141 Li   -0.00250   -0.00614   -0.02869
142 Li    0.00290   -0.00459   -0.00118
143 Li    0.00434    0.00043    0.00474
144 Li   -0.01144    0.00491    0.00345
145 Li   -0.00053   -0.00206   -0.00631
146 Li   -0.00207   -0.00035    0.12565
147 Li    0.00173    0.00149    0.12282
148 Li   -0.00082   -0.00015   -0.05543
149 Li    0.00041   -0.00011   -0.06017
150 Li    0.00115   -0.00337   -0.05868
151 Li   -0.00334    0.01063   -0.02563
152 Li   -0.00346   -0.00045   -0.00319
153 Li    0.00474   -0.00149    0.00394
154 Li   -0.00724    0.00148   -0.00098
155 Li   -0.00094    0.00333   -0.00604
156 Li    0.00021    0.00022    0.12451
157 Li    0.00216    0.00007    0.12167
158 Li   -0.00177   -0.00019   -0.05872
159 Li   -0.00000    0.00029   -0.06069
160 Li   -0.00610   -0.01551   -0.08454
161 Li   -0.00700    0.00131   -0.03028
162 Li    0.00118    0.00366   -0.00419
163 Li   -0.00791    0.00457    0.00504
164 Li   -0.01747   -0.01058   -0.00901
165 Li   -0.01793   -0.00364   -0.02272
166 Li    0.00063   -0.00028    0.12478
167 Li    0.00256   -0.00074    0.12209
168 Li   -0.00138   -0.00015   -0.05779
169 Li    0.00001   -0.00016   -0.06033
170 Li   -0.00540    0.00278   -0.06958
171 Li   -0.00583   -0.00630   -0.02854
172 Li   -0.00211    0.00068   -0.00645
173 Li   -0.00526   -0.00292    0.00148
174 Li   -0.00499    0.00134   -0.00849
175 Li   -0.01467    0.00350   -0.01510
176 Li   -0.00714   -0.09376    0.10666

System changes: positions 

Initializing position-dependent things.

Density initialized from wave functions
          .------------------------------------------------.  
         /|                                                |  
        / |                                                |  
       /  |                                                |  
      /   |                                                |  
     /    |                                                |  
    /     |                                                |  
   /      |                                                |  
  /       |                                                |  
 *        |                                                |  
 |        |                                                |  
 |        |                                                |  
 |        |                                                |  
 |        |  Li Li           Li                            |  
 |        |          Li                                   Li  
 |        |   Li      Li  Li                               |  
 |     Li Li       Li                          Li          |  
 |        | Li Li       Li Li          Li           Li     |  
 |      Li|      Li Li          Li           Li      Li    |  
 |       Li  Li          Li Li       Li  Li       Li Li    |  
 |    Li Li   Li  Li LLi      Li Li       Li  Li           |  
 |        |Li Li      Li  Li       Li Li        Li Li      |  
 |  Li Li |    Li  Li      Li  Li       Li Li              |  
 |      Li| Li Li       Li Li       Li Li    Li Li  Li     |  
 |  Li  Li|      Li Li       Li LLi      Li  Li            |  
 |       Li  Li       Li Li       Li Li       Li  Li       |  
 |Li Li  Li   Li  Li Li    Li Li Li    Li Li  Li           |  
 |        Li  Li       Li Li       Li Li       Li  Li      |  
 | Li  Li |    Li  Li       Li Li       Li Li              |  
 |      Li| Li Li    Li Li Li    Li Li Li    Li Li  Li     |  
 |  Li  Li|      Li Li       Li Li       Li  Li            |  
 Li      Li  Li       Li Li       Li LLi      Li  Li       |  
 |Li Li   |   Li  Li       Li Li       Li Li               |  
 |        Li           Li          Li          Li          |  
 | Li  Li |    Li  Li       Li  Li      Li  Li             |  
 |        |                                                |  
 |      Li|          Li          Li          Li            |  
 Li       |  Li          Li           Li                   |  
 |        |                                                |  
 |        |                                                |  
 |        .------------------------------------------------.  
 |       /                                                /   
 |      /                                                /    
 |     /                                                /     
 |    /                                                /      
 |   /                                                /       
 |  /                                                /        
 | /                                                /         
 |/                                                /          
 *------------------------------------------------*           

Atomic positions and initial magnetic moments

Positions:
   0 Li     0.000000    0.000000   10.000000    ( 0.0000,  0.0000,  0.0000)
   1 Li     2.467803    1.745000   10.000000    ( 0.0000,  0.0000,  0.0000)
   2 Li     2.467803    0.000000   12.467803    ( 0.0000,  0.0000,  0.0000)
   3 Li     0.000000    1.745000   12.467803    ( 0.0000,  0.0000,  0.0000)
   4 Li     4.935605    0.000000   14.935605    ( 0.0000,  0.0000,  0.0000)
   5 Li     2.467803    1.745000   14.935605    ( 0.0000,  0.0000,  0.0000)
   6 Li     2.468856    0.034219   17.335605    ( 0.0000,  0.0000,  0.0000)
   7 Li     4.934463    1.734558   17.401793    ( 0.0000,  0.0000,  0.0000)
   8 Li     4.904690   -0.039198   19.858434    ( 0.0000,  0.0000,  0.0000)
   9 Li     2.521730    1.712218   19.808222    ( 0.0000,  0.0000,  0.0000)
  10 Li     2.421257   -0.085877   22.137879    ( 0.0000,  0.0000,  0.0000)
  11 Li    -0.122090    1.726269   22.025009    ( 0.0000,  0.0000,  0.0000)
  12 Li     0.000000    3.490000   10.000000    ( 0.0000,  0.0000,  0.0000)
  13 Li     2.467803    5.235000   10.000000    ( 0.0000,  0.0000,  0.0000)
  14 Li     2.467803    3.490000   12.467803    ( 0.0000,  0.0000,  0.0000)
  15 Li     0.000000    5.235000   12.467803    ( 0.0000,  0.0000,  0.0000)
  16 Li     4.935605    3.490000   14.935605    ( 0.0000,  0.0000,  0.0000)
  17 Li     2.467803    5.235000   14.935605    ( 0.0000,  0.0000,  0.0000)
  18 Li     2.473798    3.487281   17.381040    ( 0.0000,  0.0000,  0.0000)
  19 Li     4.936188    5.242944   17.393096    ( 0.0000,  0.0000,  0.0000)
  20 Li     4.874652    3.498753   19.831021    ( 0.0000,  0.0000,  0.0000)
  21 Li     2.522485    5.274348   19.794037    ( 0.0000,  0.0000,  0.0000)
  22 Li     2.403960    3.498406   22.120695    ( 0.0000,  0.0000,  0.0000)
  23 Li    -0.100821    5.287044   22.042652    ( 0.0000,  0.0000,  0.0000)
  24 Li     0.000000    6.980000   10.000000    ( 0.0000,  0.0000,  0.0000)
  25 Li     2.467803    8.725000   10.000000    ( 0.0000,  0.0000,  0.0000)
  26 Li     2.467803    6.980000   12.467803    ( 0.0000,  0.0000,  0.0000)
  27 Li     0.000000    8.725000   12.467803    ( 0.0000,  0.0000,  0.0000)
  28 Li     4.935605    6.980000   14.935605    ( 0.0000,  0.0000,  0.0000)
  29 Li     2.467803    8.725000   14.935605    ( 0.0000,  0.0000,  0.0000)
  30 Li     2.468849    6.934269   17.320279    ( 0.0000,  0.0000,  0.0000)
  31 Li     4.925945    8.705908   17.355488    ( 0.0000,  0.0000,  0.0000)
  32 Li     4.907512    7.014863   19.846546    ( 0.0000,  0.0000,  0.0000)
  33 Li     2.531919    8.672012   19.618351    ( 0.0000,  0.0000,  0.0000)
  34 Li     2.442999    7.063675   22.089813    ( 0.0000,  0.0000,  0.0000)
  35 Li     0.022969    8.802022   22.133761    ( 0.0000,  0.0000,  0.0000)
  36 Li     0.000000   10.470000   10.000000    ( 0.0000,  0.0000,  0.0000)
  37 Li     2.467803   12.215000   10.000000    ( 0.0000,  0.0000,  0.0000)
  38 Li     2.467803   10.470000   12.467803    ( 0.0000,  0.0000,  0.0000)
  39 Li     0.000000   12.215000   12.467803    ( 0.0000,  0.0000,  0.0000)
  40 Li     4.935605   10.470000   14.935605    ( 0.0000,  0.0000,  0.0000)
  41 Li     2.467803   12.215000   14.935605    ( 0.0000,  0.0000,  0.0000)
  42 Li     2.473899   10.484185   17.331429    ( 0.0000,  0.0000,  0.0000)
  43 Li     4.930854   12.236622   17.363100    ( 0.0000,  0.0000,  0.0000)
  44 Li     4.888873   10.465533   19.777739    ( 0.0000,  0.0000,  0.0000)
  45 Li     2.529889   12.261619   19.665439    ( 0.0000,  0.0000,  0.0000)
  46 Li     2.452354   10.468618   21.769101    ( 0.0000,  0.0000,  0.0000)
  47 Li    -0.042135   12.103800   22.096441    ( 0.0000,  0.0000,  0.0000)
  48 Li     4.935605    0.000000   10.000000    ( 0.0000,  0.0000,  0.0000)
  49 Li     7.403408    1.745000   10.000000    ( 0.0000,  0.0000,  0.0000)
  50 Li     7.403408    0.000000   12.467803    ( 0.0000,  0.0000,  0.0000)
  51 Li     4.935605    1.745000   12.467803    ( 0.0000,  0.0000,  0.0000)
  52 Li     9.871211    0.000000   14.935605    ( 0.0000,  0.0000,  0.0000)
  53 Li     7.403408    1.745000   14.935605    ( 0.0000,  0.0000,  0.0000)
  54 Li     7.395939   -0.001580   17.318739    ( 0.0000,  0.0000,  0.0000)
  55 Li     9.868284    1.744264   17.367804    ( 0.0000,  0.0000,  0.0000)
  56 Li     9.717503    0.001486   19.767337    ( 0.0000,  0.0000,  0.0000)
  57 Li     7.249110    1.742879   19.677575    ( 0.0000,  0.0000,  0.0000)
  58 Li     7.476601   -0.037943   22.010966    ( 0.0000,  0.0000,  0.0000)
  59 Li     4.962398    1.744710   22.155972    ( 0.0000,  0.0000,  0.0000)
  60 Li     4.935605    3.490000   10.000000    ( 0.0000,  0.0000,  0.0000)
  61 Li     7.403408    5.235000   10.000000    ( 0.0000,  0.0000,  0.0000)
  62 Li     7.403408    3.490000   12.467803    ( 0.0000,  0.0000,  0.0000)
  63 Li     4.935605    5.235000   12.467803    ( 0.0000,  0.0000,  0.0000)
  64 Li     9.871211    3.490000   14.935605    ( 0.0000,  0.0000,  0.0000)
  65 Li     7.403408    5.235000   14.935605    ( 0.0000,  0.0000,  0.0000)
  66 Li     7.386537    3.490842   17.320444    ( 0.0000,  0.0000,  0.0000)
  67 Li     9.867579    5.238772   17.372291    ( 0.0000,  0.0000,  0.0000)
  68 Li     9.725000    3.488533   19.752813    ( 0.0000,  0.0000,  0.0000)
  69 Li     7.252048    5.241031   19.675371    ( 0.0000,  0.0000,  0.0000)
  70 Li     7.509839    3.498914   22.003968    ( 0.0000,  0.0000,  0.0000)
  71 Li     4.951638    5.247568   22.175924    ( 0.0000,  0.0000,  0.0000)
  72 Li     4.935605    6.980000   10.000000    ( 0.0000,  0.0000,  0.0000)
  73 Li     7.403408    8.725000   10.000000    ( 0.0000,  0.0000,  0.0000)
  74 Li     7.403408    6.980000   12.467803    ( 0.0000,  0.0000,  0.0000)
  75 Li     4.935605    8.725000   12.467803    ( 0.0000,  0.0000,  0.0000)
  76 Li     9.871211    6.980000   14.935605    ( 0.0000,  0.0000,  0.0000)
  77 Li     7.403408    8.725000   14.935605    ( 0.0000,  0.0000,  0.0000)
  78 Li     7.391954    6.980514   17.314868    ( 0.0000,  0.0000,  0.0000)
  79 Li     9.866880    8.726711   17.376061    ( 0.0000,  0.0000,  0.0000)
  80 Li     9.711461    6.982354   19.779040    ( 0.0000,  0.0000,  0.0000)
  81 Li     7.253151    8.740853   19.657290    ( 0.0000,  0.0000,  0.0000)
  82 Li     7.456171    7.025905   22.013296    ( 0.0000,  0.0000,  0.0000)
  83 Li     4.897169    8.791158   22.240894    ( 0.0000,  0.0000,  0.0000)
  84 Li     4.935605   10.470000   10.000000    ( 0.0000,  0.0000,  0.0000)
  85 Li     7.403408   12.215000   10.000000    ( 0.0000,  0.0000,  0.0000)
  86 Li     7.403408   10.470000   12.467803    ( 0.0000,  0.0000,  0.0000)
  87 Li     4.935605   12.215000   12.467803    ( 0.0000,  0.0000,  0.0000)
  88 Li     9.871211   10.470000   14.935605    ( 0.0000,  0.0000,  0.0000)
  89 Li     7.403408   12.215000   14.935605    ( 0.0000,  0.0000,  0.0000)
  90 Li     7.378885   10.470200   17.307847    ( 0.0000,  0.0000,  0.0000)
  91 Li     9.867896   12.210254   17.374700    ( 0.0000,  0.0000,  0.0000)
  92 Li     9.718886   10.467631   19.776564    ( 0.0000,  0.0000,  0.0000)
  93 Li     7.257357   12.195192   19.664334    ( 0.0000,  0.0000,  0.0000)
  94 Li     7.483300   10.453071   22.013547    ( 0.0000,  0.0000,  0.0000)
  95 Li     4.921036   12.135552   22.226298    ( 0.0000,  0.0000,  0.0000)
  96 Li     9.871211    0.000000   10.000000    ( 0.0000,  0.0000,  0.0000)
  97 Li    12.339013    1.745000   10.000000    ( 0.0000,  0.0000,  0.0000)
  98 Li    12.339013    0.000000   12.467803    ( 0.0000,  0.0000,  0.0000)
  99 Li     9.871211    1.745000   12.467803    ( 0.0000,  0.0000,  0.0000)
 100 Li    14.806816    0.000000   14.935605    ( 0.0000,  0.0000,  0.0000)
 101 Li    12.339013    1.745000   14.935605    ( 0.0000,  0.0000,  0.0000)
 102 Li    12.337780   -0.000261   17.332362    ( 0.0000,  0.0000,  0.0000)
 103 Li    14.807017    1.745893   17.329794    ( 0.0000,  0.0000,  0.0000)
 104 Li    14.863662   -0.001182   19.669629    ( 0.0000,  0.0000,  0.0000)
 105 Li    12.282433    1.744071   19.670588    ( 0.0000,  0.0000,  0.0000)
 106 Li     9.871211    3.490000   10.000000    ( 0.0000,  0.0000,  0.0000)
 107 Li    12.339013    5.235000   10.000000    ( 0.0000,  0.0000,  0.0000)
 108 Li    12.339013    3.490000   12.467803    ( 0.0000,  0.0000,  0.0000)
 109 Li     9.871211    5.235000   12.467803    ( 0.0000,  0.0000,  0.0000)
 110 Li    14.806816    3.490000   14.935605    ( 0.0000,  0.0000,  0.0000)
 111 Li    12.339013    5.235000   14.935605    ( 0.0000,  0.0000,  0.0000)
 112 Li    12.337345    3.490417   17.332127    ( 0.0000,  0.0000,  0.0000)
 113 Li    14.808221    5.235088   17.329878    ( 0.0000,  0.0000,  0.0000)
 114 Li    14.859418    3.490359   19.669160    ( 0.0000,  0.0000,  0.0000)
 115 Li    12.281804    5.238529   19.670694    ( 0.0000,  0.0000,  0.0000)
 116 Li     9.871211    6.980000   10.000000    ( 0.0000,  0.0000,  0.0000)
 117 Li    12.339013    8.725000   10.000000    ( 0.0000,  0.0000,  0.0000)
 118 Li    12.339013    6.980000   12.467803    ( 0.0000,  0.0000,  0.0000)
 119 Li     9.871211    8.725000   12.467803    ( 0.0000,  0.0000,  0.0000)
 120 Li    14.806816    6.980000   14.935605    ( 0.0000,  0.0000,  0.0000)
 121 Li    12.339013    8.725000   14.935605    ( 0.0000,  0.0000,  0.0000)
 122 Li    12.338818    6.980269   17.331627    ( 0.0000,  0.0000,  0.0000)
 123 Li    14.801993    8.726072   17.325739    ( 0.0000,  0.0000,  0.0000)
 124 Li    14.871710    6.984349   19.669491    ( 0.0000,  0.0000,  0.0000)
 125 Li    12.281996    8.724857   19.670418    ( 0.0000,  0.0000,  0.0000)
 126 Li     9.871211   10.470000   10.000000    ( 0.0000,  0.0000,  0.0000)
 127 Li    12.339013   12.215000   10.000000    ( 0.0000,  0.0000,  0.0000)
 128 Li    12.339013   10.470000   12.467803    ( 0.0000,  0.0000,  0.0000)
 129 Li     9.871211   12.215000   12.467803    ( 0.0000,  0.0000,  0.0000)
 130 Li    14.806816   10.470000   14.935605    ( 0.0000,  0.0000,  0.0000)
 131 Li    12.339013   12.215000   14.935605    ( 0.0000,  0.0000,  0.0000)
 132 Li    12.339731   10.469570   17.331175    ( 0.0000,  0.0000,  0.0000)
 133 Li    14.805545   12.212951   17.328571    ( 0.0000,  0.0000,  0.0000)
 134 Li    14.870630   10.466477   19.667742    ( 0.0000,  0.0000,  0.0000)
 135 Li    12.281578   12.212542   19.670965    ( 0.0000,  0.0000,  0.0000)
 136 Li    14.806816    0.000000   10.000000    ( 0.0000,  0.0000,  0.0000)
 137 Li    17.274619    1.745000   10.000000    ( 0.0000,  0.0000,  0.0000)
 138 Li    17.274619    0.000000   12.467803    ( 0.0000,  0.0000,  0.0000)
 139 Li    14.806816    1.745000   12.467803    ( 0.0000,  0.0000,  0.0000)
 140 Li    19.742421    0.000000   14.935605    ( 0.0000,  0.0000,  0.0000)
 141 Li    17.274619    1.745000   14.935605    ( 0.0000,  0.0000,  0.0000)
 142 Li    17.271820   -0.010406   17.380062    ( 0.0000,  0.0000,  0.0000)
 143 Li    19.747309    1.739865   17.341694    ( 0.0000,  0.0000,  0.0000)
 144 Li    19.886888   -0.037211   19.711138    ( 0.0000,  0.0000,  0.0000)
 145 Li    17.421574    1.751458   19.752687    ( 0.0000,  0.0000,  0.0000)
 146 Li    14.806816    3.490000   10.000000    ( 0.0000,  0.0000,  0.0000)
 147 Li    17.274619    5.235000   10.000000    ( 0.0000,  0.0000,  0.0000)
 148 Li    17.274619    3.490000   12.467803    ( 0.0000,  0.0000,  0.0000)
 149 Li    14.806816    5.235000   12.467803    ( 0.0000,  0.0000,  0.0000)
 150 Li    19.742421    3.490000   14.935605    ( 0.0000,  0.0000,  0.0000)
 151 Li    17.274619    5.235000   14.935605    ( 0.0000,  0.0000,  0.0000)
 152 Li    17.275769    3.492185   17.366121    ( 0.0000,  0.0000,  0.0000)
 153 Li    19.745998    5.236683   17.332050    ( 0.0000,  0.0000,  0.0000)
 154 Li    19.902302    3.497618   19.702207    ( 0.0000,  0.0000,  0.0000)
 155 Li    17.425181    5.222801   19.766538    ( 0.0000,  0.0000,  0.0000)
 156 Li    14.806816    6.980000   10.000000    ( 0.0000,  0.0000,  0.0000)
 157 Li    17.274619    8.725000   10.000000    ( 0.0000,  0.0000,  0.0000)
 158 Li    17.274619    6.980000   12.467803    ( 0.0000,  0.0000,  0.0000)
 159 Li    14.806816    8.725000   12.467803    ( 0.0000,  0.0000,  0.0000)
 160 Li    19.742421    6.980000   14.935605    ( 0.0000,  0.0000,  0.0000)
 161 Li    17.274619    8.725000   14.935605    ( 0.0000,  0.0000,  0.0000)
 162 Li    17.277410    6.997413   17.396214    ( 0.0000,  0.0000,  0.0000)
 163 Li    19.770202    8.707609   17.299423    ( 0.0000,  0.0000,  0.0000)
 164 Li    19.887602    7.012766   19.696125    ( 0.0000,  0.0000,  0.0000)
 165 Li    17.454430    8.733242   19.857097    ( 0.0000,  0.0000,  0.0000)
 166 Li    14.806816   10.470000   10.000000    ( 0.0000,  0.0000,  0.0000)
 167 Li    17.274619   12.215000   10.000000    ( 0.0000,  0.0000,  0.0000)
 168 Li    17.274619   10.470000   12.467803    ( 0.0000,  0.0000,  0.0000)
 169 Li    14.806816   12.215000   12.467803    ( 0.0000,  0.0000,  0.0000)
 170 Li    19.742421   10.470000   14.935605    ( 0.0000,  0.0000,  0.0000)
 171 Li    17.274619   12.215000   14.935605    ( 0.0000,  0.0000,  0.0000)
 172 Li    17.289962   10.460786   17.400940    ( 0.0000,  0.0000,  0.0000)
 173 Li    19.760163   12.235862   17.304130    ( 0.0000,  0.0000,  0.0000)
 174 Li    19.893946   10.466745   19.634216    ( 0.0000,  0.0000,  0.0000)
 175 Li    17.436171   12.212533   19.812156    ( 0.0000,  0.0000,  0.0000)
 176 Li     2.467562    9.595971   24.216542    ( 0.0000,  0.0000,  0.0000)

Unit cell:
           periodic     x           y           z      points  spacing
  1. axis:    yes   19.742421    0.000000    0.000000   100     0.1974
  2. axis:    yes    0.000000   13.960000    0.000000    68     0.2053
  3. axis:    no     0.000000    0.000000   32.339013   160     0.2021

  Lengths:  19.742421  13.960000  32.339013
  Angles:   90.000000  90.000000  90.000000

Effective grid spacing dv^(1/3) = 0.2016

     iter     time        total  log10-change:
                         energy   eigst   dens
iter:   1 06:37:07  -310.467305        c
iter:   2 06:37:58  -310.467284        c -3.78
iter:   3 06:38:50  -310.467236c       c -4.04c

Converged after 3 iterations.

Dipole moment: (-39.658003, -16.336853, 0.756244) |e|*Ang

Energy contributions relative to reference atoms: (reference = -35893.444183)

Kinetic:       +329.101315
Potential:     -279.890127
External:        +0.000000
XC:            -354.538622
Entropy (-ST):   -5.746047
Local:           -2.266778
SIC:             +0.000000
--------------------------
Free energy:   -313.340259
Extrapolated:  -310.467236

Showing all kpts
 Kpt  Band  Eigenvalues  Occupancy
  0    86     -2.88924    1.13822
  0    87     -2.87339    1.08607
  0    88     -2.84328    0.98591
  0    89     -2.83390    0.95469

  1    86     -2.88919    1.13808
  1    87     -2.87331    1.08581
  1    88     -2.84456    0.99019
  1    89     -2.83220    0.94904


Fermi level: -2.84750

Gap: 0.029 eV
Transition (v -> c):
  (s=0, k=1, n=87, [0.25, 0.25, 0.00]) -> (s=0, k=1, n=88, [0.25, 0.25, 0.00])
No difference between direct/indirect transitions

Forces in eV/Ang:
  0 Li   -0.00108   -0.00148    0.12760
  1 Li   -0.00438   -0.00111    0.12527
  2 Li    0.00116   -0.00033   -0.05794
  3 Li   -0.00087    0.00082   -0.06065
  4 Li   -0.00245    0.01360   -0.05481
  5 Li    0.00336    0.01558   -0.06658
  6 Li   -0.00253   -0.00066   -0.00605
  7 Li   -0.00148   -0.00013   -0.00495
  8 Li    0.01008    0.00515    0.00116
  9 Li   -0.01594    0.00671    0.01039
 10 Li    0.00668    0.02267   -0.03788
 11 Li    0.00883   -0.00625   -0.01572
 12 Li   -0.00080    0.00095    0.12662
 13 Li   -0.00391    0.00155    0.12609
 14 Li    0.00111   -0.00060   -0.06411
 15 Li   -0.00060   -0.00031   -0.05750
 16 Li   -0.00726   -0.00166   -0.02403
 17 Li    0.00371   -0.02555   -0.07688
 18 Li   -0.00429    0.00376    0.00111
 19 Li   -0.00237   -0.00082   -0.00531
 20 Li    0.01541   -0.00018    0.00236
 21 Li   -0.01667   -0.01524    0.00624
 22 Li    0.00848   -0.00269   -0.03665
 23 Li    0.00469   -0.00272   -0.02100
 24 Li   -0.00142    0.00050    0.12606
 25 Li   -0.00353   -0.00028    0.12290
 26 Li    0.00127    0.00121   -0.05395
 27 Li   -0.00002    0.00007   -0.05222
 28 Li   -0.00151   -0.01468   -0.05921
 29 Li    0.00533   -0.00564   -0.04455
 30 Li   -0.00197   -0.00436   -0.00803
 31 Li    0.01146    0.00367   -0.00242
 32 Li    0.01940   -0.01157   -0.00879
 33 Li   -0.01509    0.00174   -0.01772
 34 Li    0.00316    0.06727    0.05790
 35 Li    0.02347    0.00208   -0.02019
 36 Li   -0.00162    0.00007    0.12486
 37 Li   -0.00382   -0.00010    0.12434
 38 Li    0.00104   -0.00052   -0.05448
 39 Li   -0.00021   -0.00042   -0.05322
 40 Li   -0.00199    0.00335   -0.04686
 41 Li    0.00511    0.01488   -0.05854
 42 Li   -0.00128   -0.00005    0.00952
 43 Li    0.00709   -0.00186   -0.00617
 44 Li    0.01781    0.00441   -0.01231
 45 Li   -0.01489    0.01519   -0.02443
 46 Li   -0.00903    0.06499   -0.17947
 47 Li    0.01586   -0.02021   -0.00553
 48 Li    0.00310   -0.00213    0.12851
 49 Li    0.00199   -0.00109    0.12664
 50 Li    0.00024    0.00019   -0.05829
 51 Li   -0.00050    0.00094   -0.06407
 52 Li    0.00469   -0.00222   -0.03585
 53 Li    0.00123   -0.00145   -0.07018
 54 Li   -0.00214   -0.00012    0.00940
 55 Li   -0.00021   -0.00124   -0.00468
 56 Li    0.00491   -0.00093   -0.00915
 57 Li    0.01275    0.00068    0.00066
 58 Li   -0.00571    0.00249   -0.01740
 59 Li   -0.01122   -0.00278   -0.02444
 60 Li    0.00283    0.00131    0.12741
 61 Li    0.00062    0.00144    0.12589
 62 Li   -0.00032   -0.00021   -0.05616
 63 Li   -0.00104   -0.00089   -0.06304
 64 Li    0.00294    0.00148   -0.03509
 65 Li    0.00202    0.00013   -0.07268
 66 Li    0.00195   -0.00124    0.00796
 67 Li   -0.00035    0.00157   -0.00603
 68 Li    0.00234    0.00024   -0.00686
 69 Li    0.01161   -0.00162    0.00100
 70 Li   -0.00922   -0.00200   -0.01081
 71 Li   -0.00565   -0.00405   -0.03080
 72 Li    0.00327    0.00110    0.12704
 73 Li   -0.00076    0.00001    0.12527
 74 Li    0.00033    0.00024   -0.05788
 75 Li   -0.00195   -0.00008   -0.05726
 76 Li    0.00411    0.00175   -0.03504
 77 Li    0.00539   -0.00267   -0.08106
 78 Li   -0.00002    0.00082    0.00923
 79 Li   -0.00056    0.00073   -0.00614
 80 Li    0.00886   -0.00030   -0.01198
 81 Li    0.01765   -0.00704    0.00290
 82 Li   -0.00048   -0.00546   -0.01922
 83 Li   -0.02295    0.00105   -0.03720
 84 Li    0.00358   -0.00026    0.12528
 85 Li   -0.00018   -0.00044    0.12501
 86 Li    0.00062   -0.00041   -0.05615
 87 Li   -0.00160    0.00035   -0.05866
 88 Li    0.00278   -0.00089   -0.03443
 89 Li    0.00363    0.00358   -0.07962
 90 Li    0.00013   -0.00016    0.00340
 91 Li   -0.00021   -0.00103   -0.00625
 92 Li    0.01062    0.00117   -0.01215
 93 Li    0.02104    0.00646    0.00038
 94 Li    0.00537    0.00293   -0.01398
 95 Li   -0.02017   -0.02589   -0.01215
 96 Li    0.00006    0.00005    0.12377
 97 Li    0.00067    0.00061    0.12328
 98 Li   -0.00009    0.00043   -0.05963
 99 Li    0.00135    0.00014   -0.05791
100 Li   -0.00413    0.00055   -0.05512
101 Li    0.00414   -0.00001   -0.05500
102 Li   -0.00210   -0.00087    0.02559
[...]
141 Li   -0.00242   -0.00633   -0.02859
142 Li    0.00255   -0.00333   -0.00186
143 Li    0.00331    0.00011    0.00394
144 Li   -0.01044    0.00182    0.00220
145 Li   -0.00215   -0.00141   -0.00619
146 Li   -0.00206   -0.00037    0.12570
147 Li    0.00175    0.00150    0.12292
148 Li   -0.00081   -0.00016   -0.05539
149 Li    0.00033   -0.00014   -0.06018
150 Li    0.00113   -0.00340   -0.05817
151 Li   -0.00331    0.01069   -0.02576
152 Li   -0.00240   -0.00024   -0.00308
153 Li    0.00321   -0.00168    0.00254
154 Li   -0.00839    0.00002   -0.00270
155 Li   -0.00288    0.00261   -0.00638
156 Li    0.00023    0.00023    0.12454
157 Li    0.00214    0.00007    0.12177
158 Li   -0.00176   -0.00019   -0.05868
159 Li   -0.00007    0.00029   -0.06075
160 Li   -0.00618   -0.01548   -0.08389
161 Li   -0.00708    0.00141   -0.03065
162 Li    0.00109    0.00235   -0.00476
163 Li   -0.00683    0.00345    0.00323
164 Li   -0.01453   -0.00806   -0.00865
165 Li   -0.01548   -0.00271   -0.02020
166 Li    0.00064   -0.00027    0.12483
167 Li    0.00255   -0.00072    0.12219
168 Li   -0.00137   -0.00013   -0.05773
169 Li   -0.00006   -0.00015   -0.06038
170 Li   -0.00541    0.00267   -0.06936
171 Li   -0.00589   -0.00622   -0.02893
172 Li   -0.00236    0.00086   -0.00679
173 Li   -0.00457   -0.00209    0.00044
174 Li   -0.00941    0.00156   -0.01198
175 Li   -0.01306    0.00247   -0.01320
176 Li   -0.00639   -0.07397    0.04872

System changes: positions 

Initializing position-dependent things.

Density initialized from wave functions
          .------------------------------------------------.  
         /|                                                |  
        / |                                                |  
       /  |                                                |  
      /   |                                                |  
     /    |                                                |  
    /     |                                                |  
   /      |                                                |  
  /       |                                                |  
 *        |                                                |  
 |        |                                                |  
 |        |                                                |  
 |        |                                                |  
 |        |  Li Li           Li                            |  
 |        |          Li                                   Li  
 |        |   Li      Li  Li                               |  
 |     Li Li       Li                          Li          |  
 |        | Li Li       Li Li          Li           Li     |  
 |      Li|      Li Li          Li           Li      Li    |  
 |       Li  Li          Li Li       Li  Li       Li Li    |  
 |    Li Li   Li  Li LLi      Li Li       Li  Li           |  
 |        |Li Li      Li  Li       Li Li        Li Li      |  
 |  Li Li |    Li  Li      Li  Li       Li Li              |  
 |      Li| Li Li       Li Li       Li Li    Li Li  Li     |  
 |  Li  Li|      Li Li       Li LLi      Li  Li            |  
 |       Li  Li       Li Li       Li Li       Li  Li       |  
 |Li Li  Li   Li  Li Li    Li Li Li    Li Li  Li           |  
 |        Li  Li       Li Li       Li Li       Li  Li      |  
 | Li  Li |    Li  Li       Li Li       Li Li              |  
 |      Li| Li Li    Li Li Li    Li Li Li    Li Li  Li     |  
 |  Li  Li|      Li Li       Li Li       Li  Li            |  
 Li      Li  Li       Li Li       Li LLi      Li  Li       |  
 |Li Li   |   Li  Li       Li Li       Li Li               |  
 |        Li           Li          Li          Li          |  
 | Li  Li |    Li  Li       Li  Li      Li  Li             |  
 |        |                                                |  
 |      Li|          Li          Li          Li            |  
 Li       |  Li          Li           Li                   |  
 |        |                                                |  
 |        |                                                |  
 |        .------------------------------------------------.  
 |       /                                                /   
 |      /                                                /    
 |     /                                                /     
 |    /                                                /      
 |   /                                                /       
 |  /                                                /        
 | /                                                /         
 |/                                                /          
 *------------------------------------------------*           

Atomic positions and initial magnetic moments

Positions:
   0 Li     0.000000    0.000000   10.000000    ( 0.0000,  0.0000,  0.0000)
   1 Li     2.467803    1.745000   10.000000    ( 0.0000,  0.0000,  0.0000)
   2 Li     2.467803    0.000000   12.467803    ( 0.0000,  0.0000,  0.0000)
   3 Li     0.000000    1.745000   12.467803    ( 0.0000,  0.0000,  0.0000)
   4 Li     4.935605    0.000000   14.935605    ( 0.0000,  0.0000,  0.0000)
   5 Li     2.467803    1.745000   14.935605    ( 0.0000,  0.0000,  0.0000)
   6 Li     2.468379    0.034403   17.334359    ( 0.0000,  0.0000,  0.0000)
   7 Li     4.934220    1.734441   17.401076    ( 0.0000,  0.0000,  0.0000)
   8 Li     4.906621   -0.038528   19.858947    ( 0.0000,  0.0000,  0.0000)
   9 Li     2.518873    1.713167   19.810286    ( 0.0000,  0.0000,  0.0000)
  10 Li     2.422552   -0.082391   22.131391    ( 0.0000,  0.0000,  0.0000)
  11 Li    -0.120392    1.724998   22.022396    ( 0.0000,  0.0000,  0.0000)
  12 Li     0.000000    3.490000   10.000000    ( 0.0000,  0.0000,  0.0000)
  13 Li     2.467803    5.235000   10.000000    ( 0.0000,  0.0000,  0.0000)
  14 Li     2.467803    3.490000   12.467803    ( 0.0000,  0.0000,  0.0000)
  15 Li     0.000000    5.235000   12.467803    ( 0.0000,  0.0000,  0.0000)
  16 Li     4.935605    3.490000   14.935605    ( 0.0000,  0.0000,  0.0000)
  17 Li     2.467803    5.235000   14.935605    ( 0.0000,  0.0000,  0.0000)
  18 Li     2.473056    3.487980   17.381525    ( 0.0000,  0.0000,  0.0000)
  19 Li     4.935779    5.242898   17.392393    ( 0.0000,  0.0000,  0.0000)
  20 Li     4.877293    3.498624   19.831456    ( 0.0000,  0.0000,  0.0000)
  21 Li     2.519485    5.272051   19.795720    ( 0.0000,  0.0000,  0.0000)
  22 Li     2.405415    3.497852   22.114384    ( 0.0000,  0.0000,  0.0000)
  23 Li    -0.099998    5.286467   22.038928    ( 0.0000,  0.0000,  0.0000)
  24 Li     0.000000    6.980000   10.000000    ( 0.0000,  0.0000,  0.0000)
  25 Li     2.467803    8.725000   10.000000    ( 0.0000,  0.0000,  0.0000)
  26 Li     2.467803    6.980000   12.467803    ( 0.0000,  0.0000,  0.0000)
  27 Li     0.000000    8.725000   12.467803    ( 0.0000,  0.0000,  0.0000)
  28 Li     4.935605    6.980000   14.935605    ( 0.0000,  0.0000,  0.0000)
  29 Li     2.467803    8.725000   14.935605    ( 0.0000,  0.0000,  0.0000)
  30 Li     2.468478    6.933317   17.318848    ( 0.0000,  0.0000,  0.0000)
  31 Li     4.928010    8.706376   17.355107    ( 0.0000,  0.0000,  0.0000)
  32 Li     4.911028    7.013030   19.845344    ( 0.0000,  0.0000,  0.0000)
  33 Li     2.529287    8.671597   19.614726    ( 0.0000,  0.0000,  0.0000)
  34 Li     2.443475    7.076360   22.101002    ( 0.0000,  0.0000,  0.0000)
  35 Li     0.027070    8.803128   22.130231    ( 0.0000,  0.0000,  0.0000)
  36 Li     0.000000   10.470000   10.000000    ( 0.0000,  0.0000,  0.0000)
  37 Li     2.467803   12.215000   10.000000    ( 0.0000,  0.0000,  0.0000)
  38 Li     2.467803   10.470000   12.467803    ( 0.0000,  0.0000,  0.0000)
  39 Li     0.000000   12.215000   12.467803    ( 0.0000,  0.0000,  0.0000)
  40 Li     4.935605   10.470000   14.935605    ( 0.0000,  0.0000,  0.0000)
  41 Li     2.467803   12.215000   14.935605    ( 0.0000,  0.0000,  0.0000)
  42 Li     2.473705   10.484052   17.333254    ( 0.0000,  0.0000,  0.0000)
  43 Li     4.932107   12.236454   17.361957    ( 0.0000,  0.0000,  0.0000)
  44 Li     4.892092   10.466372   19.775216    ( 0.0000,  0.0000,  0.0000)
  45 Li     2.527312   12.265185   19.659984    ( 0.0000,  0.0000,  0.0000)
  46 Li     2.450720   10.479839   21.736287    ( 0.0000,  0.0000,  0.0000)
  47 Li    -0.038871   12.099810   22.095926    ( 0.0000,  0.0000,  0.0000)
  48 Li     4.935605    0.000000   10.000000    ( 0.0000,  0.0000,  0.0000)
  49 Li     7.403408    1.745000   10.000000    ( 0.0000,  0.0000,  0.0000)
  50 Li     7.403408    0.000000   12.467803    ( 0.0000,  0.0000,  0.0000)
  51 Li     4.935605    1.745000   12.467803    ( 0.0000,  0.0000,  0.0000)
  52 Li     9.871211    0.000000   14.935605    ( 0.0000,  0.0000,  0.0000)
  53 Li     7.403408    1.745000   14.935605    ( 0.0000,  0.0000,  0.0000)
  54 Li     7.395589   -0.001589   17.320479    ( 0.0000,  0.0000,  0.0000)
  55 Li     9.868252    1.744033   17.367058    ( 0.0000,  0.0000,  0.0000)
  56 Li     9.718342    0.001309   19.765916    ( 0.0000,  0.0000,  0.0000)
  57 Li     7.251383    1.742975   19.677795    ( 0.0000,  0.0000,  0.0000)
  58 Li     7.475301   -0.037694   22.007990    ( 0.0000,  0.0000,  0.0000)
  59 Li     4.960342    1.744219   22.151758    ( 0.0000,  0.0000,  0.0000)
  60 Li     4.935605    3.490000   10.000000    ( 0.0000,  0.0000,  0.0000)
  61 Li     7.403408    5.235000   10.000000    ( 0.0000,  0.0000,  0.0000)
  62 Li     7.403408    3.490000   12.467803    ( 0.0000,  0.0000,  0.0000)
  63 Li     4.935605    5.235000   12.467803    ( 0.0000,  0.0000,  0.0000)
  64 Li     9.871211    3.490000   14.935605    ( 0.0000,  0.0000,  0.0000)
  65 Li     7.403408    5.235000   14.935605    ( 0.0000,  0.0000,  0.0000)
  66 Li     7.386834    3.490611   17.321938    ( 0.0000,  0.0000,  0.0000)
  67 Li     9.867526    5.239022   17.371255    ( 0.0000,  0.0000,  0.0000)
  68 Li     9.725439    3.488588   19.751672    ( 0.0000,  0.0000,  0.0000)
  69 Li     7.254099    5.240715   19.675672    ( 0.0000,  0.0000,  0.0000)
  70 Li     7.508218    3.498460   22.002114    ( 0.0000,  0.0000,  0.0000)
  71 Li     4.950618    5.246788   22.170373    ( 0.0000,  0.0000,  0.0000)
  72 Li     4.935605    6.980000   10.000000    ( 0.0000,  0.0000,  0.0000)
  73 Li     7.403408    8.725000   10.000000    ( 0.0000,  0.0000,  0.0000)
  74 Li     7.403408    6.980000   12.467803    ( 0.0000,  0.0000,  0.0000)
  75 Li     4.935605    8.725000   12.467803    ( 0.0000,  0.0000,  0.0000)
  76 Li     9.871211    6.980000   14.935605    ( 0.0000,  0.0000,  0.0000)
  77 Li     7.403408    8.725000   14.935605    ( 0.0000,  0.0000,  0.0000)
  78 Li     7.392018    6.980655   17.316621    ( 0.0000,  0.0000,  0.0000)
  79 Li     9.866801    8.726857   17.375006    ( 0.0000,  0.0000,  0.0000)
  80 Li     9.713056    6.982273   19.776998    ( 0.0000,  0.0000,  0.0000)
  81 Li     7.256350    8.739750   19.657914    ( 0.0000,  0.0000,  0.0000)
  82 Li     7.455999    7.025031   22.009970    ( 0.0000,  0.0000,  0.0000)
  83 Li     4.893019    8.792024   22.234421    ( 0.0000,  0.0000,  0.0000)
  84 Li     4.935605   10.470000   10.000000    ( 0.0000,  0.0000,  0.0000)
  85 Li     7.403408   12.215000   10.000000    ( 0.0000,  0.0000,  0.0000)
  86 Li     7.403408   10.470000   12.467803    ( 0.0000,  0.0000,  0.0000)
  87 Li     4.935605   12.215000   12.467803    ( 0.0000,  0.0000,  0.0000)
  88 Li     9.871211   10.470000   14.935605    ( 0.0000,  0.0000,  0.0000)
  89 Li     7.403408   12.215000   14.935605    ( 0.0000,  0.0000,  0.0000)
  90 Li     7.378878   10.470176   17.308509    ( 0.0000,  0.0000,  0.0000)
  91 Li     9.867869   12.210095   17.373641    ( 0.0000,  0.0000,  0.0000)
  92 Li     9.720861   10.467865   19.774472    ( 0.0000,  0.0000,  0.0000)
  93 Li     7.261137   12.196233   19.664430    ( 0.0000,  0.0000,  0.0000)
  94 Li     7.484448   10.453741   22.011141    ( 0.0000,  0.0000,  0.0000)
  95 Li     4.917209   12.130425   22.224507    ( 0.0000,  0.0000,  0.0000)
  96 Li     9.871211    0.000000   10.000000    ( 0.0000,  0.0000,  0.0000)
  97 Li    12.339013    1.745000   10.000000    ( 0.0000,  0.0000,  0.0000)
  98 Li    12.339013    0.000000   12.467803    ( 0.0000,  0.0000,  0.0000)
  99 Li     9.871211    1.745000   12.467803    ( 0.0000,  0.0000,  0.0000)
 100 Li    14.806816    0.000000   14.935605    ( 0.0000,  0.0000,  0.0000)
 101 Li    12.339013    1.745000   14.935605    ( 0.0000,  0.0000,  0.0000)
 102 Li    12.337424   -0.000411   17.336907    ( 0.0000,  0.0000,  0.0000)
 103 Li    14.807603    1.745636   17.334514    ( 0.0000,  0.0000,  0.0000)
 104 Li    14.862838   -0.001363   19.667577    ( 0.0000,  0.0000,  0.0000)
 105 Li    12.283435    1.743929   19.668705    ( 0.0000,  0.0000,  0.0000)
 106 Li     9.871211    3.490000   10.000000    ( 0.0000,  0.0000,  0.0000)
 107 Li    12.339013    5.235000   10.000000    ( 0.0000,  0.0000,  0.0000)
 108 Li    12.339013    3.490000   12.467803    ( 0.0000,  0.0000,  0.0000)
 109 Li     9.871211    5.235000   12.467803    ( 0.0000,  0.0000,  0.0000)
 110 Li    14.806816    3.490000   14.935605    ( 0.0000,  0.0000,  0.0000)
 111 Li    12.339013    5.235000   14.935605    ( 0.0000,  0.0000,  0.0000)
 112 Li    12.336940    3.490531   17.336761    ( 0.0000,  0.0000,  0.0000)
 113 Li    14.808814    5.235601   17.334638    ( 0.0000,  0.0000,  0.0000)
 114 Li    14.858216    3.490384   19.667023    ( 0.0000,  0.0000,  0.0000)
 115 Li    12.283032    5.238708   19.668897    ( 0.0000,  0.0000,  0.0000)
 116 Li     9.871211    6.980000   10.000000    ( 0.0000,  0.0000,  0.0000)
 117 Li    12.339013    8.725000   10.000000    ( 0.0000,  0.0000,  0.0000)
 118 Li    12.339013    6.980000   12.467803    ( 0.0000,  0.0000,  0.0000)
 119 Li     9.871211    8.725000   12.467803    ( 0.0000,  0.0000,  0.0000)
 120 Li    14.806816    6.980000   14.935605    ( 0.0000,  0.0000,  0.0000)
 121 Li    12.339013    8.725000   14.935605    ( 0.0000,  0.0000,  0.0000)
 122 Li    12.338340    6.980255   17.336075    ( 0.0000,  0.0000,  0.0000)
 123 Li    14.802465    8.726396   17.330618    ( 0.0000,  0.0000,  0.0000)
 124 Li    14.870454    6.984417   19.667568    ( 0.0000,  0.0000,  0.0000)
 125 Li    12.283437    8.724739   19.668646    ( 0.0000,  0.0000,  0.0000)
 126 Li     9.871211   10.470000   10.000000    ( 0.0000,  0.0000,  0.0000)
 127 Li    12.339013   12.215000   10.000000    ( 0.0000,  0.0000,  0.0000)
 128 Li    12.339013   10.470000   12.467803    ( 0.0000,  0.0000,  0.0000)
 129 Li     9.871211   12.215000   12.467803    ( 0.0000,  0.0000,  0.0000)
 130 Li    14.806816   10.470000   14.935605    ( 0.0000,  0.0000,  0.0000)
 131 Li    12.339013   12.215000   14.935605    ( 0.0000,  0.0000,  0.0000)
 132 Li    12.339108   10.469594   17.335852    ( 0.0000,  0.0000,  0.0000)
 133 Li    14.806066   12.212394   17.333291    ( 0.0000,  0.0000,  0.0000)
 134 Li    14.869094   10.466581   19.665900    ( 0.0000,  0.0000,  0.0000)
 135 Li    12.283022   12.212617   19.669167    ( 0.0000,  0.0000,  0.0000)
 136 Li    14.806816    0.000000   10.000000    ( 0.0000,  0.0000,  0.0000)
 137 Li    17.274619    1.745000   10.000000    ( 0.0000,  0.0000,  0.0000)
 138 Li    17.274619    0.000000   12.467803    ( 0.0000,  0.0000,  0.0000)
 139 Li    14.806816    1.745000   12.467803    ( 0.0000,  0.0000,  0.0000)
 140 Li    19.742421    0.000000   14.935605    ( 0.0000,  0.0000,  0.0000)
 141 Li    17.274619    1.745000   14.935605    ( 0.0000,  0.0000,  0.0000)
 142 Li    17.272323   -0.011244   17.380013    ( 0.0000,  0.0000,  0.0000)
 143 Li    19.747994    1.739880   17.342689    ( 0.0000,  0.0000,  0.0000)
 144 Li    19.884794   -0.036663   19.711969    ( 0.0000,  0.0000,  0.0000)
 145 Li    17.421441    1.751169   19.751702    ( 0.0000,  0.0000,  0.0000)
 146 Li    14.806816    3.490000   10.000000    ( 0.0000,  0.0000,  0.0000)
 147 Li    17.274619    5.235000   10.000000    ( 0.0000,  0.0000,  0.0000)
 148 Li    17.274619    3.490000   12.467803    ( 0.0000,  0.0000,  0.0000)
 149 Li    14.806816    5.235000   12.467803    ( 0.0000,  0.0000,  0.0000)
 150 Li    19.742421    3.490000   14.935605    ( 0.0000,  0.0000,  0.0000)
 151 Li    17.274619    5.235000   14.935605    ( 0.0000,  0.0000,  0.0000)
 152 Li    17.275202    3.492092   17.365617    ( 0.0000,  0.0000,  0.0000)
 153 Li    19.746740    5.236470   17.332951    ( 0.0000,  0.0000,  0.0000)
 154 Li    19.901008    3.497743   19.702114    ( 0.0000,  0.0000,  0.0000)
 155 Li    17.424922    5.223370   19.765455    ( 0.0000,  0.0000,  0.0000)
 156 Li    14.806816    6.980000   10.000000    ( 0.0000,  0.0000,  0.0000)
 157 Li    17.274619    8.725000   10.000000    ( 0.0000,  0.0000,  0.0000)
 158 Li    17.274619    6.980000   12.467803    ( 0.0000,  0.0000,  0.0000)
 159 Li    14.806816    8.725000   12.467803    ( 0.0000,  0.0000,  0.0000)
 160 Li    19.742421    6.980000   14.935605    ( 0.0000,  0.0000,  0.0000)
 161 Li    17.274619    8.725000   14.935605    ( 0.0000,  0.0000,  0.0000)
 162 Li    17.277555    6.998013   17.395469    ( 0.0000,  0.0000,  0.0000)
 163 Li    19.768779    8.708245   17.300296    ( 0.0000,  0.0000,  0.0000)
 164 Li    19.884491    7.011174   19.694872    ( 0.0000,  0.0000,  0.0000)
 165 Li    17.451198    8.732696   19.853092    ( 0.0000,  0.0000,  0.0000)
 166 Li    14.806816   10.470000   10.000000    ( 0.0000,  0.0000,  0.0000)
 167 Li    17.274619   12.215000   10.000000    ( 0.0000,  0.0000,  0.0000)
 168 Li    17.274619   10.470000   12.467803    ( 0.0000,  0.0000,  0.0000)
 169 Li    14.806816   12.215000   12.467803    ( 0.0000,  0.0000,  0.0000)
 170 Li    19.742421   10.470000   14.935605    ( 0.0000,  0.0000,  0.0000)
 171 Li    17.274619   12.215000   14.935605    ( 0.0000,  0.0000,  0.0000)
 172 Li    17.289604   10.461005   17.399830    ( 0.0000,  0.0000,  0.0000)
 173 Li    19.759299   12.235488   17.304347    ( 0.0000,  0.0000,  0.0000)
 174 Li    19.892789   10.467037   19.632288    ( 0.0000,  0.0000,  0.0000)
 175 Li    17.433665   12.213000   19.809927    ( 0.0000,  0.0000,  0.0000)
 176 Li     2.466391    9.587554   24.232399    ( 0.0000,  0.0000,  0.0000)

Unit cell:
           periodic     x           y           z      points  spacing
  1. axis:    yes   19.742421    0.000000    0.000000   100     0.1974
  2. axis:    yes    0.000000   13.960000    0.000000    68     0.2053
  3. axis:    no     0.000000    0.000000   32.339013   160     0.2021

  Lengths:  19.742421  13.960000  32.339013
  Angles:   90.000000  90.000000  90.000000

Effective grid spacing dv^(1/3) = 0.2016

     iter     time        total  log10-change:
                         energy   eigst   dens
iter:   1 08:59:25  -310.479636        c
iter:   2 09:00:28  -310.479897        c -3.28
iter:   3 09:01:17  -310.479666c       c -3.47
iter:   4 09:02:01  -310.479647c       c -3.65
iter:   5 09:02:54  -310.479618c       c -3.97
iter:   6 09:03:42  -310.479614c       c -4.23c

Converged after 6 iterations.

Dipole moment: (-39.788939, -16.415711, 0.765597) |e|*Ang

Energy contributions relative to reference atoms: (reference = -35893.444183)

Kinetic:       +329.187714
Potential:     -279.936471
External:        +0.000000
XC:            -354.591451
Entropy (-ST):   -5.745355
Local:           -2.266728
SIC:             +0.000000
--------------------------
Free energy:   -313.352292
Extrapolated:  -310.479614

Showing all kpts
 Kpt  Band  Eigenvalues  Occupancy
  0    86     -2.88785    1.13890
  0    87     -2.87212    1.08716
  0    88     -2.84190    0.98666
  0    89     -2.83240    0.95502

  1    86     -2.88771    1.13845
  1    87     -2.87205    1.08692
  1    88     -2.84321    0.99102
  1    89     -2.83103    0.95046


Fermi level: -2.84591

Gap: 0.029 eV
Transition (v -> c):
  (s=0, k=1, n=87, [0.25, 0.25, 0.00]) -> (s=0, k=1, n=88, [0.25, 0.25, 0.00])
No difference between direct/indirect transitions
