
  ___ ___ ___ _ _ _  
 |   |   |_  | | | | 
 | | | | | . | | | | 
 |__ |  _|___|_____|  25.7.0
 |___|_|             

User:   tew@Mathuss-MacBook-Air-357.local
Date:   Tue Nov 25 21:28:44 2025
Arch:   arm64
Pid:    56558
CWD:    /Users/tew/Documents/Project/GitHub/chem-com/step
Python: 3.13.5
gpaw:   /Users/tew/Documents/Project/GitHub/chem-com/.venv/lib/python3.13/site-packages/gpaw
_gpaw:  /Users/tew/Documents/Project/GitHub/chem-com/.venv/lib/python3.13/site-packages/
        _gpaw.cpython-313-darwin.so
ase:    /Users/tew/Documents/Project/GitHub/chem-com/.venv/lib/python3.13/site-packages/ase (version 3.26.0)
numpy:  /Users/tew/Documents/Project/GitHub/chem-com/.venv/lib/python3.13/site-packages/numpy (version 2.3.5)
scipy:  /Users/tew/Documents/Project/GitHub/chem-com/.venv/lib/python3.13/site-packages/scipy (version 1.16.3)
libxc:  2.x.y
units:  Angstrom and eV
cores: 1
OpenMP: False
OMP_NUM_THREADS: 1

Input parameters:
  basis: dzp
  convergence: {density: 0.0001,
                eigenstates: 5e-06}
  kpts: [2 2 1]
  mode: {interpolation: 3,
         name: lcao}
  occupations: {fixmagmom: False,
                name: fermi-dirac,
                width: 0.15}
  xc: PBE

System changes: positions, numbers, cell, pbc, initial_charges, initial_magmoms 

Initialize ...

species:
  Li:
    name: Lithium
    id: 830b4218f175192f93f959cfc0aad614
    Z: 3.0
    valence: 1
    core: 2
    charge: 0.0
    file: /Users/tew/Documents/Project/GitHub/chem-com/.venv/lib/python3.13/site-packages/gpaw_data/setups/Li.PBE.gz
    compensation charges: {type: gauss,
                           rc: 0.33,
                           lmax: 2}
    cutoffs: {filter: 1.91,
              core: 2.55}
    projectors:
      #              energy  rcut
      - 2s(1.00)    -2.874   1.058
      - 2p(0.00)    -1.090   1.058
      -  s          24.337   1.058
  
    # LCAO basis set for Li:
    #   Name: dzp
    #   File: /Users/tew/Documents/Project/GitHub/chem-com/.venv/lib/python3.13/site-packages/gpaw_data/setups/Li.dzp.basis.gz
    #   Number of radial functions: 3
    #   Number of spherical harmonics: 5
    #     l=0, rc=10.8906 Bohr: 2s-sz confined orbital
    #     l=0, rc=6.6719 Bohr: 2s-dz split-valence wave
    #     l=1, rc=10.8906 Bohr: p-type Gaussian polarization
    #   Number of RI-basis functions 0

Reference energy: -35893.444183  # eV

Spin-paired calculation

Convergence criteria:
 Maximum [total energy] change in last 3 cyles: 0.0005 eV / valence electron
 Maximum integral of absolute [dens]ity change: 0.0001 electrons / valence electron
 Maximum integral of absolute [eigenst]ate change: 5e-06 eV^2 / valence electron
 Maximum number of scf [iter]ations: 333
 (Square brackets indicate name in SCF output, whereas a 'c' in
 the SCF output indicates the quantity has converged.)

Symmetries present (total): 1

  ( 1  0  0)
  ( 0  1  0)
  ( 0  0  1)

4 k-points: 2 x 2 x 1 Monkhorst-Pack grid
2 k-points in the irreducible part of the Brillouin zone
       k-points in crystal coordinates                weights
   0:     0.25000000   -0.25000000    0.00000000          2/4
   1:     0.25000000    0.25000000    0.00000000          2/4

Wave functions: LCAO
  Diagonalizer: Serial LAPACK
  Atomic Correction: dense with blas
  Data-type: complex
 

Occupation numbers: Fermi-Dirac:
  width: 0.1500  # eV
 

Eigensolver
   LCAO using direct dense diagonalizer 

Densities:
  Coarse grid: 100*68*160 grid
  Fine grid: 200*136*320 grid
  Total Charge: 0.000000 

Density mixing:
  Method: separate
  Backend: pulay
  Linear mixing parameter: 0.05
  old densities: 5
  Damping of long wavelength oscillations: 50 

Hamiltonian:
  XC and Coulomb potentials evaluated on a 200*136*320 grid
  Using the PBE Exchange-Correlation functional
  Interpolation: tri-quintic (5. degree polynomial)
  Poisson solver: FastPoissonSolver using
    Stencil: 6*3+1=19 point O(h^6) finite-difference Laplacian
    FFT axes: [np.int64(0), np.int64(1)]
    FST axes: [np.int64(2)]
 

XC parameters: PBE with 2 nearest neighbor stencil

Memory estimate:
  Process memory now: 3261.38 MiB
  Calculator: 1570.72 MiB
    Density: 780.53 MiB
      Arrays: 215.09 MiB
      Localized functions: 482.94 MiB
      Mixer: 82.49 MiB
    Hamiltonian: 178.84 MiB
      Arrays: 140.65 MiB
      XC: 0.00 MiB
      Poisson: 0.00 MiB
      vbar: 38.19 MiB
    Wavefunctions: 611.36 MiB
      C [qnM]: 3.00 MiB
      S, T [2 x qmm]: 47.80 MiB
      P [aqMi]: 1.49 MiB
      BasisFunctions: 559.07 MiB
      Eigensolver: 0.00 MiB

Total number of cores used: 1

Number of atoms: 177
Number of atomic orbitals: 885
Number of bands in calculation: 111
Number of valence electrons: 177
Bands to converge: occupied

... initialized

Initializing position-dependent things.

Density initialized from atomic densities
          .------------------------------------------------.  
         /|                                                |  
        / |                                                |  
       /  |                                                |  
      /   |                                                |  
     /    |                                                |  
    /     |                                                |  
   /      |                                                |  
  /       |                                                |  
 *        |                                                |  
 |        |                                                |  
 |        |                                                |  
 |        |   Li                                           |  
 |       Li          Li                                    |  
 |        |                                                |  
 |        |   Li          Li                               |  
 |     Li |        Li                                      |  
 |        | Li Li       Li Li          Li           Li     |  
 |  Li  Li|      Li Li          Li           Li            |  
 |       Li  Li       Li Li          Li           Li       |  
 |Li Li  Li   Li  Li Li       Li Li       Li  Li           |  
 |     Li Li  Li   Li  Li Li       Li Li       Li  Li      |  
 | Li  Li |    Li  Li       Li Li       Li Li              |  
 |      Li| Li Li    Li Li Li    Li Li Li    Li Li  Li     |  
 Li Li  Li|  Li  Li Li   Li  Li Li    Li Li  Li            |  
 |       Li  Li       Li Li       Li Li       Li  Li       |  
 |Li Li  Li   Li  Li Li    Li Li Li    Li Li  Li           |  
 |     Li Li  Li   Li  Li Li    Li Li Li    Li Li  Li      |  
 | Li  Li |    Li  Li       Li Li       Li Li              |  
 |      Li| Li Li    Li Li Li    Li Li Li    Li Li  Li     |  
 |  Li  Li|      Li Li       Li Li       Li  Li            |  
 Li      Li  Li       Li Li       Li LLi      Li  Li       |  
 |Li Li   |   Li  Li       Li Li       Li Li               |  
 |        Li           Li          Li          Li          |  
 | Li  Li |    Li  Li       Li  Li      Li  Li             |  
 |        |                                                |  
 |      Li|          Li          Li          Li            |  
 Li       |  Li          Li           Li                   |  
 |        |                                                |  
 |        |                                                |  
 |        .------------------------------------------------.  
 |       /                                                /   
 |      /                                                /    
 |     /                                                /     
 |    /                                                /      
 |   /                                                /       
 |  /                                                /        
 | /                                                /         
 |/                                                /          
 *------------------------------------------------*           

Atomic positions and initial magnetic moments

Positions:
   0 Li     0.000000    0.000000   10.000000    ( 0.0000,  0.0000,  0.0000)
   1 Li     2.467803    1.745000   10.000000    ( 0.0000,  0.0000,  0.0000)
   2 Li     2.467803    0.000000   12.467803    ( 0.0000,  0.0000,  0.0000)
   3 Li     0.000000    1.745000   12.467803    ( 0.0000,  0.0000,  0.0000)
   4 Li     4.935605    0.000000   14.935605    ( 0.0000,  0.0000,  0.0000)
   5 Li     2.467803    1.745000   14.935605    ( 0.0000,  0.0000,  0.0000)
   6 Li     2.467803    0.000000   17.403408    ( 0.0000,  0.0000,  0.0000)
   7 Li     4.935605    1.745000   17.403408    ( 0.0000,  0.0000,  0.0000)
   8 Li     4.935605    0.000000   19.871211    ( 0.0000,  0.0000,  0.0000)
   9 Li     2.467803    1.745000   19.871211    ( 0.0000,  0.0000,  0.0000)
  10 Li     2.467803    0.000000   22.339013    ( 0.0000,  0.0000,  0.0000)
  11 Li     0.000000    1.745000   22.339013    ( 0.0000,  0.0000,  0.0000)
  12 Li     0.000000    3.490000   10.000000    ( 0.0000,  0.0000,  0.0000)
  13 Li     2.467803    5.235000   10.000000    ( 0.0000,  0.0000,  0.0000)
  14 Li     2.467803    3.490000   12.467803    ( 0.0000,  0.0000,  0.0000)
  15 Li     0.000000    5.235000   12.467803    ( 0.0000,  0.0000,  0.0000)
  16 Li     4.935605    3.490000   14.935605    ( 0.0000,  0.0000,  0.0000)
  17 Li     2.467803    5.235000   14.935605    ( 0.0000,  0.0000,  0.0000)
  18 Li     2.467803    3.490000   17.403408    ( 0.0000,  0.0000,  0.0000)
  19 Li     4.935605    5.235000   17.403408    ( 0.0000,  0.0000,  0.0000)
  20 Li     4.935605    3.490000   19.871211    ( 0.0000,  0.0000,  0.0000)
  21 Li     2.467803    5.235000   19.871211    ( 0.0000,  0.0000,  0.0000)
  22 Li     2.467803    3.490000   22.339013    ( 0.0000,  0.0000,  0.0000)
  23 Li     0.000000    5.235000   22.339013    ( 0.0000,  0.0000,  0.0000)
  24 Li     0.000000    6.980000   10.000000    ( 0.0000,  0.0000,  0.0000)
  25 Li     2.467803    8.725000   10.000000    ( 0.0000,  0.0000,  0.0000)
  26 Li     2.467803    6.980000   12.467803    ( 0.0000,  0.0000,  0.0000)
  27 Li     0.000000    8.725000   12.467803    ( 0.0000,  0.0000,  0.0000)
  28 Li     4.935605    6.980000   14.935605    ( 0.0000,  0.0000,  0.0000)
  29 Li     2.467803    8.725000   14.935605    ( 0.0000,  0.0000,  0.0000)
  30 Li     2.467803    6.980000   17.403408    ( 0.0000,  0.0000,  0.0000)
  31 Li     4.935605    8.725000   17.403408    ( 0.0000,  0.0000,  0.0000)
  32 Li     4.935605    6.980000   19.871211    ( 0.0000,  0.0000,  0.0000)
  33 Li     2.467803    8.725000   19.871211    ( 0.0000,  0.0000,  0.0000)
  34 Li     2.467803    6.980000   22.339013    ( 0.0000,  0.0000,  0.0000)
  35 Li     0.000000    8.725000   22.339013    ( 0.0000,  0.0000,  0.0000)
  36 Li     0.000000   10.470000   10.000000    ( 0.0000,  0.0000,  0.0000)
  37 Li     2.467803   12.215000   10.000000    ( 0.0000,  0.0000,  0.0000)
  38 Li     2.467803   10.470000   12.467803    ( 0.0000,  0.0000,  0.0000)
  39 Li     0.000000   12.215000   12.467803    ( 0.0000,  0.0000,  0.0000)
  40 Li     4.935605   10.470000   14.935605    ( 0.0000,  0.0000,  0.0000)
  41 Li     2.467803   12.215000   14.935605    ( 0.0000,  0.0000,  0.0000)
  42 Li     2.467803   10.470000   17.403408    ( 0.0000,  0.0000,  0.0000)
  43 Li     4.935605   12.215000   17.403408    ( 0.0000,  0.0000,  0.0000)
  44 Li     4.935605   10.470000   19.871211    ( 0.0000,  0.0000,  0.0000)
  45 Li     2.467803   12.215000   19.871211    ( 0.0000,  0.0000,  0.0000)
  46 Li     2.467803   10.470000   22.339013    ( 0.0000,  0.0000,  0.0000)
  47 Li     0.000000   12.215000   22.339013    ( 0.0000,  0.0000,  0.0000)
  48 Li     4.935605    0.000000   10.000000    ( 0.0000,  0.0000,  0.0000)
  49 Li     7.403408    1.745000   10.000000    ( 0.0000,  0.0000,  0.0000)
  50 Li     7.403408    0.000000   12.467803    ( 0.0000,  0.0000,  0.0000)
  51 Li     4.935605    1.745000   12.467803    ( 0.0000,  0.0000,  0.0000)
  52 Li     9.871211    0.000000   14.935605    ( 0.0000,  0.0000,  0.0000)
  53 Li     7.403408    1.745000   14.935605    ( 0.0000,  0.0000,  0.0000)
  54 Li     7.403408    0.000000   17.403408    ( 0.0000,  0.0000,  0.0000)
  55 Li     9.871211    1.745000   17.403408    ( 0.0000,  0.0000,  0.0000)
  56 Li     9.871211    0.000000   19.871211    ( 0.0000,  0.0000,  0.0000)
  57 Li     7.403408    1.745000   19.871211    ( 0.0000,  0.0000,  0.0000)
  58 Li     7.403408    0.000000   22.339013    ( 0.0000,  0.0000,  0.0000)
  59 Li     4.935605    1.745000   22.339013    ( 0.0000,  0.0000,  0.0000)
  60 Li     4.935605    3.490000   10.000000    ( 0.0000,  0.0000,  0.0000)
  61 Li     7.403408    5.235000   10.000000    ( 0.0000,  0.0000,  0.0000)
  62 Li     7.403408    3.490000   12.467803    ( 0.0000,  0.0000,  0.0000)
  63 Li     4.935605    5.235000   12.467803    ( 0.0000,  0.0000,  0.0000)
  64 Li     9.871211    3.490000   14.935605    ( 0.0000,  0.0000,  0.0000)
  65 Li     7.403408    5.235000   14.935605    ( 0.0000,  0.0000,  0.0000)
  66 Li     7.403408    3.490000   17.403408    ( 0.0000,  0.0000,  0.0000)
  67 Li     9.871211    5.235000   17.403408    ( 0.0000,  0.0000,  0.0000)
  68 Li     9.871211    3.490000   19.871211    ( 0.0000,  0.0000,  0.0000)
  69 Li     7.403408    5.235000   19.871211    ( 0.0000,  0.0000,  0.0000)
  70 Li     7.403408    3.490000   22.339013    ( 0.0000,  0.0000,  0.0000)
  71 Li     4.935605    5.235000   22.339013    ( 0.0000,  0.0000,  0.0000)
  72 Li     4.935605    6.980000   10.000000    ( 0.0000,  0.0000,  0.0000)
  73 Li     7.403408    8.725000   10.000000    ( 0.0000,  0.0000,  0.0000)
  74 Li     7.403408    6.980000   12.467803    ( 0.0000,  0.0000,  0.0000)
  75 Li     4.935605    8.725000   12.467803    ( 0.0000,  0.0000,  0.0000)
  76 Li     9.871211    6.980000   14.935605    ( 0.0000,  0.0000,  0.0000)
  77 Li     7.403408    8.725000   14.935605    ( 0.0000,  0.0000,  0.0000)
  78 Li     7.403408    6.980000   17.403408    ( 0.0000,  0.0000,  0.0000)
  79 Li     9.871211    8.725000   17.403408    ( 0.0000,  0.0000,  0.0000)
  80 Li     9.871211    6.980000   19.871211    ( 0.0000,  0.0000,  0.0000)
  81 Li     7.403408    8.725000   19.871211    ( 0.0000,  0.0000,  0.0000)
  82 Li     7.403408    6.980000   22.339013    ( 0.0000,  0.0000,  0.0000)
  83 Li     4.935605    8.725000   22.339013    ( 0.0000,  0.0000,  0.0000)
  84 Li     4.935605   10.470000   10.000000    ( 0.0000,  0.0000,  0.0000)
  85 Li     7.403408   12.215000   10.000000    ( 0.0000,  0.0000,  0.0000)
  86 Li     7.403408   10.470000   12.467803    ( 0.0000,  0.0000,  0.0000)
  87 Li     4.935605   12.215000   12.467803    ( 0.0000,  0.0000,  0.0000)
  88 Li     9.871211   10.470000   14.935605    ( 0.0000,  0.0000,  0.0000)
  89 Li     7.403408   12.215000   14.935605    ( 0.0000,  0.0000,  0.0000)
  90 Li     7.403408   10.470000   17.403408    ( 0.0000,  0.0000,  0.0000)
  91 Li     9.871211   12.215000   17.403408    ( 0.0000,  0.0000,  0.0000)
  92 Li     9.871211   10.470000   19.871211    ( 0.0000,  0.0000,  0.0000)
  93 Li     7.403408   12.215000   19.871211    ( 0.0000,  0.0000,  0.0000)
  94 Li     7.403408   10.470000   22.339013    ( 0.0000,  0.0000,  0.0000)
  95 Li     4.935605   12.215000   22.339013    ( 0.0000,  0.0000,  0.0000)
  96 Li     9.871211    0.000000   10.000000    ( 0.0000,  0.0000,  0.0000)
  97 Li    12.339013    1.745000   10.000000    ( 0.0000,  0.0000,  0.0000)
  98 Li    12.339013    0.000000   12.467803    ( 0.0000,  0.0000,  0.0000)
  99 Li     9.871211    1.745000   12.467803    ( 0.0000,  0.0000,  0.0000)
 100 Li    14.806816    0.000000   14.935605    ( 0.0000,  0.0000,  0.0000)
 101 Li    12.339013    1.745000   14.935605    ( 0.0000,  0.0000,  0.0000)
 102 Li    12.339013    0.000000   17.403408    ( 0.0000,  0.0000,  0.0000)
 103 Li    14.806816    1.745000   17.403408    ( 0.0000,  0.0000,  0.0000)
 104 Li    14.806816    0.000000   19.871211    ( 0.0000,  0.0000,  0.0000)
 105 Li    12.339013    1.745000   19.871211    ( 0.0000,  0.0000,  0.0000)
 106 Li     9.871211    3.490000   10.000000    ( 0.0000,  0.0000,  0.0000)
 107 Li    12.339013    5.235000   10.000000    ( 0.0000,  0.0000,  0.0000)
 108 Li    12.339013    3.490000   12.467803    ( 0.0000,  0.0000,  0.0000)
 109 Li     9.871211    5.235000   12.467803    ( 0.0000,  0.0000,  0.0000)
 110 Li    14.806816    3.490000   14.935605    ( 0.0000,  0.0000,  0.0000)
 111 Li    12.339013    5.235000   14.935605    ( 0.0000,  0.0000,  0.0000)
 112 Li    12.339013    3.490000   17.403408    ( 0.0000,  0.0000,  0.0000)
 113 Li    14.806816    5.235000   17.403408    ( 0.0000,  0.0000,  0.0000)
 114 Li    14.806816    3.490000   19.871211    ( 0.0000,  0.0000,  0.0000)
 115 Li    12.339013    5.235000   19.871211    ( 0.0000,  0.0000,  0.0000)
 116 Li     9.871211    6.980000   10.000000    ( 0.0000,  0.0000,  0.0000)
 117 Li    12.339013    8.725000   10.000000    ( 0.0000,  0.0000,  0.0000)
 118 Li    12.339013    6.980000   12.467803    ( 0.0000,  0.0000,  0.0000)
 119 Li     9.871211    8.725000   12.467803    ( 0.0000,  0.0000,  0.0000)
 120 Li    14.806816    6.980000   14.935605    ( 0.0000,  0.0000,  0.0000)
 121 Li    12.339013    8.725000   14.935605    ( 0.0000,  0.0000,  0.0000)
 122 Li    12.339013    6.980000   17.403408    ( 0.0000,  0.0000,  0.0000)
 123 Li    14.806816    8.725000   17.403408    ( 0.0000,  0.0000,  0.0000)
 124 Li    14.806816    6.980000   19.871211    ( 0.0000,  0.0000,  0.0000)
 125 Li    12.339013    8.725000   19.871211    ( 0.0000,  0.0000,  0.0000)
 126 Li     9.871211   10.470000   10.000000    ( 0.0000,  0.0000,  0.0000)
 127 Li    12.339013   12.215000   10.000000    ( 0.0000,  0.0000,  0.0000)
 128 Li    12.339013   10.470000   12.467803    ( 0.0000,  0.0000,  0.0000)
 129 Li     9.871211   12.215000   12.467803    ( 0.0000,  0.0000,  0.0000)
 130 Li    14.806816   10.470000   14.935605    ( 0.0000,  0.0000,  0.0000)
 131 Li    12.339013   12.215000   14.935605    ( 0.0000,  0.0000,  0.0000)
 132 Li    12.339013   10.470000   17.403408    ( 0.0000,  0.0000,  0.0000)
 133 Li    14.806816   12.215000   17.403408    ( 0.0000,  0.0000,  0.0000)
 134 Li    14.806816   10.470000   19.871211    ( 0.0000,  0.0000,  0.0000)
 135 Li    12.339013   12.215000   19.871211    ( 0.0000,  0.0000,  0.0000)
 136 Li    14.806816    0.000000   10.000000    ( 0.0000,  0.0000,  0.0000)
 137 Li    17.274619    1.745000   10.000000    ( 0.0000,  0.0000,  0.0000)
 138 Li    17.274619    0.000000   12.467803    ( 0.0000,  0.0000,  0.0000)
 139 Li    14.806816    1.745000   12.467803    ( 0.0000,  0.0000,  0.0000)
 140 Li    19.742421    0.000000   14.935605    ( 0.0000,  0.0000,  0.0000)
 141 Li    17.274619    1.745000   14.935605    ( 0.0000,  0.0000,  0.0000)
 142 Li    17.274619    0.000000   17.403408    ( 0.0000,  0.0000,  0.0000)
 143 Li    19.742421    1.745000   17.403408    ( 0.0000,  0.0000,  0.0000)
 144 Li    19.742421    0.000000   19.871211    ( 0.0000,  0.0000,  0.0000)
 145 Li    17.274619    1.745000   19.871211    ( 0.0000,  0.0000,  0.0000)
 146 Li    14.806816    3.490000   10.000000    ( 0.0000,  0.0000,  0.0000)
 147 Li    17.274619    5.235000   10.000000    ( 0.0000,  0.0000,  0.0000)
 148 Li    17.274619    3.490000   12.467803    ( 0.0000,  0.0000,  0.0000)
 149 Li    14.806816    5.235000   12.467803    ( 0.0000,  0.0000,  0.0000)
 150 Li    19.742421    3.490000   14.935605    ( 0.0000,  0.0000,  0.0000)
 151 Li    17.274619    5.235000   14.935605    ( 0.0000,  0.0000,  0.0000)
 152 Li    17.274619    3.490000   17.403408    ( 0.0000,  0.0000,  0.0000)
 153 Li    19.742421    5.235000   17.403408    ( 0.0000,  0.0000,  0.0000)
 154 Li    19.742421    3.490000   19.871211    ( 0.0000,  0.0000,  0.0000)
 155 Li    17.274619    5.235000   19.871211    ( 0.0000,  0.0000,  0.0000)
 156 Li    14.806816    6.980000   10.000000    ( 0.0000,  0.0000,  0.0000)
 157 Li    17.274619    8.725000   10.000000    ( 0.0000,  0.0000,  0.0000)
 158 Li    17.274619    6.980000   12.467803    ( 0.0000,  0.0000,  0.0000)
 159 Li    14.806816    8.725000   12.467803    ( 0.0000,  0.0000,  0.0000)
 160 Li    19.742421    6.980000   14.935605    ( 0.0000,  0.0000,  0.0000)
 161 Li    17.274619    8.725000   14.935605    ( 0.0000,  0.0000,  0.0000)
 162 Li    17.274619    6.980000   17.403408    ( 0.0000,  0.0000,  0.0000)
 163 Li    19.742421    8.725000   17.403408    ( 0.0000,  0.0000,  0.0000)
 164 Li    19.742421    6.980000   19.871211    ( 0.0000,  0.0000,  0.0000)
 165 Li    17.274619    8.725000   19.871211    ( 0.0000,  0.0000,  0.0000)
 166 Li    14.806816   10.470000   10.000000    ( 0.0000,  0.0000,  0.0000)
 167 Li    17.274619   12.215000   10.000000    ( 0.0000,  0.0000,  0.0000)
 168 Li    17.274619   10.470000   12.467803    ( 0.0000,  0.0000,  0.0000)
 169 Li    14.806816   12.215000   12.467803    ( 0.0000,  0.0000,  0.0000)
 170 Li    19.742421   10.470000   14.935605    ( 0.0000,  0.0000,  0.0000)
 171 Li    17.274619   12.215000   14.935605    ( 0.0000,  0.0000,  0.0000)
 172 Li    17.274619   10.470000   17.403408    ( 0.0000,  0.0000,  0.0000)
 173 Li    19.742421   12.215000   17.403408    ( 0.0000,  0.0000,  0.0000)
 174 Li    19.742421   10.470000   19.871211    ( 0.0000,  0.0000,  0.0000)
 175 Li    17.274619   12.215000   19.871211    ( 0.0000,  0.0000,  0.0000)
 176 Li     2.467803   10.470000   24.339013    ( 0.0000,  0.0000,  0.0000)

Unit cell:
           periodic     x           y           z      points  spacing
  1. axis:    yes   19.742421    0.000000    0.000000   100     0.1974
  2. axis:    yes    0.000000   13.960000    0.000000    68     0.2053
  3. axis:    no     0.000000    0.000000   32.339013   160     0.2021

  Lengths:  19.742421  13.960000  32.339013
  Angles:   90.000000  90.000000  90.000000

Effective grid spacing dv^(1/3) = 0.2016

     iter     time        total  log10-change:
                         energy   eigst   dens
iter:   1 21:29:07  -326.409755        c
iter:   2 21:29:36  -316.141378        c -0.67
iter:   3 21:30:06  -314.113154        c -0.88
iter:   4 21:30:36  -313.041922        c -0.94
iter:   5 21:31:06  -310.779173        c -0.98
iter:   6 21:31:36  -310.035489        c -1.19
iter:   7 21:32:06  -309.697801        c -1.30
iter:   8 21:32:35  -309.487084        c -1.42
iter:   9 21:33:04  -309.402834        c -1.60
iter:  10 21:33:33  -309.379653        c -1.73
iter:  11 21:34:03  -309.355278c       c -1.79
iter:  12 21:34:33  -309.335768c       c -1.87
iter:  13 21:35:03  -309.325527c       c -1.98
iter:  14 21:35:32  -309.320763c       c -2.09
iter:  15 21:36:01  -309.319356c       c -2.18
iter:  16 21:36:30  -309.317563c       c -2.26
iter:  17 21:37:00  -309.316844c       c -2.33
iter:  18 21:37:29  -309.315206c       c -2.40
iter:  19 21:37:59  -309.313917c       c -2.48
iter:  20 21:38:27  -309.313557c       c -2.57
iter:  21 21:38:56  -309.313043c       c -2.64
iter:  22 21:39:25  -309.313162c       c -2.72
iter:  23 21:39:53  -309.312936c       c -2.80
iter:  24 21:40:22  -309.312819c       c -2.81
iter:  25 21:40:51  -309.312725c       c -2.92
iter:  26 21:41:22  -309.312511c       c -2.98
iter:  27 21:41:52  -309.312543c       c -3.07
iter:  28 21:42:21  -309.312477c       c -3.13
iter:  29 21:42:49  -309.312598c       c -3.21
iter:  30 21:43:17  -309.312556c       c -3.21
iter:  31 21:43:46  -309.312549c       c -3.31
iter:  32 21:44:17  -309.312557c       c -3.38
iter:  33 21:44:48  -309.312496c       c -3.47
iter:  34 21:45:20  -309.312496c       c -3.55
iter:  35 21:45:51  -309.312460c       c -3.64
iter:  36 21:46:20  -309.312465c       c -3.67
iter:  37 21:46:49  -309.312464c       c -3.73
iter:  38 21:47:19  -309.312455c       c -3.83
iter:  39 21:47:48  -309.312467c       c -3.92
iter:  40 21:48:16  -309.312458c       c -4.01c

Converged after 40 iterations.

Dipole moment: (-31.190310, -19.752010, 0.677191) |e|*Ang

Energy contributions relative to reference atoms: (reference = -35893.444183)

Kinetic:       +317.945180
Potential:     -272.868947
External:        +0.000000
XC:            -349.330678
Entropy (-ST):   -5.783030
Local:           -2.166498
SIC:             +0.000000
--------------------------
Free energy:   -312.203973
Extrapolated:  -309.312458

Showing all kpts
 Kpt  Band  Eigenvalues  Occupancy
  0    86     -2.91022    1.14808
  0    87     -2.86535    0.99962
  0    88     -2.86030    0.98278
  0    89     -2.85213    0.95559

  1    86     -2.91022    1.14808
  1    87     -2.86535    0.99962
  1    88     -2.86030    0.98278
  1    89     -2.85213    0.95559


Fermi level: -2.86547

Gap: 0.045 eV
Transition (v -> c):
  (s=0, k=1, n=86, [0.25, 0.25, 0.00]) -> (s=0, k=0, n=87, [0.25, -0.25, 0.00])
Direct/indirect transitions are different
Direct gap: 0.045 eV
Transition at: (s=0, k=0, n=86, [0.25, -0.25, 0.00])

Forces in eV/Ang:
  0 Li   -0.00048   -0.00123    0.12508
  1 Li   -0.00341   -0.00180    0.12470
  2 Li    0.00062   -0.00074   -0.05545
  3 Li    0.00020   -0.00001   -0.06027
  4 Li   -0.00034    0.00314   -0.02225
  5 Li    0.00175    0.00217   -0.02209
  6 Li   -0.00676    0.00656    0.00654
  7 Li    0.00705   -0.00148    0.01826
  8 Li    0.00723   -0.00329    0.07057
  9 Li   -0.00702   -0.00680    0.07787
 10 Li   -0.01106   -0.12209   -0.02787
 11 Li   -0.09441    0.00340   -0.13789
 12 Li   -0.00078   -0.00000    0.12568
 13 Li   -0.00341    0.00180    0.12470
 14 Li    0.00086    0.00000   -0.06078
 15 Li    0.00020    0.00001   -0.06027
 16 Li   -0.00286   -0.00000   -0.01841
 17 Li    0.00175   -0.00217   -0.02209
 18 Li   -0.00923    0.00000    0.01802
 19 Li    0.00705    0.00148    0.01826
 20 Li    0.00389    0.00000    0.07382
 21 Li   -0.00702    0.00680    0.07787
 22 Li   -0.01356    0.00000   -0.12750
 23 Li   -0.09441   -0.00340   -0.13789
 24 Li   -0.00048    0.00123    0.12508
 25 Li   -0.00311    0.00027    0.12170
 26 Li    0.00062    0.00074   -0.05545
 27 Li    0.00094    0.00050   -0.05533
 28 Li   -0.00034   -0.00314   -0.02225
 29 Li    0.00159   -0.00197   -0.01147
 30 Li   -0.00676   -0.00656    0.00654
 31 Li    0.01317   -0.00491    0.01070
 32 Li    0.00723    0.00329    0.07057
 33 Li   -0.00575   -0.00509    0.02138
 34 Li   -0.01106    0.12209   -0.02787
 35 Li    0.03553    0.09796   -0.00718
 36 Li   -0.00106   -0.00000    0.12305
 37 Li   -0.00311   -0.00027    0.12170
 38 Li    0.00048   -0.00000   -0.05522
 39 Li    0.00094   -0.00050   -0.05533
 40 Li    0.00014   -0.00000   -0.01610
 41 Li    0.00159    0.00197   -0.01147
 42 Li   -0.00552   -0.00000    0.02680
 43 Li    0.01317    0.00491    0.01070
 44 Li    0.01088   -0.00000    0.04016
 45 Li   -0.00575    0.00509    0.02138
 46 Li   -0.02156   -0.00000   -2.20590
 47 Li    0.03553   -0.09796   -0.00718
 48 Li    0.00185   -0.00140    0.12607
 49 Li    0.00134   -0.00086    0.12497
 50 Li   -0.00022   -0.00005   -0.05934
 51 Li   -0.00076    0.00047   -0.06158
 52 Li    0.00498   -0.00010   -0.00965
 53 Li    0.00183    0.00044   -0.01674
 54 Li   -0.00766   -0.00049    0.01382
 55 Li    0.00517   -0.00027    0.03620
 56 Li   -0.09115    0.00036   -0.01198
 57 Li   -0.07032   -0.00040   -0.02112
 58 Li    0.09210   -0.00101   -0.14085
 59 Li    0.01180    0.00329   -0.12278
 60 Li    0.00239   -0.00000    0.12598
 61 Li    0.00134    0.00086    0.12497
 62 Li    0.00017   -0.00000   -0.05861
 63 Li   -0.00076   -0.00047   -0.06158
 64 Li    0.00401    0.00000   -0.00805
 65 Li    0.00183   -0.00044   -0.01674
 66 Li   -0.00902    0.00000    0.01607
 67 Li    0.00517    0.00027    0.03620
 68 Li   -0.09283   -0.00000   -0.01035
 69 Li   -0.07032    0.00040   -0.02112
 70 Li    0.09272    0.00000   -0.13838
 71 Li    0.01180   -0.00329   -0.12278
 72 Li    0.00185    0.00140    0.12607
 73 Li   -0.00018    0.00052    0.12405
 74 Li   -0.00022    0.00005   -0.05934
 75 Li   -0.00155    0.00023   -0.05640
 76 Li    0.00498    0.00010   -0.00965
 77 Li    0.00369   -0.00041   -0.01920
 78 Li   -0.00766    0.00049    0.01382
 79 Li    0.00524    0.00011    0.03544
 80 Li   -0.09115   -0.00036   -0.01198
 81 Li   -0.07438    0.00145   -0.01891
 82 Li    0.09210    0.00101   -0.14085
 83 Li   -0.10959    0.08906   -0.00550
 84 Li    0.00232   -0.00000    0.12376
 85 Li   -0.00018   -0.00052    0.12405
 86 Li   -0.00032   -0.00000   -0.05850
 87 Li   -0.00155   -0.00023   -0.05640
 88 Li    0.00414    0.00000   -0.00862
 89 Li    0.00369    0.00041   -0.01920
 90 Li   -0.00853    0.00000    0.01474
 91 Li    0.00524   -0.00011    0.03544
 92 Li   -0.09596   -0.00000   -0.00959
 93 Li   -0.07438   -0.00145   -0.01891
 94 Li    0.08479   -0.00000   -0.12677
 95 Li   -0.10959   -0.08906   -0.00550
 96 Li    0.00021    0.00002    0.12324
 97 Li    0.00053    0.00025    0.12282
 98 Li    0.00134    0.00007   -0.05918
 99 Li    0.00165    0.00065   -0.05628
100 Li   -0.00395   -0.00009   -0.00309
101 Li    0.00407   -0.00004   -0.00249
102 Li   -0.00796   -0.00021    0.06265
103 Li    0.00882   -0.00007    0.06417
104 Li    0.00885    0.00013   -0.11607
105 Li   -0.00906    0.00043   -0.11570
106 Li    0.00090   -0.00000    0.12434
107 Li    0.00053   -0.00025    0.12282
108 Li    0.00121    0.00000   -0.05754
109 Li    0.00165   -0.00065   -0.05628
110 Li   -0.00445   -0.00000   -0.00228
111 Li    0.00407    0.00004   -0.00249
112 Li   -0.00887    0.00000    0.06361
113 Li    0.00882    0.00007    0.06417
114 Li    0.00931   -0.00000   -0.11635
115 Li   -0.00906   -0.00043   -0.11570
116 Li    0.00021   -0.00002    0.12324
117 Li    0.00018   -0.00018    0.12383
118 Li    0.00134   -0.00007   -0.05918
119 Li    0.00183   -0.00001   -0.05671
120 Li   -0.00395    0.00009   -0.00309
121 Li    0.00337   -0.00003   -0.00223
122 Li   -0.00796    0.00021    0.06265
123 Li    0.00760    0.00001    0.06305
124 Li    0.00885   -0.00013   -0.11607
125 Li   -0.00909   -0.00011   -0.11617
126 Li   -0.00047   -0.00000    0.12322
127 Li    0.00018    0.00018    0.12383
128 Li    0.00162   -0.00000   -0.05892
129 Li    0.00183    0.00001   -0.05671
130 Li   -0.00258   -0.00000   -0.00196
131 Li    0.00337    0.00003   -0.00223
132 Li   -0.00849   -0.00000    0.06341
133 Li    0.00760   -0.00001    0.06305
134 Li    0.01023   -0.00000   -0.11611
135 Li   -0.00909    0.00011   -0.11617
136 Li   -0.00063    0.00021    0.12391
137 Li    0.00057   -0.00070    0.12235
138 Li   -0.00154    0.00001   -0.05599
139 Li   -0.00147    0.00032   -0.05950
140 Li   -0.00380    0.00332   -0.01899
141 Li   -0.00358    0.00032   -0.00785
142 Li   -0.00542   -0.00012    0.03383
143 Li    0.00940    0.00028    0.01588
144 Li    0.07040   -0.00114   -0.02885
145 Li    0.09409   -0.00074   -0.00973
146 Li   -0.00142   -0.00000    0.12492
147 Li    0.00057    0.00070    0.12235
148 Li   -0.00168    0.00000   -0.05489
149 Li   -0.00147   -0.00032   -0.05950
150 Li   -0.00161    0.00000   -0.01803
151 Li   -0.00358   -0.00032   -0.00785
152 Li   -0.00516    0.00000    0.03485
153 Li    0.00940   -0.00028    0.01588
154 Li    0.06951   -0.00000   -0.02192
155 Li    0.09409    0.00074   -0.00973
156 Li   -0.00063   -0.00021    0.12391
157 Li    0.00214    0.00055    0.12162
158 Li   -0.00154   -0.00001   -0.05599
159 Li   -0.00172    0.00010   -0.05994
160 Li   -0.00380   -0.00332   -0.01899
161 Li   -0.00638   -0.00042   -0.01064
162 Li   -0.00542    0.00012    0.03383
163 Li    0.00142   -0.00576    0.01093
164 Li    0.07040    0.00114   -0.02885
165 Li    0.09561   -0.00179   -0.01052
166 Li    0.00030   -0.00000    0.12389
167 Li    0.00214   -0.00055    0.12162
168 Li   -0.00116   -0.00000   -0.05477
169 Li   -0.00172   -0.00010   -0.05994
170 Li   -0.00370   -0.00000   -0.01174
171 Li   -0.00638    0.00042   -0.01064
172 Li   -0.00520   -0.00000    0.03504
173 Li    0.00142    0.00576    0.01093
174 Li    0.06620   -0.00000   -0.06189
175 Li    0.09561    0.00179   -0.01052
176 Li    0.00862    0.00000    1.57592

System changes: positions 

Initializing position-dependent things.

Density initialized from wave functions
          .------------------------------------------------.  
         /|                                                |  
        / |                                                |  
       /  |                                                |  
      /   |                                                |  
     /    |                                                |  
    /     |                                                |  
   /      |                                                |  
  /       |                                                |  
 *        |                                                |  
 |        |                                                |  
 |        |                                                |  
 |        |   LiLi          Li                             |  
 |       Li          Li                                    |  
 |        |                                                |  
 |        Li  Li      Li  Li                               |  
 |     Li |        Li                                      |  
 |        | Li Li       Li Li          Li           Li     |  
 |      Li|      Li Li      Li  Li       Li  Li      Li    |  
 |       Li  Li       Li Li          Li           Li       |  
 |    Li Li   Li  Li Li       Li Li       Li  Li   Li      |  
 |        Li  Li       Li Li       Li Li       Li  Li      |  
 | Li  Li |     Li Li       Li Li       Li Li              |  
 |      Li| Li Li   Li  Li Li    Li Li Li    Li Li  Li     |  
 |  Li  Li|      Li Li   Li  Li Li    Li Li  Li            |  
 |       Li  Li       Li Li       Li Li       Li  Li       |  
 |Li Li  Li   Li  Li Li    Li Li Li    Li Li  Li           |  
 |     Li Li  Li       Li Li       Li Li       Li  Li      |  
 | Li  Li |    Li  Li       Li Li       Li Li              |  
 |      Li| Li Li    Li Li Li    Li Li Li    Li Li  Li     |  
 |  Li  Li|      Li Li       Li Li       Li  Li            |  
 Li      Li  Li       Li Li       Li LLi      Li  Li       |  
 |Li Li   |   Li  Li       Li Li       Li Li               |  
 |        Li           Li          Li          Li          |  
 | Li  Li |    Li  Li       Li  Li      Li  Li             |  
 |        |                                                |  
 |      Li|          Li          Li          Li            |  
 Li       |  Li          Li           Li                   |  
 |        |                                                |  
 |        |                                                |  
 |        .------------------------------------------------.  
 |       /                                                /   
 |      /                                                /    
 |     /                                                /     
 |    /                                                /      
 |   /                                                /       
 |  /                                                /        
 | /                                                /         
 |/                                                /          
 *------------------------------------------------*           

Atomic positions and initial magnetic moments

Positions:
   0 Li     0.000000    0.000000   10.000000    ( 0.0000,  0.0000,  0.0000)
   1 Li     2.467803    1.745000   10.000000    ( 0.0000,  0.0000,  0.0000)
   2 Li     2.467803    0.000000   12.467803    ( 0.0000,  0.0000,  0.0000)
   3 Li     0.000000    1.745000   12.467803    ( 0.0000,  0.0000,  0.0000)
   4 Li     4.935605    0.000000   14.935605    ( 0.0000,  0.0000,  0.0000)
   5 Li     2.467803    1.745000   14.935605    ( 0.0000,  0.0000,  0.0000)
   6 Li     2.467706    0.000094   17.403501    ( 0.0000,  0.0000,  0.0000)
   7 Li     4.935706    1.744979   17.403669    ( 0.0000,  0.0000,  0.0000)
   8 Li     4.935709   -0.000047   19.872219    ( 0.0000,  0.0000,  0.0000)
   9 Li     2.467702    1.744903   19.872323    ( 0.0000,  0.0000,  0.0000)
  10 Li     2.467645   -0.001744   22.338615    ( 0.0000,  0.0000,  0.0000)
  11 Li    -0.001349    1.745049   22.337043    ( 0.0000,  0.0000,  0.0000)
  12 Li     0.000000    3.490000   10.000000    ( 0.0000,  0.0000,  0.0000)
  13 Li     2.467803    5.235000   10.000000    ( 0.0000,  0.0000,  0.0000)
  14 Li     2.467803    3.490000   12.467803    ( 0.0000,  0.0000,  0.0000)
  15 Li     0.000000    5.235000   12.467803    ( 0.0000,  0.0000,  0.0000)
  16 Li     4.935605    3.490000   14.935605    ( 0.0000,  0.0000,  0.0000)
  17 Li     2.467803    5.235000   14.935605    ( 0.0000,  0.0000,  0.0000)
  18 Li     2.467671    3.490000   17.403665    ( 0.0000,  0.0000,  0.0000)
  19 Li     4.935706    5.235021   17.403669    ( 0.0000,  0.0000,  0.0000)
  20 Li     4.935661    3.490000   19.872265    ( 0.0000,  0.0000,  0.0000)
  21 Li     2.467702    5.235097   19.872323    ( 0.0000,  0.0000,  0.0000)
  22 Li     2.467609    3.490000   22.337192    ( 0.0000,  0.0000,  0.0000)
  23 Li    -0.001349    5.234951   22.337043    ( 0.0000,  0.0000,  0.0000)
  24 Li     0.000000    6.980000   10.000000    ( 0.0000,  0.0000,  0.0000)
  25 Li     2.467803    8.725000   10.000000    ( 0.0000,  0.0000,  0.0000)
  26 Li     2.467803    6.980000   12.467803    ( 0.0000,  0.0000,  0.0000)
  27 Li     0.000000    8.725000   12.467803    ( 0.0000,  0.0000,  0.0000)
  28 Li     4.935605    6.980000   14.935605    ( 0.0000,  0.0000,  0.0000)
  29 Li     2.467803    8.725000   14.935605    ( 0.0000,  0.0000,  0.0000)
  30 Li     2.467706    6.979906   17.403501    ( 0.0000,  0.0000,  0.0000)
  31 Li     4.935794    8.724930   17.403561    ( 0.0000,  0.0000,  0.0000)
  32 Li     4.935709    6.980047   19.872219    ( 0.0000,  0.0000,  0.0000)
  33 Li     2.467721    8.724927   19.871516    ( 0.0000,  0.0000,  0.0000)
  34 Li     2.467645    6.981744   22.338615    ( 0.0000,  0.0000,  0.0000)
  35 Li     0.000508    8.726399   22.338911    ( 0.0000,  0.0000,  0.0000)
  36 Li     0.000000   10.470000   10.000000    ( 0.0000,  0.0000,  0.0000)
  37 Li     2.467803   12.215000   10.000000    ( 0.0000,  0.0000,  0.0000)
  38 Li     2.467803   10.470000   12.467803    ( 0.0000,  0.0000,  0.0000)
  39 Li     0.000000   12.215000   12.467803    ( 0.0000,  0.0000,  0.0000)
  40 Li     4.935605   10.470000   14.935605    ( 0.0000,  0.0000,  0.0000)
  41 Li     2.467803   12.215000   14.935605    ( 0.0000,  0.0000,  0.0000)
  42 Li     2.467724   10.470000   17.403791    ( 0.0000,  0.0000,  0.0000)
  43 Li     4.935794   12.215070   17.403561    ( 0.0000,  0.0000,  0.0000)
  44 Li     4.935761   10.470000   19.871784    ( 0.0000,  0.0000,  0.0000)
  45 Li     2.467721   12.215073   19.871516    ( 0.0000,  0.0000,  0.0000)
  46 Li     2.467495   10.470000   22.307500    ( 0.0000,  0.0000,  0.0000)
  47 Li     0.000508   12.213601   22.338911    ( 0.0000,  0.0000,  0.0000)
  48 Li     4.935605    0.000000   10.000000    ( 0.0000,  0.0000,  0.0000)
  49 Li     7.403408    1.745000   10.000000    ( 0.0000,  0.0000,  0.0000)
  50 Li     7.403408    0.000000   12.467803    ( 0.0000,  0.0000,  0.0000)
  51 Li     4.935605    1.745000   12.467803    ( 0.0000,  0.0000,  0.0000)
  52 Li     9.871211    0.000000   14.935605    ( 0.0000,  0.0000,  0.0000)
  53 Li     7.403408    1.745000   14.935605    ( 0.0000,  0.0000,  0.0000)
  54 Li     7.403299   -0.000007   17.403605    ( 0.0000,  0.0000,  0.0000)
  55 Li     9.871285    1.744996   17.403925    ( 0.0000,  0.0000,  0.0000)
  56 Li     9.869909    0.000005   19.871040    ( 0.0000,  0.0000,  0.0000)
  57 Li     7.402403    1.744994   19.870909    ( 0.0000,  0.0000,  0.0000)
  58 Li     7.404724   -0.000014   22.337001    ( 0.0000,  0.0000,  0.0000)
  59 Li     4.935774    1.745047   22.337259    ( 0.0000,  0.0000,  0.0000)
  60 Li     4.935605    3.490000   10.000000    ( 0.0000,  0.0000,  0.0000)
  61 Li     7.403408    5.235000   10.000000    ( 0.0000,  0.0000,  0.0000)
  62 Li     7.403408    3.490000   12.467803    ( 0.0000,  0.0000,  0.0000)
  63 Li     4.935605    5.235000   12.467803    ( 0.0000,  0.0000,  0.0000)
  64 Li     9.871211    3.490000   14.935605    ( 0.0000,  0.0000,  0.0000)
  65 Li     7.403408    5.235000   14.935605    ( 0.0000,  0.0000,  0.0000)
  66 Li     7.403279    3.490000   17.403638    ( 0.0000,  0.0000,  0.0000)
  67 Li     9.871285    5.235004   17.403925    ( 0.0000,  0.0000,  0.0000)
  68 Li     9.869885    3.490000   19.871063    ( 0.0000,  0.0000,  0.0000)
  69 Li     7.402403    5.235006   19.870909    ( 0.0000,  0.0000,  0.0000)
  70 Li     7.404733    3.490000   22.337036    ( 0.0000,  0.0000,  0.0000)
  71 Li     4.935774    5.234953   22.337259    ( 0.0000,  0.0000,  0.0000)
  72 Li     4.935605    6.980000   10.000000    ( 0.0000,  0.0000,  0.0000)
  73 Li     7.403408    8.725000   10.000000    ( 0.0000,  0.0000,  0.0000)
  74 Li     7.403408    6.980000   12.467803    ( 0.0000,  0.0000,  0.0000)
  75 Li     4.935605    8.725000   12.467803    ( 0.0000,  0.0000,  0.0000)
  76 Li     9.871211    6.980000   14.935605    ( 0.0000,  0.0000,  0.0000)
  77 Li     7.403408    8.725000   14.935605    ( 0.0000,  0.0000,  0.0000)
  78 Li     7.403299    6.980007   17.403605    ( 0.0000,  0.0000,  0.0000)
  79 Li     9.871285    8.725002   17.403914    ( 0.0000,  0.0000,  0.0000)
  80 Li     9.869909    6.979995   19.871040    ( 0.0000,  0.0000,  0.0000)
  81 Li     7.402345    8.725021   19.870941    ( 0.0000,  0.0000,  0.0000)
  82 Li     7.404724    6.980014   22.337001    ( 0.0000,  0.0000,  0.0000)
  83 Li     4.934040    8.726272   22.338935    ( 0.0000,  0.0000,  0.0000)
  84 Li     4.935605   10.470000   10.000000    ( 0.0000,  0.0000,  0.0000)
  85 Li     7.403408   12.215000   10.000000    ( 0.0000,  0.0000,  0.0000)
  86 Li     7.403408   10.470000   12.467803    ( 0.0000,  0.0000,  0.0000)
  87 Li     4.935605   12.215000   12.467803    ( 0.0000,  0.0000,  0.0000)
  88 Li     9.871211   10.470000   14.935605    ( 0.0000,  0.0000,  0.0000)
  89 Li     7.403408   12.215000   14.935605    ( 0.0000,  0.0000,  0.0000)
  90 Li     7.403286   10.470000   17.403619    ( 0.0000,  0.0000,  0.0000)
  91 Li     9.871285   12.214998   17.403914    ( 0.0000,  0.0000,  0.0000)
  92 Li     9.869840   10.470000   19.871074    ( 0.0000,  0.0000,  0.0000)
  93 Li     7.402345   12.214979   19.870941    ( 0.0000,  0.0000,  0.0000)
  94 Li     7.404619   10.470000   22.337202    ( 0.0000,  0.0000,  0.0000)
  95 Li     4.934040   12.213728   22.338935    ( 0.0000,  0.0000,  0.0000)
  96 Li     9.871211    0.000000   10.000000    ( 0.0000,  0.0000,  0.0000)
  97 Li    12.339013    1.745000   10.000000    ( 0.0000,  0.0000,  0.0000)
  98 Li    12.339013    0.000000   12.467803    ( 0.0000,  0.0000,  0.0000)
  99 Li     9.871211    1.745000   12.467803    ( 0.0000,  0.0000,  0.0000)
 100 Li    14.806816    0.000000   14.935605    ( 0.0000,  0.0000,  0.0000)
 101 Li    12.339013    1.745000   14.935605    ( 0.0000,  0.0000,  0.0000)
 102 Li    12.338900   -0.000003   17.404303    ( 0.0000,  0.0000,  0.0000)
 103 Li    14.806942    1.744999   17.404325    ( 0.0000,  0.0000,  0.0000)
 104 Li    14.806942    0.000002   19.869552    ( 0.0000,  0.0000,  0.0000)
 105 Li    12.338884    1.745006   19.869558    ( 0.0000,  0.0000,  0.0000)
 106 Li     9.871211    3.490000   10.000000    ( 0.0000,  0.0000,  0.0000)
 107 Li    12.339013    5.235000   10.000000    ( 0.0000,  0.0000,  0.0000)
 108 Li    12.339013    3.490000   12.467803    ( 0.0000,  0.0000,  0.0000)
 109 Li     9.871211    5.235000   12.467803    ( 0.0000,  0.0000,  0.0000)
 110 Li    14.806816    3.490000   14.935605    ( 0.0000,  0.0000,  0.0000)
 111 Li    12.339013    5.235000   14.935605    ( 0.0000,  0.0000,  0.0000)
 112 Li    12.338887    3.490000   17.404317    ( 0.0000,  0.0000,  0.0000)
 113 Li    14.806942    5.235001   17.404325    ( 0.0000,  0.0000,  0.0000)
 114 Li    14.806949    3.490000   19.869549    ( 0.0000,  0.0000,  0.0000)
 115 Li    12.338884    5.234994   19.869558    ( 0.0000,  0.0000,  0.0000)
 116 Li     9.871211    6.980000   10.000000    ( 0.0000,  0.0000,  0.0000)
 117 Li    12.339013    8.725000   10.000000    ( 0.0000,  0.0000,  0.0000)
 118 Li    12.339013    6.980000   12.467803    ( 0.0000,  0.0000,  0.0000)
 119 Li     9.871211    8.725000   12.467803    ( 0.0000,  0.0000,  0.0000)
 120 Li    14.806816    6.980000   14.935605    ( 0.0000,  0.0000,  0.0000)
 121 Li    12.339013    8.725000   14.935605    ( 0.0000,  0.0000,  0.0000)
 122 Li    12.338900    6.980003   17.404303    ( 0.0000,  0.0000,  0.0000)
 123 Li    14.806925    8.725000   17.404309    ( 0.0000,  0.0000,  0.0000)
 124 Li    14.806942    6.979998   19.869552    ( 0.0000,  0.0000,  0.0000)
 125 Li    12.338883    8.724998   19.869551    ( 0.0000,  0.0000,  0.0000)
 126 Li     9.871211   10.470000   10.000000    ( 0.0000,  0.0000,  0.0000)
 127 Li    12.339013   12.215000   10.000000    ( 0.0000,  0.0000,  0.0000)
 128 Li    12.339013   10.470000   12.467803    ( 0.0000,  0.0000,  0.0000)
 129 Li     9.871211   12.215000   12.467803    ( 0.0000,  0.0000,  0.0000)
 130 Li    14.806816   10.470000   14.935605    ( 0.0000,  0.0000,  0.0000)
 131 Li    12.339013   12.215000   14.935605    ( 0.0000,  0.0000,  0.0000)
 132 Li    12.338892   10.470000   17.404314    ( 0.0000,  0.0000,  0.0000)
 133 Li    14.806925   12.215000   17.404309    ( 0.0000,  0.0000,  0.0000)
 134 Li    14.806962   10.470000   19.869552    ( 0.0000,  0.0000,  0.0000)
 135 Li    12.338883   12.215002   19.869551    ( 0.0000,  0.0000,  0.0000)
 136 Li    14.806816    0.000000   10.000000    ( 0.0000,  0.0000,  0.0000)
 137 Li    17.274619    1.745000   10.000000    ( 0.0000,  0.0000,  0.0000)
 138 Li    17.274619    0.000000   12.467803    ( 0.0000,  0.0000,  0.0000)
 139 Li    14.806816    1.745000   12.467803    ( 0.0000,  0.0000,  0.0000)
 140 Li    19.742421    0.000000   14.935605    ( 0.0000,  0.0000,  0.0000)
 141 Li    17.274619    1.745000   14.935605    ( 0.0000,  0.0000,  0.0000)
 142 Li    17.274541   -0.000002   17.403891    ( 0.0000,  0.0000,  0.0000)
 143 Li    19.742556    1.745004   17.403635    ( 0.0000,  0.0000,  0.0000)
 144 Li    19.743427   -0.000016   19.870798    ( 0.0000,  0.0000,  0.0000)
 145 Li    17.275963    1.744989   19.871072    ( 0.0000,  0.0000,  0.0000)
 146 Li    14.806816    3.490000   10.000000    ( 0.0000,  0.0000,  0.0000)
 147 Li    17.274619    5.235000   10.000000    ( 0.0000,  0.0000,  0.0000)
 148 Li    17.274619    3.490000   12.467803    ( 0.0000,  0.0000,  0.0000)
 149 Li    14.806816    5.235000   12.467803    ( 0.0000,  0.0000,  0.0000)
 150 Li    19.742421    3.490000   14.935605    ( 0.0000,  0.0000,  0.0000)
 151 Li    17.274619    5.235000   14.935605    ( 0.0000,  0.0000,  0.0000)
 152 Li    17.274545    3.490000   17.403906    ( 0.0000,  0.0000,  0.0000)
 153 Li    19.742556    5.234996   17.403635    ( 0.0000,  0.0000,  0.0000)
 154 Li    19.743414    3.490000   19.870898    ( 0.0000,  0.0000,  0.0000)
 155 Li    17.275963    5.235011   19.871072    ( 0.0000,  0.0000,  0.0000)
 156 Li    14.806816    6.980000   10.000000    ( 0.0000,  0.0000,  0.0000)
 157 Li    17.274619    8.725000   10.000000    ( 0.0000,  0.0000,  0.0000)
 158 Li    17.274619    6.980000   12.467803    ( 0.0000,  0.0000,  0.0000)
 159 Li    14.806816    8.725000   12.467803    ( 0.0000,  0.0000,  0.0000)
 160 Li    19.742421    6.980000   14.935605    ( 0.0000,  0.0000,  0.0000)
 161 Li    17.274619    8.725000   14.935605    ( 0.0000,  0.0000,  0.0000)
 162 Li    17.274541    6.980002   17.403891    ( 0.0000,  0.0000,  0.0000)
 163 Li    19.742442    8.724918   17.403564    ( 0.0000,  0.0000,  0.0000)
 164 Li    19.743427    6.980016   19.870798    ( 0.0000,  0.0000,  0.0000)
 165 Li    17.275985    8.724974   19.871060    ( 0.0000,  0.0000,  0.0000)
 166 Li    14.806816   10.470000   10.000000    ( 0.0000,  0.0000,  0.0000)
 167 Li    17.274619   12.215000   10.000000    ( 0.0000,  0.0000,  0.0000)
 168 Li    17.274619   10.470000   12.467803    ( 0.0000,  0.0000,  0.0000)
 169 Li    14.806816   12.215000   12.467803    ( 0.0000,  0.0000,  0.0000)
 170 Li    19.742421   10.470000   14.935605    ( 0.0000,  0.0000,  0.0000)
 171 Li    17.274619   12.215000   14.935605    ( 0.0000,  0.0000,  0.0000)
 172 Li    17.274544   10.470000   17.403909    ( 0.0000,  0.0000,  0.0000)
 173 Li    19.742442   12.215082   17.403564    ( 0.0000,  0.0000,  0.0000)
 174 Li    19.743367   10.470000   19.870327    ( 0.0000,  0.0000,  0.0000)
 175 Li    17.275985   12.215026   19.871060    ( 0.0000,  0.0000,  0.0000)
 176 Li     2.467926   10.470000   24.361527    ( 0.0000,  0.0000,  0.0000)

Unit cell:
           periodic     x           y           z      points  spacing
  1. axis:    yes   19.742421    0.000000    0.000000   100     0.1974
  2. axis:    yes    0.000000   13.960000    0.000000    68     0.2053
  3. axis:    no     0.000000    0.000000   32.339013   160     0.2021

  Lengths:  19.742421  13.960000  32.339013
  Angles:   90.000000  90.000000  90.000000

Effective grid spacing dv^(1/3) = 0.2016

     iter     time        total  log10-change:
                         energy   eigst   dens
iter:   1 21:50:38  -309.421074        c
iter:   2 21:51:08  -309.421107        c -2.93
iter:   3 21:51:37  -309.420957c       c -2.90
iter:   4 21:52:06  -309.420796c       c -3.23
iter:   5 21:52:35  -309.420595c       c -3.48
iter:   6 21:53:03  -309.420630c       c -3.63
iter:   7 21:53:33  -309.420619c       c -3.69
iter:   8 21:54:02  -309.420655c       c -3.79
iter:   9 21:54:32  -309.420594c       c -3.85
iter:  10 21:55:02  -309.420607c       c -3.76
iter:  11 21:55:31  -309.420602c       c -4.01c

Converged after 11 iterations.

Dipole moment: (-31.279164, -19.707314, 0.694980) |e|*Ang

Energy contributions relative to reference atoms: (reference = -35893.444183)

Kinetic:       +317.806313
Potential:     -272.788820
External:        +0.000000
XC:            -349.330276
Entropy (-ST):   -5.781776
Local:           -2.216931
SIC:             +0.000000
--------------------------
Free energy:   -312.311490
Extrapolated:  -309.420602

Showing all kpts
 Kpt  Band  Eigenvalues  Occupancy
  0    86     -2.90750    1.15032
  0    87     -2.86201    0.99983
  0    88     -2.85697    0.98303
  0    89     -2.84847    0.95471

  1    86     -2.90750    1.15032
  1    87     -2.86201    0.99983
  1    88     -2.85697    0.98303
  1    89     -2.84847    0.95471


Fermi level: -2.86206

Gap: 0.045 eV
Transition (v -> c):
  (s=0, k=0, n=86, [0.25, -0.25, 0.00]) -> (s=0, k=1, n=87, [0.25, 0.25, 0.00])
Direct/indirect transitions are different
Direct gap: 0.045 eV
Transition at: (s=0, k=0, n=86, [0.25, -0.25, 0.00])

Forces in eV/Ang:
  0 Li   -0.00037   -0.00129    0.12529
  1 Li   -0.00334   -0.00186    0.12479
  2 Li    0.00058   -0.00073   -0.05547
  3 Li    0.00018    0.00010   -0.06015
  4 Li   -0.00030    0.00329   -0.02227
  5 Li    0.00175    0.00238   -0.02216
  6 Li   -0.00644    0.00675    0.00660
  7 Li    0.00664   -0.00180    0.01886
  8 Li    0.00550   -0.00470    0.06997
  9 Li   -0.00621   -0.00770    0.07631
 10 Li   -0.01157   -0.11594   -0.03016
 11 Li   -0.09272    0.00269   -0.13736
 12 Li   -0.00064    0.00000    0.12586
 13 Li   -0.00334    0.00186    0.12479
 14 Li    0.00081    0.00000   -0.06091
 15 Li    0.00018   -0.00010   -0.06015
 16 Li   -0.00284   -0.00000   -0.01808
 17 Li    0.00175   -0.00238   -0.02216
 18 Li   -0.00879   -0.00000    0.01852
 19 Li    0.00664    0.00180    0.01886
 20 Li    0.00333    0.00000    0.07132
 21 Li   -0.00621    0.00770    0.07631
 22 Li   -0.01404   -0.00000   -0.12544
 23 Li   -0.09272   -0.00269   -0.13736
 24 Li   -0.00037    0.00129    0.12529
 25 Li   -0.00306    0.00028    0.12175
 26 Li    0.00058    0.00073   -0.05547
 27 Li    0.00086    0.00048   -0.05525
 28 Li   -0.00030   -0.00329   -0.02227
 29 Li    0.00161   -0.00197   -0.01086
 30 Li   -0.00644   -0.00675    0.00660
 31 Li    0.01295   -0.00504    0.01043
 32 Li    0.00550    0.00470    0.06997
 33 Li   -0.00499   -0.01162    0.00842
 34 Li   -0.01157    0.11594   -0.03016
 35 Li    0.03370    0.09530   -0.01018
 36 Li   -0.00095   -0.00000    0.12320
 37 Li   -0.00306   -0.00028    0.12175
 38 Li    0.00042   -0.00000   -0.05520
 39 Li    0.00086   -0.00048   -0.05525
 40 Li    0.00011   -0.00000   -0.01573
 41 Li    0.00161    0.00197   -0.01086
 42 Li   -0.00524   -0.00000    0.02648
 43 Li    0.01295    0.00504    0.01043
 44 Li    0.01043   -0.00000    0.03643
 45 Li   -0.00499    0.01162    0.00842
 46 Li   -0.02278   -0.00000   -1.96692
 47 Li    0.03370   -0.09530   -0.01018
 48 Li    0.00177   -0.00144    0.12618
 49 Li    0.00123   -0.00089    0.12512
 50 Li   -0.00018   -0.00004   -0.05935
 51 Li   -0.00071    0.00059   -0.06159
 52 Li    0.00487   -0.00013   -0.00932
 53 Li    0.00185    0.00042   -0.01668
 54 Li   -0.00784   -0.00049    0.01374
 55 Li    0.00510   -0.00012    0.03514
 56 Li   -0.08990    0.00049   -0.01135
 57 Li   -0.06981   -0.00033   -0.02192
 58 Li    0.08961   -0.00163   -0.13994
 59 Li    0.01198    0.00266   -0.12140
 60 Li    0.00230   -0.00000    0.12607
 61 Li    0.00123    0.00089    0.12512
 62 Li    0.00013   -0.00000   -0.05834
 63 Li   -0.00071   -0.00059   -0.06159
 64 Li    0.00394    0.00000   -0.00794
 65 Li    0.00185   -0.00042   -0.01668
 66 Li   -0.00872    0.00000    0.01534
 67 Li    0.00510    0.00012    0.03514
 68 Li   -0.09138   -0.00000   -0.00994
 69 Li   -0.06981    0.00033   -0.02192
 70 Li    0.09148   -0.00000   -0.13772
 71 Li    0.01198   -0.00266   -0.12140
 72 Li    0.00177    0.00144    0.12618
 73 Li   -0.00035    0.00052    0.12422
 74 Li   -0.00018    0.00004   -0.05935
 75 Li   -0.00148    0.00019   -0.05642
 76 Li    0.00487    0.00013   -0.00932
 77 Li    0.00393   -0.00038   -0.01939
 78 Li   -0.00784    0.00049    0.01374
 79 Li    0.00524    0.00010    0.03436
 80 Li   -0.08990   -0.00049   -0.01135
 81 Li   -0.07435    0.00162   -0.01933
 82 Li    0.08961    0.00163   -0.13994
 83 Li   -0.10487    0.08673   -0.00662
 84 Li    0.00223   -0.00000    0.12380
 85 Li   -0.00035   -0.00052    0.12422
 86 Li   -0.00024    0.00000   -0.05845
 87 Li   -0.00148   -0.00019   -0.05642
 88 Li    0.00412   -0.00000   -0.00836
 89 Li    0.00393    0.00038   -0.01939
 90 Li   -0.00878   -0.00000    0.01441
 91 Li    0.00524   -0.00010    0.03436
 92 Li   -0.09432   -0.00000   -0.00917
 93 Li   -0.07435   -0.00162   -0.01933
 94 Li    0.08428   -0.00000   -0.12689
 95 Li   -0.10487   -0.08673   -0.00662
 96 Li    0.00019    0.00005    0.12335
 97 Li    0.00054    0.00030    0.12283
 98 Li    0.00128    0.00001   -0.05898
 99 Li    0.00146    0.00061   -0.05609
100 Li   -0.00381   -0.00012   -0.00246
101 Li    0.00398   -0.00009   -0.00189
102 Li   -0.00764   -0.00017    0.06034
103 Li    0.00832    0.00001    0.06178
104 Li    0.00927    0.00025   -0.11421
105 Li   -0.00956    0.00046   -0.11395
106 Li    0.00094   -0.00000    0.12445
107 Li    0.00054   -0.00030    0.12283
108 Li    0.00114    0.00000   -0.05756
109 Li    0.00146   -0.00061   -0.05609
110 Li   -0.00426   -0.00000   -0.00177
111 Li    0.00398    0.00009   -0.00189
112 Li   -0.00845    0.00000    0.06125
113 Li    0.00832   -0.00001    0.06178
114 Li    0.00970   -0.00000   -0.11447
115 Li   -0.00956   -0.00046   -0.11395
116 Li    0.00019   -0.00005    0.12335
117 Li    0.00023   -0.00019    0.12393
118 Li    0.00128   -0.00001   -0.05898
119 Li    0.00174    0.00005   -0.05655
120 Li   -0.00381    0.00012   -0.00246
121 Li    0.00335    0.00005   -0.00173
122 Li   -0.00764    0.00017    0.06034
123 Li    0.00715   -0.00001    0.06065
124 Li    0.00927   -0.00025   -0.11421
125 Li   -0.00961   -0.00014   -0.11448
126 Li   -0.00053   -0.00000    0.12346
127 Li    0.00023    0.00019    0.12393
128 Li    0.00153   -0.00000   -0.05859
129 Li    0.00174   -0.00005   -0.05655
130 Li   -0.00258   -0.00000   -0.00145
131 Li    0.00335   -0.00005   -0.00173
132 Li   -0.00806   -0.00000    0.06096
133 Li    0.00715    0.00001    0.06065
134 Li    0.01074   -0.00000   -0.11419
135 Li   -0.00961    0.00014   -0.11448
136 Li   -0.00065    0.00020    0.12395
137 Li    0.00061   -0.00076    0.12256
138 Li   -0.00144    0.00001   -0.05590
139 Li   -0.00130    0.00028   -0.05937
140 Li   -0.00388    0.00349   -0.01918
141 Li   -0.00354    0.00029   -0.00772
142 Li   -0.00498   -0.00012    0.03311
143 Li    0.00925   -0.00019    0.01574
144 Li    0.07072   -0.00278   -0.02715
145 Li    0.09280   -0.00063   -0.00944
146 Li   -0.00152   -0.00000    0.12496
147 Li    0.00061    0.00076    0.12256
148 Li   -0.00152   -0.00000   -0.05468
149 Li   -0.00130   -0.00028   -0.05937
150 Li   -0.00168   -0.00000   -0.01776
151 Li   -0.00354   -0.00029   -0.00772
152 Li   -0.00506   -0.00000    0.03364
153 Li    0.00925    0.00019    0.01574
154 Li    0.06896   -0.00000   -0.02271
155 Li    0.09280    0.00063   -0.00944
156 Li   -0.00065   -0.00020    0.12395
157 Li    0.00221    0.00055    0.12181
158 Li   -0.00144   -0.00001   -0.05590
159 Li   -0.00163    0.00016   -0.05984
160 Li   -0.00388   -0.00349   -0.01918
161 Li   -0.00657   -0.00046   -0.01072
162 Li   -0.00498    0.00012    0.03311
163 Li    0.00124   -0.00589    0.00972
164 Li    0.07072    0.00278   -0.02715
165 Li    0.09492   -0.00151   -0.00949
166 Li    0.00030   -0.00000    0.12405
167 Li    0.00221   -0.00055    0.12181
168 Li   -0.00109   -0.00000   -0.05459
169 Li   -0.00163   -0.00016   -0.05984
170 Li   -0.00369   -0.00000   -0.01158
171 Li   -0.00657    0.00046   -0.01072
172 Li   -0.00478   -0.00000    0.03405
173 Li    0.00124    0.00589    0.00972
174 Li    0.06518   -0.00000   -0.06329
175 Li    0.09492    0.00151   -0.00949
176 Li    0.00893   -0.00000    1.37428

System changes: positions 

Initializing position-dependent things.

Density initialized from wave functions
          .------------------------------------------------.  
         /|                                                |  
        / |                                                |  
       /  |                                                |  
      /   |                                                |  
     /    |                                                |  
    /     |                                                |  
   /      |                                                |  
  /       |                                                |  
 *        |                                                |  
 |        |                                                |  
 |        |                                                |  
 |        |   LiLi          Li                             |  
 |        |                                                |  
 |       Li          Li                                    |  
 |        Li  Li      Li  Li                               |  
 |     Li |        Li                                      |  
 |        | Li Li       Li Li          Li           Li     |  
 |      Li|      Li Li      Li  Li       Li  Li      Li    |  
 |       Li  Li       Li Li          Li           Li       |  
 |    Li Li   Li  Li Li       Li Li       Li  Li   Li      |  
 |        Li  Li       Li Li       Li Li       Li  Li      |  
 | Li  Li |     Li Li       Li Li       Li Li              |  
 |      Li| Li Li   Li  Li Li    Li Li Li    Li Li  Li     |  
 |  Li  Li|      Li Li   Li  Li Li    Li Li  Li            |  
 |       Li  Li       Li Li       Li Li       Li  Li       |  
 |Li Li  Li   Li  Li Li    Li Li Li    Li Li  Li           |  
 |     Li Li  Li       Li Li       Li Li       Li  Li      |  
 | Li  Li |    Li  Li       Li Li       Li Li              |  
 |      Li| Li Li    Li Li Li    Li Li Li    Li Li  Li     |  
 |  Li  Li|      Li Li       Li Li       Li  Li            |  
 Li      Li  Li       Li Li       Li LLi      Li  Li       |  
 |Li Li   |   Li  Li       Li Li       Li Li               |  
 |        Li           Li          Li          Li          |  
 | Li  Li |    Li  Li       Li  Li      Li  Li             |  
 |        |                                                |  
 |      Li|          Li          Li          Li            |  
 Li       |  Li          Li           Li                   |  
 |        |                                                |  
 |        |                                                |  
 |        .------------------------------------------------.  
 |       /                                                /   
 |      /                                                /    
 |     /                                                /     
 |    /                                                /      
 |   /                                                /       
 |  /                                                /        
 | /                                                /         
 |/                                                /          
 *------------------------------------------------*           

Atomic positions and initial magnetic moments

Positions:
   0 Li     0.000000    0.000000   10.000000    ( 0.0000,  0.0000,  0.0000)
   1 Li     2.467803    1.745000   10.000000    ( 0.0000,  0.0000,  0.0000)
   2 Li     2.467803    0.000000   12.467803    ( 0.0000,  0.0000,  0.0000)
   3 Li     0.000000    1.745000   12.467803    ( 0.0000,  0.0000,  0.0000)
   4 Li     4.935605    0.000000   14.935605    ( 0.0000,  0.0000,  0.0000)
   5 Li     2.467803    1.745000   14.935605    ( 0.0000,  0.0000,  0.0000)
   6 Li     2.467052    0.000780   17.404172    ( 0.0000,  0.0000,  0.0000)
   7 Li     4.936381    1.744796   17.405584    ( 0.0000,  0.0000,  0.0000)
   8 Li     4.936268   -0.000523   19.879327    ( 0.0000,  0.0000,  0.0000)
   9 Li     2.467071    1.744122   19.880076    ( 0.0000,  0.0000,  0.0000)
  10 Li     2.466469   -0.013526   22.335554    ( 0.0000,  0.0000,  0.0000)
  11 Li    -0.010768    1.745323   22.323090    ( 0.0000,  0.0000,  0.0000)
  12 Li     0.000000    3.490000   10.000000    ( 0.0000,  0.0000,  0.0000)
  13 Li     2.467803    5.235000   10.000000    ( 0.0000,  0.0000,  0.0000)
  14 Li     2.467803    3.490000   12.467803    ( 0.0000,  0.0000,  0.0000)
  15 Li     0.000000    5.235000   12.467803    ( 0.0000,  0.0000,  0.0000)
  16 Li     4.935605    3.490000   14.935605    ( 0.0000,  0.0000,  0.0000)
  17 Li     2.467803    5.235000   14.935605    ( 0.0000,  0.0000,  0.0000)
  18 Li     2.466777    3.490000   17.405546    ( 0.0000,  0.0000,  0.0000)
  19 Li     4.936381    5.235204   17.405584    ( 0.0000,  0.0000,  0.0000)
  20 Li     4.935999    3.490000   19.879512    ( 0.0000,  0.0000,  0.0000)
  21 Li     2.467071    5.235878   19.880076    ( 0.0000,  0.0000,  0.0000)
  22 Li     2.466183    3.490000   22.324448    ( 0.0000,  0.0000,  0.0000)
  23 Li    -0.010768    5.234677   22.323090    ( 0.0000,  0.0000,  0.0000)
  24 Li     0.000000    6.980000   10.000000    ( 0.0000,  0.0000,  0.0000)
  25 Li     2.467803    8.725000   10.000000    ( 0.0000,  0.0000,  0.0000)
  26 Li     2.467803    6.980000   12.467803    ( 0.0000,  0.0000,  0.0000)
  27 Li     0.000000    8.725000   12.467803    ( 0.0000,  0.0000,  0.0000)
  28 Li     4.935605    6.980000   14.935605    ( 0.0000,  0.0000,  0.0000)
  29 Li     2.467803    8.725000   14.935605    ( 0.0000,  0.0000,  0.0000)
  30 Li     2.467052    6.979220   17.404172    ( 0.0000,  0.0000,  0.0000)
  31 Li     4.937109    8.724418   17.404620    ( 0.0000,  0.0000,  0.0000)
  32 Li     4.936268    6.980523   19.879327    ( 0.0000,  0.0000,  0.0000)
  33 Li     2.467214    8.723752   19.872381    ( 0.0000,  0.0000,  0.0000)
  34 Li     2.466469    6.993526   22.335554    ( 0.0000,  0.0000,  0.0000)
  35 Li     0.003933    8.736082   22.337879    ( 0.0000,  0.0000,  0.0000)
  36 Li     0.000000   10.470000   10.000000    ( 0.0000,  0.0000,  0.0000)
  37 Li     2.467803   12.215000   10.000000    ( 0.0000,  0.0000,  0.0000)
  38 Li     2.467803   10.470000   12.467803    ( 0.0000,  0.0000,  0.0000)
  39 Li     0.000000   12.215000   12.467803    ( 0.0000,  0.0000,  0.0000)
  40 Li     4.935605   10.470000   14.935605    ( 0.0000,  0.0000,  0.0000)
  41 Li     2.467803   12.215000   14.935605    ( 0.0000,  0.0000,  0.0000)
  42 Li     2.467191   10.470000   17.406481    ( 0.0000,  0.0000,  0.0000)
  43 Li     4.937109   12.215582   17.404620    ( 0.0000,  0.0000,  0.0000)
  44 Li     4.936821   10.470000   19.875488    ( 0.0000,  0.0000,  0.0000)
  45 Li     2.467214   12.216248   19.872381    ( 0.0000,  0.0000,  0.0000)
  46 Li     2.465182   10.470000   22.107514    ( 0.0000,  0.0000,  0.0000)
  47 Li     0.003933   12.203918   22.337879    ( 0.0000,  0.0000,  0.0000)
  48 Li     4.935605    0.000000   10.000000    ( 0.0000,  0.0000,  0.0000)
  49 Li     7.403408    1.745000   10.000000    ( 0.0000,  0.0000,  0.0000)
  50 Li     7.403408    0.000000   12.467803    ( 0.0000,  0.0000,  0.0000)
  51 Li     4.935605    1.745000   12.467803    ( 0.0000,  0.0000,  0.0000)
  52 Li     9.871211    0.000000   14.935605    ( 0.0000,  0.0000,  0.0000)
  53 Li     7.403408    1.745000   14.935605    ( 0.0000,  0.0000,  0.0000)
  54 Li     7.402502   -0.000057   17.405002    ( 0.0000,  0.0000,  0.0000)
  55 Li     9.871803    1.744984   17.407496    ( 0.0000,  0.0000,  0.0000)
  56 Li     9.860775    0.000055   19.869886    ( 0.0000,  0.0000,  0.0000)
  57 Li     7.395311    1.744960   19.868683    ( 0.0000,  0.0000,  0.0000)
  58 Li     7.413829   -0.000180   22.322785    ( 0.0000,  0.0000,  0.0000)
  59 Li     4.936991    1.745318   22.324926    ( 0.0000,  0.0000,  0.0000)
  60 Li     4.935605    3.490000   10.000000    ( 0.0000,  0.0000,  0.0000)
  61 Li     7.403408    5.235000   10.000000    ( 0.0000,  0.0000,  0.0000)
  62 Li     7.403408    3.490000   12.467803    ( 0.0000,  0.0000,  0.0000)
  63 Li     4.935605    5.235000   12.467803    ( 0.0000,  0.0000,  0.0000)
  64 Li     9.871211    3.490000   14.935605    ( 0.0000,  0.0000,  0.0000)
  65 Li     7.403408    5.235000   14.935605    ( 0.0000,  0.0000,  0.0000)
  66 Li     7.402393    3.490000   17.405196    ( 0.0000,  0.0000,  0.0000)
  67 Li     9.871803    5.235016   17.407496    ( 0.0000,  0.0000,  0.0000)
  68 Li     9.860601    3.490000   19.870053    ( 0.0000,  0.0000,  0.0000)
  69 Li     7.395311    5.235040   19.868683    ( 0.0000,  0.0000,  0.0000)
  70 Li     7.414026    3.490000   22.323046    ( 0.0000,  0.0000,  0.0000)
  71 Li     4.936991    5.234682   22.324926    ( 0.0000,  0.0000,  0.0000)
  72 Li     4.935605    6.980000   10.000000    ( 0.0000,  0.0000,  0.0000)
  73 Li     7.403408    8.725000   10.000000    ( 0.0000,  0.0000,  0.0000)
  74 Li     7.403408    6.980000   12.467803    ( 0.0000,  0.0000,  0.0000)
  75 Li     4.935605    8.725000   12.467803    ( 0.0000,  0.0000,  0.0000)
  76 Li     9.871211    6.980000   14.935605    ( 0.0000,  0.0000,  0.0000)
  77 Li     7.403408    8.725000   14.935605    ( 0.0000,  0.0000,  0.0000)
  78 Li     7.402502    6.980057   17.405002    ( 0.0000,  0.0000,  0.0000)
  79 Li     9.871818    8.725012   17.407406    ( 0.0000,  0.0000,  0.0000)
  80 Li     9.860775    6.979945   19.869886    ( 0.0000,  0.0000,  0.0000)
  81 Li     7.394793    8.725185   19.868978    ( 0.0000,  0.0000,  0.0000)
  82 Li     7.413829    6.980180   22.322785    ( 0.0000,  0.0000,  0.0000)
  83 Li     4.923383    8.735084   22.338263    ( 0.0000,  0.0000,  0.0000)
  84 Li     4.935605   10.470000   10.000000    ( 0.0000,  0.0000,  0.0000)
  85 Li     7.403408   12.215000   10.000000    ( 0.0000,  0.0000,  0.0000)
  86 Li     7.403408   10.470000   12.467803    ( 0.0000,  0.0000,  0.0000)
  87 Li     4.935605   12.215000   12.467803    ( 0.0000,  0.0000,  0.0000)
  88 Li     9.871211   10.470000   14.935605    ( 0.0000,  0.0000,  0.0000)
  89 Li     7.403408   12.215000   14.935605    ( 0.0000,  0.0000,  0.0000)
  90 Li     7.402395   10.470000   17.405083    ( 0.0000,  0.0000,  0.0000)
  91 Li     9.871818   12.214988   17.407406    ( 0.0000,  0.0000,  0.0000)
  92 Li     9.860258   10.470000   19.870142    ( 0.0000,  0.0000,  0.0000)
  93 Li     7.394793   12.214815   19.868978    ( 0.0000,  0.0000,  0.0000)
  94 Li     7.413181   10.470000   22.324313    ( 0.0000,  0.0000,  0.0000)
  95 Li     4.923383   12.204916   22.338263    ( 0.0000,  0.0000,  0.0000)
  96 Li     9.871211    0.000000   10.000000    ( 0.0000,  0.0000,  0.0000)
  97 Li    12.339013    1.745000   10.000000    ( 0.0000,  0.0000,  0.0000)
  98 Li    12.339013    0.000000   12.467803    ( 0.0000,  0.0000,  0.0000)
  99 Li     9.871211    1.745000   12.467803    ( 0.0000,  0.0000,  0.0000)
 100 Li    14.806816    0.000000   14.935605    ( 0.0000,  0.0000,  0.0000)
 101 Li    12.339013    1.745000   14.935605    ( 0.0000,  0.0000,  0.0000)
 102 Li    12.338124   -0.000021   17.410434    ( 0.0000,  0.0000,  0.0000)
 103 Li    14.807788    1.745000   17.410602    ( 0.0000,  0.0000,  0.0000)
 104 Li    14.807884    0.000027   19.857949    ( 0.0000,  0.0000,  0.0000)
 105 Li    12.337913    1.745052   19.857981    ( 0.0000,  0.0000,  0.0000)
 106 Li     9.871211    3.490000   10.000000    ( 0.0000,  0.0000,  0.0000)
 107 Li    12.339013    5.235000   10.000000    ( 0.0000,  0.0000,  0.0000)
 108 Li    12.339013    3.490000   12.467803    ( 0.0000,  0.0000,  0.0000)
 109 Li     9.871211    5.235000   12.467803    ( 0.0000,  0.0000,  0.0000)
 110 Li    14.806816    3.490000   14.935605    ( 0.0000,  0.0000,  0.0000)
 111 Li    12.339013    5.235000   14.935605    ( 0.0000,  0.0000,  0.0000)
 112 Li    12.338028    3.490000   17.410540    ( 0.0000,  0.0000,  0.0000)
 113 Li    14.807788    5.235000   17.410602    ( 0.0000,  0.0000,  0.0000)
 114 Li    14.807934    3.490000   19.857919    ( 0.0000,  0.0000,  0.0000)
 115 Li    12.337913    5.234948   19.857981    ( 0.0000,  0.0000,  0.0000)
 116 Li     9.871211    6.980000   10.000000    ( 0.0000,  0.0000,  0.0000)
 117 Li    12.339013    8.725000   10.000000    ( 0.0000,  0.0000,  0.0000)
 118 Li    12.339013    6.980000   12.467803    ( 0.0000,  0.0000,  0.0000)
 119 Li     9.871211    8.725000   12.467803    ( 0.0000,  0.0000,  0.0000)
 120 Li    14.806816    6.980000   14.935605    ( 0.0000,  0.0000,  0.0000)
 121 Li    12.339013    8.725000   14.935605    ( 0.0000,  0.0000,  0.0000)
 122 Li    12.338124    6.980021   17.410434    ( 0.0000,  0.0000,  0.0000)
 123 Li    14.807651    8.724999   17.410471    ( 0.0000,  0.0000,  0.0000)
 124 Li    14.807884    6.979973   19.857949    ( 0.0000,  0.0000,  0.0000)
 125 Li    12.337908    8.724984   19.857921    ( 0.0000,  0.0000,  0.0000)
 126 Li     9.871211   10.470000   10.000000    ( 0.0000,  0.0000,  0.0000)
 127 Li    12.339013   12.215000   10.000000    ( 0.0000,  0.0000,  0.0000)
 128 Li    12.339013   10.470000   12.467803    ( 0.0000,  0.0000,  0.0000)
 129 Li     9.871211   12.215000   12.467803    ( 0.0000,  0.0000,  0.0000)
 130 Li    14.806816   10.470000   14.935605    ( 0.0000,  0.0000,  0.0000)
 131 Li    12.339013   12.215000   14.935605    ( 0.0000,  0.0000,  0.0000)
 132 Li    12.338073   10.470000   17.410509    ( 0.0000,  0.0000,  0.0000)
 133 Li    14.807651   12.215001   17.410471    ( 0.0000,  0.0000,  0.0000)
 134 Li    14.808052   10.470000   19.857951    ( 0.0000,  0.0000,  0.0000)
 135 Li    12.337908   12.215016   19.857921    ( 0.0000,  0.0000,  0.0000)
 136 Li    14.806816    0.000000   10.000000    ( 0.0000,  0.0000,  0.0000)
 137 Li    17.274619    1.745000   10.000000    ( 0.0000,  0.0000,  0.0000)
 138 Li    17.274619    0.000000   12.467803    ( 0.0000,  0.0000,  0.0000)
 139 Li    14.806816    1.745000   12.467803    ( 0.0000,  0.0000,  0.0000)
 140 Li    19.742421    0.000000   14.935605    ( 0.0000,  0.0000,  0.0000)
 141 Li    17.274619    1.745000   14.935605    ( 0.0000,  0.0000,  0.0000)
 142 Li    17.274035   -0.000014   17.407256    ( 0.0000,  0.0000,  0.0000)
 143 Li    19.743495    1.744985   17.405234    ( 0.0000,  0.0000,  0.0000)
 144 Li    19.750611   -0.000298   19.868040    ( 0.0000,  0.0000,  0.0000)
 145 Li    17.285391    1.744925   19.870113    ( 0.0000,  0.0000,  0.0000)
 146 Li    14.806816    3.490000   10.000000    ( 0.0000,  0.0000,  0.0000)
 147 Li    17.274619    5.235000   10.000000    ( 0.0000,  0.0000,  0.0000)
 148 Li    17.274619    3.490000   12.467803    ( 0.0000,  0.0000,  0.0000)
 149 Li    14.806816    5.235000   12.467803    ( 0.0000,  0.0000,  0.0000)
 150 Li    19.742421    3.490000   14.935605    ( 0.0000,  0.0000,  0.0000)
 151 Li    17.274619    5.235000   14.935605    ( 0.0000,  0.0000,  0.0000)
 152 Li    17.274030    3.490000   17.407324    ( 0.0000,  0.0000,  0.0000)
 153 Li    19.743495    5.235015   17.405234    ( 0.0000,  0.0000,  0.0000)
 154 Li    19.750419    3.490000   19.868592    ( 0.0000,  0.0000,  0.0000)
 155 Li    17.285391    5.235075   19.870113    ( 0.0000,  0.0000,  0.0000)
 156 Li    14.806816    6.980000   10.000000    ( 0.0000,  0.0000,  0.0000)
 157 Li    17.274619    8.725000   10.000000    ( 0.0000,  0.0000,  0.0000)
 158 Li    17.274619    6.980000   12.467803    ( 0.0000,  0.0000,  0.0000)
 159 Li    14.806816    8.725000   12.467803    ( 0.0000,  0.0000,  0.0000)
 160 Li    19.742421    6.980000   14.935605    ( 0.0000,  0.0000,  0.0000)
 161 Li    17.274619    8.725000   14.935605    ( 0.0000,  0.0000,  0.0000)
 162 Li    17.274035    6.980014   17.407256    ( 0.0000,  0.0000,  0.0000)
 163 Li    19.742568    8.724320   17.404552    ( 0.0000,  0.0000,  0.0000)
 164 Li    19.750611    6.980298   19.868040    ( 0.0000,  0.0000,  0.0000)
 165 Li    17.285627    8.724821   19.870096    ( 0.0000,  0.0000,  0.0000)
 166 Li    14.806816   10.470000   10.000000    ( 0.0000,  0.0000,  0.0000)
 167 Li    17.274619   12.215000   10.000000    ( 0.0000,  0.0000,  0.0000)
 168 Li    17.274619   10.470000   12.467803    ( 0.0000,  0.0000,  0.0000)
 169 Li    14.806816   12.215000   12.467803    ( 0.0000,  0.0000,  0.0000)
 170 Li    19.742421   10.470000   14.935605    ( 0.0000,  0.0000,  0.0000)
 171 Li    17.274619   12.215000   14.935605    ( 0.0000,  0.0000,  0.0000)
 172 Li    17.274058   10.470000   17.407368    ( 0.0000,  0.0000,  0.0000)
 173 Li    19.742568   12.215680   17.404552    ( 0.0000,  0.0000,  0.0000)
 174 Li    19.749989   10.470000   19.863899    ( 0.0000,  0.0000,  0.0000)
 175 Li    17.285627   12.215179   19.870096    ( 0.0000,  0.0000,  0.0000)
 176 Li     2.468832   10.470000   24.501283    ( 0.0000,  0.0000,  0.0000)

Unit cell:
           periodic     x           y           z      points  spacing
  1. axis:    yes   19.742421    0.000000    0.000000   100     0.1974
  2. axis:    yes    0.000000   13.960000    0.000000    68     0.2053
  3. axis:    no     0.000000    0.000000   32.339013   160     0.2021

  Lengths:  19.742421  13.960000  32.339013
  Angles:   90.000000  90.000000  90.000000

Effective grid spacing dv^(1/3) = 0.2016

     iter     time        total  log10-change:
                         energy   eigst   dens
iter:   1 21:58:03  -309.870541        c
iter:   2 21:58:33  -309.867275        c -2.22
iter:   3 21:59:01  -309.864943c       c -2.35
iter:   4 21:59:31  -309.860229c       c -2.39
iter:   5 22:00:00  -309.858325c       c -2.79
iter:   6 22:00:30  -309.857653c       c -2.95
iter:   7 22:01:01  -309.857448c       c -3.06
iter:   8 22:01:33  -309.857226c       c -3.12
iter:   9 22:02:07  -309.856831c       c -3.21
iter:  10 22:02:42  -309.856853c       c -3.30
iter:  11 22:03:31  -309.856737c       c -3.27
iter:  12 22:04:15  -309.856730c       c -3.50
iter:  13 22:04:53  -309.856779c       c -3.63
iter:  14 22:05:30  -309.856784c       c -3.76
iter:  15 22:06:07  -309.856807c       c -3.90
iter:  16 22:06:46  -309.856791c       c -3.98
iter:  17 22:07:27  -309.856794c       c -3.99
iter:  18 22:08:07  -309.856782c       c -4.06c

Converged after 18 iterations.

Dipole moment: (-31.863822, -19.422065, 0.786280) |e|*Ang

Energy contributions relative to reference atoms: (reference = -35893.444183)

Kinetic:       +316.752640
Potential:     -272.240871
External:        +0.000000
XC:            -349.260480
Entropy (-ST):   -5.775997
Local:           -2.220072
SIC:             +0.000000
--------------------------
Free energy:   -312.744780
Extrapolated:  -309.856782

Showing all kpts
 Kpt  Band  Eigenvalues  Occupancy
  0    86     -2.89441    1.16017
  0    87     -2.84630    1.00121
  0    88     -2.84192    0.98661
  0    89     -2.83047    0.94848

  1    86     -2.89441    1.16017
  1    87     -2.84630    1.00121
  1    88     -2.84192    0.98661
  1    89     -2.83047    0.94848


Fermi level: -2.84594

Gap: 0.004 eV
Transition (v -> c):
  (s=0, k=0, n=87, [0.25, -0.25, 0.00]) -> (s=0, k=1, n=88, [0.25, 0.25, 0.00])
Direct/indirect transitions are different
Direct gap: 0.004 eV
Transition at: (s=0, k=0, n=87, [0.25, -0.25, 0.00])

Forces in eV/Ang:
  0 Li   -0.00042   -0.00121    0.12543
  1 Li   -0.00338   -0.00187    0.12450
  2 Li    0.00058   -0.00096   -0.05519
  3 Li    0.00005    0.00034   -0.06015
  4 Li   -0.00023    0.00352   -0.02212
  5 Li    0.00187    0.00294   -0.02198
  6 Li   -0.00510    0.00902    0.00533
  7 Li    0.00506   -0.00263    0.02167
  8 Li   -0.00349   -0.01201    0.06390
  9 Li   -0.00089   -0.01050    0.06472
 10 Li   -0.01487   -0.08240   -0.03948
 11 Li   -0.08186   -0.00154   -0.12846
 12 Li   -0.00061   -0.00000    0.12565
 13 Li   -0.00338    0.00187    0.12450
 14 Li    0.00080   -0.00000   -0.06182
 15 Li    0.00005   -0.00034   -0.06015
 16 Li   -0.00310   -0.00000   -0.01577
 17 Li    0.00187   -0.00294   -0.02198
 18 Li   -0.00662    0.00000    0.02128
 19 Li    0.00506    0.00263    0.02167
 20 Li   -0.00077    0.00000    0.05445
 21 Li   -0.00089    0.01050    0.06472
 22 Li   -0.01746    0.00000   -0.11008
 23 Li   -0.08186    0.00154   -0.12846
 24 Li   -0.00042    0.00121    0.12543
 25 Li   -0.00315    0.00016    0.12187
 26 Li    0.00058    0.00096   -0.05519
 27 Li    0.00062    0.00043   -0.05470
 28 Li   -0.00023   -0.00352   -0.02212
 29 Li    0.00200   -0.00180   -0.00884
 30 Li   -0.00510   -0.00902    0.00533
 31 Li    0.01316   -0.00611    0.00715
 32 Li   -0.00349    0.01201    0.06390
 33 Li    0.00029   -0.06041   -0.07652
 34 Li   -0.01487    0.08240   -0.03948
 35 Li    0.02465    0.08143   -0.02591
 36 Li   -0.00096   -0.00000    0.12334
 37 Li   -0.00315   -0.00016    0.12187
 38 Li    0.00034   -0.00000   -0.05432
 39 Li    0.00062   -0.00043   -0.05470
 40 Li   -0.00002   -0.00000   -0.01449
 41 Li    0.00200    0.00180   -0.00884
 42 Li   -0.00421   -0.00000    0.02606
 43 Li    0.01316    0.00611    0.00715
 44 Li    0.00620   -0.00000    0.01562
 45 Li    0.00029    0.06041   -0.07652
 46 Li   -0.02851   -0.00000   -0.72492
 47 Li    0.02465   -0.08143   -0.02591
 48 Li    0.00189   -0.00141    0.12622
 49 Li    0.00123   -0.00095    0.12512
 50 Li    0.00012   -0.00002   -0.05972
 51 Li   -0.00056    0.00083   -0.06185
 52 Li    0.00443   -0.00012   -0.00659
 53 Li    0.00178   -0.00017   -0.01538
 54 Li   -0.00747   -0.00066    0.01193
 55 Li    0.00400    0.00031    0.02878
 56 Li   -0.08180    0.00047   -0.00894
 57 Li   -0.06550    0.00006   -0.02743
 58 Li    0.07488   -0.00567   -0.13047
 59 Li    0.01283   -0.00045   -0.10796
 60 Li    0.00235    0.00000    0.12583
 61 Li    0.00123    0.00095    0.12512
 62 Li    0.00044   -0.00000   -0.05791
 63 Li   -0.00056   -0.00083   -0.06185
 64 Li    0.00431   -0.00000   -0.00647
 65 Li    0.00178    0.00017   -0.01538
 66 Li   -0.00695    0.00000    0.01111
 67 Li    0.00400   -0.00031    0.02878
 68 Li   -0.08212   -0.00000   -0.00845
 69 Li   -0.06550   -0.00006   -0.02743
 70 Li    0.08359   -0.00000   -0.13111
 71 Li    0.01283    0.00045   -0.10796
[...]
 104 Li    14.871272   -0.001588   19.678348    ( 0.0000,  0.0000,  0.0000)
 105 Li    12.279397    1.743190   19.678365    ( 0.0000,  0.0000,  0.0000)
 106 Li     9.871211    3.490000   10.000000    ( 0.0000,  0.0000,  0.0000)
 107 Li    12.339013    5.235000   10.000000    ( 0.0000,  0.0000,  0.0000)
 108 Li    12.339013    3.490000   12.467803    ( 0.0000,  0.0000,  0.0000)
 109 Li     9.871211    5.235000   12.467803    ( 0.0000,  0.0000,  0.0000)
 110 Li    14.806816    3.490000   14.935605    ( 0.0000,  0.0000,  0.0000)
 111 Li    12.339013    5.235000   14.935605    ( 0.0000,  0.0000,  0.0000)
 112 Li    12.338167    3.490000   17.330642    ( 0.0000,  0.0000,  0.0000)
 113 Li    14.807154    5.233131   17.328180    ( 0.0000,  0.0000,  0.0000)
 114 Li    14.862923    3.490000   19.677442    ( 0.0000,  0.0000,  0.0000)
 115 Li    12.279397    5.236810   19.678365    ( 0.0000,  0.0000,  0.0000)
 116 Li     9.871211    6.980000   10.000000    ( 0.0000,  0.0000,  0.0000)
 117 Li    12.339013    8.725000   10.000000    ( 0.0000,  0.0000,  0.0000)
 118 Li    12.339013    6.980000   12.467803    ( 0.0000,  0.0000,  0.0000)
 119 Li     9.871211    8.725000   12.467803    ( 0.0000,  0.0000,  0.0000)
 120 Li    14.806816    6.980000   14.935605    ( 0.0000,  0.0000,  0.0000)
 121 Li    12.339013    8.725000   14.935605    ( 0.0000,  0.0000,  0.0000)
 122 Li    12.339018    6.979677   17.331139    ( 0.0000,  0.0000,  0.0000)
 123 Li    14.801827    8.727032   17.325585    ( 0.0000,  0.0000,  0.0000)
 124 Li    14.871272    6.981588   19.678348    ( 0.0000,  0.0000,  0.0000)
 125 Li    12.278874    8.724752   19.678910    ( 0.0000,  0.0000,  0.0000)
 126 Li     9.871211   10.470000   10.000000    ( 0.0000,  0.0000,  0.0000)
 127 Li    12.339013   12.215000   10.000000    ( 0.0000,  0.0000,  0.0000)
 128 Li    12.339013   10.470000   12.467803    ( 0.0000,  0.0000,  0.0000)
 129 Li     9.871211   12.215000   12.467803    ( 0.0000,  0.0000,  0.0000)
 130 Li    14.806816   10.470000   14.935605    ( 0.0000,  0.0000,  0.0000)
 131 Li    12.339013   12.215000   14.935605    ( 0.0000,  0.0000,  0.0000)
 132 Li    12.340893   10.470000   17.330158    ( 0.0000,  0.0000,  0.0000)
 133 Li    14.801827   12.212968   17.325585    ( 0.0000,  0.0000,  0.0000)
 134 Li    14.869202   10.470000   19.674826    ( 0.0000,  0.0000,  0.0000)
 135 Li    12.278874   12.215248   19.678910    ( 0.0000,  0.0000,  0.0000)
 136 Li    14.806816    0.000000   10.000000    ( 0.0000,  0.0000,  0.0000)
 137 Li    17.274619    1.745000   10.000000    ( 0.0000,  0.0000,  0.0000)
 138 Li    17.274619    0.000000   12.467803    ( 0.0000,  0.0000,  0.0000)
 139 Li    14.806816    1.745000   12.467803    ( 0.0000,  0.0000,  0.0000)
 140 Li    19.742421    0.000000   14.935605    ( 0.0000,  0.0000,  0.0000)
 141 Li    17.274619    1.745000   14.935605    ( 0.0000,  0.0000,  0.0000)
 142 Li    17.269123   -0.016110   17.402349    ( 0.0000,  0.0000,  0.0000)
 143 Li    19.740302    1.734719   17.359035    ( 0.0000,  0.0000,  0.0000)
 144 Li    19.884275   -0.059495   19.740538    ( 0.0000,  0.0000,  0.0000)
 145 Li    17.427043    1.758023   19.773320    ( 0.0000,  0.0000,  0.0000)
 146 Li    14.806816    3.490000   10.000000    ( 0.0000,  0.0000,  0.0000)
 147 Li    17.274619    5.235000   10.000000    ( 0.0000,  0.0000,  0.0000)
 148 Li    17.274619    3.490000   12.467803    ( 0.0000,  0.0000,  0.0000)
 149 Li    14.806816    5.235000   12.467803    ( 0.0000,  0.0000,  0.0000)
 150 Li    19.742421    3.490000   14.935605    ( 0.0000,  0.0000,  0.0000)
 151 Li    17.274619    5.235000   14.935605    ( 0.0000,  0.0000,  0.0000)
 152 Li    17.277394    3.490000   17.374632    ( 0.0000,  0.0000,  0.0000)
 153 Li    19.740302    5.245281   17.359035    ( 0.0000,  0.0000,  0.0000)
 154 Li    19.914798    3.490000   19.722964    ( 0.0000,  0.0000,  0.0000)
 155 Li    17.427043    5.221977   19.773320    ( 0.0000,  0.0000,  0.0000)
 156 Li    14.806816    6.980000   10.000000    ( 0.0000,  0.0000,  0.0000)
 157 Li    17.274619    8.725000   10.000000    ( 0.0000,  0.0000,  0.0000)
 158 Li    17.274619    6.980000   12.467803    ( 0.0000,  0.0000,  0.0000)
 159 Li    14.806816    8.725000   12.467803    ( 0.0000,  0.0000,  0.0000)
 160 Li    19.742421    6.980000   14.935605    ( 0.0000,  0.0000,  0.0000)
 161 Li    17.274619    8.725000   14.935605    ( 0.0000,  0.0000,  0.0000)
 162 Li    17.269123    6.996110   17.402349    ( 0.0000,  0.0000,  0.0000)
 163 Li    19.769195    8.689991   17.303426    ( 0.0000,  0.0000,  0.0000)
 164 Li    19.884275    7.039495   19.740538    ( 0.0000,  0.0000,  0.0000)
 165 Li    17.449823    8.741678   19.864968    ( 0.0000,  0.0000,  0.0000)
 166 Li    14.806816   10.470000   10.000000    ( 0.0000,  0.0000,  0.0000)
 167 Li    17.274619   12.215000   10.000000    ( 0.0000,  0.0000,  0.0000)
 168 Li    17.274619   10.470000   12.467803    ( 0.0000,  0.0000,  0.0000)
 169 Li    14.806816   12.215000   12.467803    ( 0.0000,  0.0000,  0.0000)
 170 Li    19.742421   10.470000   14.935605    ( 0.0000,  0.0000,  0.0000)
 171 Li    17.274619   12.215000   14.935605    ( 0.0000,  0.0000,  0.0000)
 172 Li    17.294383   10.470000   17.411921    ( 0.0000,  0.0000,  0.0000)
 173 Li    19.769195   12.250009   17.303426    ( 0.0000,  0.0000,  0.0000)
 174 Li    19.896181   10.470000   19.616866    ( 0.0000,  0.0000,  0.0000)
 175 Li    17.449823   12.198322   19.864968    ( 0.0000,  0.0000,  0.0000)
 176 Li     2.479060   10.470000   24.133832    ( 0.0000,  0.0000,  0.0000)

Unit cell:
           periodic     x           y           z      points  spacing
  1. axis:    yes   19.742421    0.000000    0.000000   100     0.1974
  2. axis:    yes    0.000000   13.960000    0.000000    68     0.2053
  3. axis:    no     0.000000    0.000000   32.339013   160     0.2021

  Lengths:  19.742421  13.960000  32.339013
  Angles:   90.000000  90.000000  90.000000

Effective grid spacing dv^(1/3) = 0.2016

     iter     time        total  log10-change:
                         energy   eigst   dens
iter:   1 02:52:54  -310.449740        c
iter:   2 02:53:49  -310.450165        c -2.93
iter:   3 02:54:46  -310.449518c       c -2.86
iter:   4 02:55:52  -310.449425c       c -3.39
iter:   5 02:57:15  -310.449450c       c -3.73
iter:   6 02:58:41  -310.449413c       c -3.85
iter:   7 02:59:34  -310.449425c       c -3.95
iter:   8 03:00:26  -310.449402c       c -4.05c

Converged after 8 iterations.

Dipole moment: (-40.509833, -14.146853, 0.730643) |e|*Ang

Energy contributions relative to reference atoms: (reference = -35893.444183)

Kinetic:       +328.109973
Potential:     -279.274779
External:        +0.000000
XC:            -354.150607
Entropy (-ST):   -5.739903
Local:           -2.264038
SIC:             +0.000000
--------------------------
Free energy:   -313.319354
Extrapolated:  -310.449402

Showing all kpts
 Kpt  Band  Eigenvalues  Occupancy
  0    86     -2.89257    1.13441
  0    87     -2.87534    1.07766
  0    88     -2.85054    0.99515
  0    89     -2.83620    0.94740

  1    86     -2.89257    1.13441
  1    87     -2.87534    1.07766
  1    88     -2.85054    0.99515
  1    89     -2.83620    0.94740


Fermi level: -2.85200

Gap: 0.025 eV
Transition (v -> c):
  (s=0, k=0, n=87, [0.25, -0.25, 0.00]) -> (s=0, k=0, n=88, [0.25, -0.25, 0.00])
No difference between direct/indirect transitions

Forces in eV/Ang:
  0 Li   -0.00132   -0.00131    0.12707
  1 Li   -0.00402   -0.00172    0.12571
  2 Li    0.00125   -0.00103   -0.05502
  3 Li   -0.00095    0.00141   -0.05937
  4 Li   -0.00052    0.02158   -0.05612
  5 Li    0.00294    0.03134   -0.07044
  6 Li   -0.00334    0.01106   -0.02854
  7 Li   -0.00684    0.00033   -0.01108
  8 Li    0.01387    0.01537   -0.01095
  9 Li   -0.01786    0.01424    0.01401
 10 Li    0.01000   -0.01089   -0.02622
 11 Li    0.01443   -0.01138   -0.01317
 12 Li   -0.00049    0.00000    0.12628
 13 Li   -0.00402    0.00172    0.12571
 14 Li    0.00109    0.00000   -0.06547
 15 Li   -0.00095   -0.00141   -0.05937
 16 Li   -0.00897    0.00000    0.00063
 17 Li    0.00294   -0.03134   -0.07044
 18 Li   -0.00507   -0.00000   -0.01073
 19 Li   -0.00684   -0.00033   -0.01108
 20 Li    0.02095    0.00000    0.00215
 21 Li   -0.01786   -0.01424    0.01401
 22 Li    0.01289   -0.00000   -0.04246
 23 Li    0.01443    0.01138   -0.01317
 24 Li   -0.00132    0.00131    0.12707
 25 Li   -0.00365   -0.00032    0.12309
 26 Li    0.00125    0.00103   -0.05502
 27 Li   -0.00025    0.00016   -0.05200
 28 Li   -0.00052   -0.02158   -0.05612
 29 Li    0.00544   -0.01201   -0.03701
 30 Li   -0.00334   -0.01106   -0.02854
 31 Li    0.01275    0.00791   -0.00686
 32 Li    0.01387   -0.01537   -0.01095
 33 Li   -0.01364   -0.00824   -0.02541
 34 Li    0.01000    0.01089   -0.02622
 35 Li    0.02362    0.00152   -0.02457
 36 Li   -0.00158   -0.00000    0.12450
 37 Li   -0.00365    0.00032    0.12309
 38 Li    0.00107   -0.00000   -0.05488
 39 Li   -0.00025   -0.00016   -0.05200
 40 Li   -0.00136   -0.00000   -0.03437
 41 Li    0.00544    0.01201   -0.03701
 42 Li   -0.00150   -0.00000    0.01126
 43 Li    0.01275   -0.00791   -0.00686
 44 Li    0.02653   -0.00000   -0.02000
 45 Li   -0.01364    0.00824   -0.02541
 46 Li   -0.01480   -0.00000   -0.04005
 47 Li    0.02362   -0.00152   -0.02457
 48 Li    0.00312   -0.00189    0.12792
 49 Li    0.00132   -0.00174    0.12643
 50 Li    0.00051    0.00009   -0.05837
 51 Li   -0.00076    0.00171   -0.06373
 52 Li    0.00498   -0.00170   -0.02781
 53 Li    0.00101   -0.00224   -0.06327
 54 Li   -0.00206   -0.00202    0.00943
 55 Li   -0.00159   -0.00238   -0.01019
 56 Li    0.00611   -0.00212   -0.01584
 57 Li    0.01267    0.00110   -0.00056
 58 Li   -0.00721    0.00355   -0.01812
 59 Li   -0.01680   -0.00547   -0.01898
 60 Li    0.00247   -0.00000    0.12684
 61 Li    0.00132    0.00174    0.12643
 62 Li   -0.00067    0.00000   -0.05454
 63 Li   -0.00076   -0.00171   -0.06373
 64 Li    0.00202    0.00000   -0.02683
 65 Li    0.00101    0.00224   -0.06327
 66 Li    0.00511   -0.00000    0.00704
 67 Li   -0.00159    0.00238   -0.01019
 68 Li    0.00241    0.00000   -0.01171
 69 Li    0.01267   -0.00110   -0.00056
 70 Li   -0.01515    0.00000   -0.00554
 71 Li   -0.01680    0.00547   -0.01898
 72 Li    0.00312    0.00189    0.12792
 73 Li   -0.00059    0.00035    0.12481
 74 Li    0.00051   -0.00009   -0.05837
 75 Li   -0.00197   -0.00034   -0.05738
 76 Li    0.00498    0.00170   -0.02781
 77 Li    0.00439   -0.00530   -0.07531
 78 Li   -0.00206    0.00202    0.00943
 79 Li   -0.00188    0.00146   -0.00985
 80 Li    0.00611    0.00212   -0.01584
 81 Li    0.03137   -0.01381   -0.00112
 82 Li   -0.00721   -0.00355   -0.01812
 83 Li   -0.02060    0.00453   -0.03700
 84 Li    0.00371   -0.00000    0.12472
 85 Li   -0.00059   -0.00035    0.12481
 86 Li    0.00101   -0.00000   -0.05566
 87 Li   -0.00197    0.00034   -0.05738
 88 Li    0.00263   -0.00000   -0.02684
 89 Li    0.00439    0.00530   -0.07531
 90 Li   -0.00097    0.00000   -0.00421
 91 Li   -0.00188   -0.00146   -0.00985
 92 Li    0.01133   -0.00000   -0.01706
 93 Li    0.03137    0.01381   -0.00112
 94 Li    0.00027   -0.00000   -0.01197
 95 Li   -0.02060   -0.00453   -0.03700
 96 Li   -0.00014   -0.00021    0.12344
 97 Li    0.00049    0.00078    0.12337
 98 Li   -0.00026    0.00036   -0.05962
 99 Li    0.00126    0.00008   -0.05795
100 Li   -0.00416    0.00060   -0.05504
101 Li    0.00445    0.00007   -0.05519
102 Li   -0.00207   -0.00025    0.03221
103 Li    0.00387   -0.00311    0.03536
104 Li   -0.00735   -0.00255   -0.01822
105 Li    0.00862   -0.00140   -0.01663
106 Li    0.00166    0.00000    0.12508
107 Li    0.00049   -0.00078    0.12337
108 Li   -0.00063   -0.00000   -0.05939
109 Li    0.00126   -0.00008   -0.05795
110 Li   -0.00474    0.00000   -0.05912
111 Li    0.00445   -0.00007   -0.05519
112 Li   -0.00274    0.00000    0.03352
113 Li    0.00387    0.00311    0.03536
114 Li   -0.01203   -0.00000   -0.01976
115 Li    0.00862    0.00140   -0.01663
116 Li   -0.00014    0.00021    0.12344
117 Li    0.00001   -0.00026    0.12454
118 Li   -0.00026   -0.00036   -0.05962
119 Li    0.00177    0.00000   -0.05911
120 Li   -0.00416   -0.00060   -0.05504
121 Li    0.00347   -0.00005   -0.05470
122 Li   -0.00207    0.00025    0.03221
123 Li    0.00251    0.00352    0.03439
124 Li   -0.00735    0.00255   -0.01822
125 Li    0.01118   -0.00138   -0.01671
126 Li   -0.00078    0.00000    0.12370
127 Li    0.00001    0.00026    0.12454
128 Li    0.00015   -0.00000   -0.05879
129 Li    0.00177   -0.00000   -0.05911
130 Li   -0.00024   -0.00000   -0.05518
131 Li    0.00347    0.00005   -0.05470
132 Li   -0.00403    0.00000    0.03473
133 Li    0.00251   -0.00352    0.03439
134 Li   -0.01006   -0.00000   -0.01729
135 Li    0.01118    0.00138   -0.01671
136 Li   -0.00028   -0.00006    0.12426
137 Li    0.00104   -0.00180    0.12316
138 Li   -0.00157    0.00014   -0.05900
139 Li    0.00062   -0.00023   -0.06023
140 Li   -0.00638    0.02427   -0.08527
141 Li   -0.00268   -0.01082   -0.01794
142 Li    0.00489   -0.00883   -0.00423
143 Li    0.00982    0.00224    0.00111
144 Li   -0.02137    0.01823   -0.00539
145 Li    0.00433   -0.00489   -0.00809
146 Li   -0.00237   -0.00000    0.12574
147 Li    0.00104    0.00180    0.12316
148 Li   -0.00009   -0.00000   -0.05422
149 Li    0.00062    0.00023   -0.06023
150 Li    0.00367    0.00000   -0.03617
151 Li   -0.00268    0.01082   -0.01794
152 Li   -0.00760    0.00000   -0.00768
153 Li    0.00982   -0.00224    0.00111
154 Li   -0.00883   -0.00000   -0.00228
155 Li    0.00433    0.00489   -0.00809
156 Li   -0.00028    0.00006    0.12426
157 Li    0.00236    0.00023    0.12152
158 Li   -0.00157   -0.00014   -0.05900
159 Li    0.00012    0.00028   -0.06045
160 Li   -0.00638   -0.02427   -0.08527
161 Li   -0.00683    0.00251   -0.02259
162 Li    0.00489    0.00883   -0.00423
163 Li   -0.00877    0.00963    0.00032
164 Li   -0.02137   -0.01823   -0.00539
165 Li   -0.02374   -0.00655   -0.02398
166 Li    0.00080   -0.00000    0.12490
167 Li    0.00236   -0.00023    0.12152
168 Li   -0.00126   -0.00000   -0.05756
169 Li    0.00012   -0.00028   -0.06045
170 Li   -0.00533    0.00000   -0.05718
171 Li   -0.00683   -0.00251   -0.02259
172 Li   -0.00151    0.00000   -0.00884
173 Li   -0.00877   -0.00963    0.00032
174 Li   -0.01184   -0.00000   -0.01247
175 Li   -0.02374    0.00655   -0.02398
176 Li   -0.01063   -0.00000    0.03825

Timing:                                       incl.     excl.
--------------------------------------------------------------------
Basic WFS set positions:                      0.786     0.116   0.0% |
 Redistribute:                                0.671     0.671   0.0% |
Basis functions set positions:               21.586    21.586   0.1% |
Forces:                                    4453.261    50.208   0.2% |
 LCAO forces:                              4403.053     2.986   0.0% |
  Atomic Hamiltonian force:                 153.818   153.818   0.8% |
  Initial:                                    0.914     0.000   0.0% |
   Get density matrix:                        0.913     0.913   0.0% |
  Paw correction:                           132.184   132.184   0.7% |
  Potential:                               3998.762  3998.762  19.9% |-------|
  TCI derivative:                           114.384   114.384   0.6% |
  Wait for sum:                               0.005     0.005   0.0% |
LCAO WFS Initialize:                        773.245     0.551   0.0% |
 Density initialized from wave functions:   655.183    16.401   0.1% |
  Calculate density matrix:                   1.714     1.714   0.0% |
  Construct density:                        637.064   637.064   3.2% ||
  Symmetrize density:                         0.004     0.004   0.0% |
 Hamiltonian:                               117.510     0.008   0.0% |
  Atomic:                                    43.733     0.166   0.0% |
   XC Correction:                            43.568    43.568   0.2% |
  Calculate atomic Hamiltonians:              4.341     4.341   0.0% |
  Communicate:                                0.000     0.000   0.0% |
  Hartree integrate/restrict:                 1.527     1.527   0.0% |
  Initialize Hamiltonian:                     0.000     0.000   0.0% |
  Poisson:                                   29.113     3.902   0.0% |
   Communicate from 1D:                       3.465     3.465   0.0% |
   Communicate from 2D:                       2.143     2.143   0.0% |
   Communicate to 1D:                         1.550     1.550   0.0% |
   Communicate to 2D:                         5.216     5.216   0.0% |
   FFT 1D:                                    5.353     5.353   0.0% |
   FFT 2D:                                    7.484     7.484   0.0% |
  XC 3D grid:                                36.835    36.835   0.2% |
  vbar:                                       1.952     1.952   0.0% |
P tci:                                       47.688    47.688   0.2% |
Redistribute:                                 0.014     0.014   0.0% |
SCF-cycle:                                14692.290     0.921   0.0% |
 Density:                                  7435.467     0.013   0.0% |
  Atomic density matrices:                    2.781     2.781   0.0% |
  Mix:                                      108.284   108.284   0.5% |
  Multipole moments:                          0.554     0.554   0.0% |
  Normalize:                                  0.206     0.206   0.0% |
  Pseudo density:                          7323.629     2.867   0.0% |
   Calculate density matrix:                  5.326     5.326   0.0% |
   Construct density:                      7315.394  7315.394  36.4% |--------------|
   Symmetrize density:                        0.042     0.042   0.0% |
 Hamiltonian:                              1215.927     0.065   0.0% |
  Atomic:                                   506.644     2.819   0.0% |
   XC Correction:                           503.825   503.825   2.5% ||
  Calculate atomic Hamiltonians:             31.113    31.113   0.2% |
  Communicate:                                0.003     0.003   0.0% |
  Hartree integrate/restrict:                10.214    10.214   0.1% |
  Poisson:                                  270.395    18.773   0.1% |
   Communicate from 1D:                      34.106    34.106   0.2% |
   Communicate from 2D:                      22.707    22.707   0.1% |
   Communicate to 1D:                        16.929    16.929   0.1% |
   Communicate to 2D:                        40.700    40.700   0.2% |
   FFT 1D:                                   53.322    53.322   0.3% |
   FFT 2D:                                   83.858    83.858   0.4% |
  XC 3D grid:                               383.440   383.440   1.9% ||
  vbar:                                      14.053    14.053   0.1% |
 LCAO eigensolver:                         6039.975     3.314   0.0% |
  Calculate projections:                     13.543    13.543   0.1% |
  DenseAtomicCorrection:                    347.835   347.835   1.7% ||
  Distribute overlap matrix:                  1.870     1.870   0.0% |
  Orbital Layouts:                          426.713   426.713   2.1% ||
  Potential matrix:                        5223.155  5223.155  26.0% |---------|
  Sum over cells:                            23.546    23.546   0.1% |
ST tci:                                      35.366    35.366   0.2% |
Set symmetry:                                 0.000     0.000   0.0% |
TCI: Evaluate splines:                        0.005     0.005   0.0% |
mktci:                                        8.721     8.721   0.0% |
Other:                                       84.655    84.655   0.4% |
--------------------------------------------------------------------
Total:                                              20117.618 100.0%

Memory usage: 3.70 GiB
Date: Wed Nov 26 03:04:02 2025
