
  ___ ___ ___ _ _ _  
 |   |   |_  | | | | 
 | | | | | . | | | | 
 |__ |  _|___|_____|  25.7.0
 |___|_|             

User:   tew@Mathuss-MacBook-Air-357.local
Date:   Wed Nov 26 03:04:02 2025
Arch:   arm64
Pid:    56558
CWD:    /Users/tew/Documents/Project/GitHub/chem-com/step
Python: 3.13.5
gpaw:   /Users/tew/Documents/Project/GitHub/chem-com/.venv/lib/python3.13/site-packages/gpaw
_gpaw:  /Users/tew/Documents/Project/GitHub/chem-com/.venv/lib/python3.13/site-packages/
        _gpaw.cpython-313-darwin.so
ase:    /Users/tew/Documents/Project/GitHub/chem-com/.venv/lib/python3.13/site-packages/ase (version 3.26.0)
numpy:  /Users/tew/Documents/Project/GitHub/chem-com/.venv/lib/python3.13/site-packages/numpy (version 2.3.5)
scipy:  /Users/tew/Documents/Project/GitHub/chem-com/.venv/lib/python3.13/site-packages/scipy (version 1.16.3)
libxc:  2.x.y
units:  Angstrom and eV
cores: 1
OpenMP: False
OMP_NUM_THREADS: 1

Input parameters:
  basis: dzp
  convergence: {density: 0.0001,
                eigenstates: 5e-06}
  kpts: [2 2 1]
  mode: {interpolation: 3,
         name: lcao}
  occupations: {fixmagmom: False,
                name: fermi-dirac,
                width: 0.15}
  xc: PBE

System changes: positions, numbers, cell, pbc, initial_charges, initial_magmoms 

Initialize ...

species:
  Li:
    name: Lithium
    id: 830b4218f175192f93f959cfc0aad614
    Z: 3.0
    valence: 1
    core: 2
    charge: 0.0
    file: /Users/tew/Documents/Project/GitHub/chem-com/.venv/lib/python3.13/site-packages/gpaw_data/setups/Li.PBE.gz
    compensation charges: {type: gauss,
                           rc: 0.33,
                           lmax: 2}
    cutoffs: {filter: 1.91,
              core: 2.55}
    projectors:
      #              energy  rcut
      - 2s(1.00)    -2.874   1.058
      - 2p(0.00)    -1.090   1.058
      -  s          24.337   1.058
  
    # LCAO basis set for Li:
    #   Name: dzp
    #   File: /Users/tew/Documents/Project/GitHub/chem-com/.venv/lib/python3.13/site-packages/gpaw_data/setups/Li.dzp.basis.gz
    #   Number of radial functions: 3
    #   Number of spherical harmonics: 5
    #     l=0, rc=10.8906 Bohr: 2s-sz confined orbital
    #     l=0, rc=6.6719 Bohr: 2s-dz split-valence wave
    #     l=1, rc=10.8906 Bohr: p-type Gaussian polarization
    #   Number of RI-basis functions 0

Reference energy: -35893.444183  # eV

Spin-paired calculation

Convergence criteria:
 Maximum [total energy] change in last 3 cyles: 0.0005 eV / valence electron
 Maximum integral of absolute [dens]ity change: 0.0001 electrons / valence electron
 Maximum integral of absolute [eigenst]ate change: 5e-06 eV^2 / valence electron
 Maximum number of scf [iter]ations: 333
 (Square brackets indicate name in SCF output, whereas a 'c' in
 the SCF output indicates the quantity has converged.)

Symmetries present (total): 1

  ( 1  0  0)
  ( 0  1  0)
  ( 0  0  1)

4 k-points: 2 x 2 x 1 Monkhorst-Pack grid
2 k-points in the irreducible part of the Brillouin zone
       k-points in crystal coordinates                weights
   0:     0.25000000   -0.25000000    0.00000000          2/4
   1:     0.25000000    0.25000000    0.00000000          2/4

Wave functions: LCAO
  Diagonalizer: Serial LAPACK
  Atomic Correction: dense with blas
  Data-type: complex
 

Occupation numbers: Fermi-Dirac:
  width: 0.1500  # eV
 

Eigensolver
   LCAO using direct dense diagonalizer 

Densities:
  Coarse grid: 100*68*160 grid
  Fine grid: 200*136*320 grid
  Total Charge: 0.000000 

Density mixing:
  Method: separate
  Backend: pulay
  Linear mixing parameter: 0.05
  old densities: 5
  Damping of long wavelength oscillations: 50 

Hamiltonian:
  XC and Coulomb potentials evaluated on a 200*136*320 grid
  Using the PBE Exchange-Correlation functional
  Interpolation: tri-quintic (5. degree polynomial)
  Poisson solver: FastPoissonSolver using
    Stencil: 6*3+1=19 point O(h^6) finite-difference Laplacian
    FFT axes: [np.int64(0), np.int64(1)]
    FST axes: [np.int64(2)]
 

XC parameters: PBE with 2 nearest neighbor stencil

Memory estimate:
  Process memory now: 3793.11 MiB
  Calculator: 1570.72 MiB
    Density: 780.53 MiB
      Arrays: 215.09 MiB
      Localized functions: 482.94 MiB
      Mixer: 82.49 MiB
    Hamiltonian: 178.84 MiB
      Arrays: 140.65 MiB
      XC: 0.00 MiB
      Poisson: 0.00 MiB
      vbar: 38.19 MiB
    Wavefunctions: 611.36 MiB
      C [qnM]: 3.00 MiB
      S, T [2 x qmm]: 47.80 MiB
      P [aqMi]: 1.49 MiB
      BasisFunctions: 559.07 MiB
      Eigensolver: 0.00 MiB

Total number of cores used: 1

Number of atoms: 177
Number of atomic orbitals: 885
Number of bands in calculation: 111
Number of valence electrons: 177
Bands to converge: occupied

... initialized

Initializing position-dependent things.

Density initialized from atomic densities
          .------------------------------------------------.  
         /|                                                |  
        / |                                                |  
       /  |                                                |  
      /   |                                                |  
     /    |                                                |  
    /     |                                                |  
   /      |                                                |  
  /       |                                                |  
 *        |                                                |  
 |        |                                                |  
 |        |                                                |  
 |        |                                                |  
 |        |   LiLi          Li                             |  
 |        |          Li                                   Li  
 |        |   Li      Li  Li                               |  
 |     Li Li       Li                          Li          |  
 |        | Li Li       Li Li          Li           Li     |  
 |      Li|      Li Li          Li           Li      Li    |  
 |       Li  Li          Li Li       Li           Li       |  
 |    Li Li   Li  Li LLi      Li Li       Li  Li           |  
 |        |Li Li      Li  Li       Li Li        Li Li      |  
 |  Li Li |    Li  Li      Li  Li       Li Li              |  
 |      Li| Li Li       Li Li       Li Li    Li Li  Li     |  
 |      Li|      Li Li       Li LLi      Li  Li      Li    |  
 |       Li  Li       Li Li       Li Li       Li  Li       |  
 |Li Li  Li   Li  Li Li    Li Li Li    Li Li  Li           |  
 |        Li  Li       Li Li       Li Li       Li  Li      |  
 | Li  Li |    Li  Li       Li LLi      Li Li              |  
 |      Li| Li Li    Li Li Li    Li Li Li    Li Li  Li     |  
 |  Li  Li|      Li Li       Li Li       Li  Li            |  
 Li      Li  Li       Li Li       Li LLi      Li  Li       |  
 |Li Li   |   Li  Li       Li Li       Li Li               |  
 |        Li           Li          Li          Li          |  
 | Li  Li |    Li  Li       Li  Li      Li  Li             |  
 |        |                                                |  
 |      Li|          Li          Li          Li            |  
 Li       |  Li          Li           Li                   |  
 |        |                                                |  
 |        |                                                |  
 |        .------------------------------------------------.  
 |       /                                                /   
 |      /                                                /    
 |     /                                                /     
 |    /                                                /      
 |   /                                                /       
 |  /                                                /        
 | /                                                /         
 |/                                                /          
 *------------------------------------------------*           

Atomic positions and initial magnetic moments

Positions:
   0 Li     0.000000    0.000000   10.000000    ( 0.0000,  0.0000,  0.0000)
   1 Li     2.467803    1.745000   10.000000    ( 0.0000,  0.0000,  0.0000)
   2 Li     2.467803    0.000000   12.467803    ( 0.0000,  0.0000,  0.0000)
   3 Li     0.000000    1.745000   12.467803    ( 0.0000,  0.0000,  0.0000)
   4 Li     4.935605    0.000000   14.935605    ( 0.0000,  0.0000,  0.0000)
   5 Li     2.467803    1.745000   14.935605    ( 0.0000,  0.0000,  0.0000)
   6 Li     2.466631    0.053219   17.327801    ( 0.0000,  0.0000,  0.0000)
   7 Li     4.936770    1.727629   17.415733    ( 0.0000,  0.0000,  0.0000)
   8 Li     4.913371   -0.053880   19.885768    ( 0.0000,  0.0000,  0.0000)
   9 Li     2.522278    1.690111   19.833531    ( 0.0000,  0.0000,  0.0000)
  10 Li     2.429306   -0.132766   22.171074    ( 0.0000,  0.0000,  0.0000)
  11 Li    -0.114934    1.714156   22.042050    ( 0.0000,  0.0000,  0.0000)
  12 Li     0.000000    3.490000   10.000000    ( 0.0000,  0.0000,  0.0000)
  13 Li     2.467803    5.235000   10.000000    ( 0.0000,  0.0000,  0.0000)
  14 Li     2.467803    3.490000   12.467803    ( 0.0000,  0.0000,  0.0000)
  15 Li     0.000000    5.235000   12.467803    ( 0.0000,  0.0000,  0.0000)
  16 Li     4.935605    3.490000   14.935605    ( 0.0000,  0.0000,  0.0000)
  17 Li     2.467803    5.235000   14.935605    ( 0.0000,  0.0000,  0.0000)
  18 Li     2.474949    3.489053   17.403055    ( 0.0000,  0.0000,  0.0000)
  19 Li     4.937356    5.251546   17.412832    ( 0.0000,  0.0000,  0.0000)
  20 Li     4.863128    3.492920   19.840067    ( 0.0000,  0.0000,  0.0000)
  21 Li     2.522537    5.292183   19.828851    ( 0.0000,  0.0000,  0.0000)
  22 Li     2.400428    3.492833   22.142461    ( 0.0000,  0.0000,  0.0000)
  23 Li    -0.107789    5.277059   22.047994    ( 0.0000,  0.0000,  0.0000)
  24 Li     0.000000    6.980000   10.000000    ( 0.0000,  0.0000,  0.0000)
  25 Li     2.467803    8.725000   10.000000    ( 0.0000,  0.0000,  0.0000)
  26 Li     2.467803    6.980000   12.467803    ( 0.0000,  0.0000,  0.0000)
  27 Li     0.000000    8.725000   12.467803    ( 0.0000,  0.0000,  0.0000)
  28 Li     4.935605    6.980000   14.935605    ( 0.0000,  0.0000,  0.0000)
  29 Li     2.467803    8.725000   14.935605    ( 0.0000,  0.0000,  0.0000)
  30 Li     2.466624    6.922991   17.322704    ( 0.0000,  0.0000,  0.0000)
  31 Li     4.926305    8.693037   17.360373    ( 0.0000,  0.0000,  0.0000)
  32 Li     4.914216    7.032494   19.881899    ( 0.0000,  0.0000,  0.0000)
  33 Li     2.535458    8.636655   19.600482    ( 0.0000,  0.0000,  0.0000)
  34 Li     2.436601    7.111103   22.154046    ( 0.0000,  0.0000,  0.0000)
  35 Li     0.010937    8.853088   22.149307    ( 0.0000,  0.0000,  0.0000)
  36 Li     0.000000   10.470000   10.000000    ( 0.0000,  0.0000,  0.0000)
  37 Li     2.467803   12.215000   10.000000    ( 0.0000,  0.0000,  0.0000)
  38 Li     2.467803   10.470000   12.467803    ( 0.0000,  0.0000,  0.0000)
  39 Li     0.000000   12.215000   12.467803    ( 0.0000,  0.0000,  0.0000)
  40 Li     4.935605   10.470000   14.935605    ( 0.0000,  0.0000,  0.0000)
  41 Li     2.467803   12.215000   14.935605    ( 0.0000,  0.0000,  0.0000)
  42 Li     2.474995   10.474736   17.340377    ( 0.0000,  0.0000,  0.0000)
  43 Li     4.927989   12.247789   17.362953    ( 0.0000,  0.0000,  0.0000)
  44 Li     4.883317   10.468465   19.767539    ( 0.0000,  0.0000,  0.0000)
  45 Li     2.534778   12.301051   19.616260    ( 0.0000,  0.0000,  0.0000)
  46 Li     2.452790   10.468830   21.633140    ( 0.0000,  0.0000,  0.0000)
  47 Li    -0.010723   12.075696   22.136699    ( 0.0000,  0.0000,  0.0000)
  48 Li     4.935605    0.000000   10.000000    ( 0.0000,  0.0000,  0.0000)
  49 Li     7.403408    1.745000   10.000000    ( 0.0000,  0.0000,  0.0000)
  50 Li     7.403408    0.000000   12.467803    ( 0.0000,  0.0000,  0.0000)
  51 Li     4.935605    1.745000   12.467803    ( 0.0000,  0.0000,  0.0000)
  52 Li     9.871211    0.000000   14.935605    ( 0.0000,  0.0000,  0.0000)
  53 Li     7.403408    1.745000   14.935605    ( 0.0000,  0.0000,  0.0000)
  54 Li     7.399052   -0.001447   17.323814    ( 0.0000,  0.0000,  0.0000)
  55 Li     9.868681    1.743840   17.377423    ( 0.0000,  0.0000,  0.0000)
  56 Li     9.710397    0.000564   19.786220    ( 0.0000,  0.0000,  0.0000)
  57 Li     7.244630    1.741439   19.688416    ( 0.0000,  0.0000,  0.0000)
  58 Li     7.459246   -0.051336   22.023589    ( 0.0000,  0.0000,  0.0000)
  59 Li     4.958309    1.744668   22.171493    ( 0.0000,  0.0000,  0.0000)
  60 Li     4.935605    3.490000   10.000000    ( 0.0000,  0.0000,  0.0000)
  61 Li     7.403408    5.235000   10.000000    ( 0.0000,  0.0000,  0.0000)
  62 Li     7.403408    3.490000   12.467803    ( 0.0000,  0.0000,  0.0000)
  63 Li     4.935605    5.235000   12.467803    ( 0.0000,  0.0000,  0.0000)
  64 Li     9.871211    3.490000   14.935605    ( 0.0000,  0.0000,  0.0000)
  65 Li     7.403408    5.235000   14.935605    ( 0.0000,  0.0000,  0.0000)
  66 Li     7.383194    3.490294   17.326724    ( 0.0000,  0.0000,  0.0000)
  67 Li     9.868447    5.237170   17.378934    ( 0.0000,  0.0000,  0.0000)
  68 Li     9.722999    3.489508   19.761937    ( 0.0000,  0.0000,  0.0000)
  69 Li     7.245624    5.239875   19.687677    ( 0.0000,  0.0000,  0.0000)
  70 Li     7.514743    3.492995   22.011603    ( 0.0000,  0.0000,  0.0000)
  71 Li     4.954657    5.239504   22.178219    ( 0.0000,  0.0000,  0.0000)
  72 Li     4.935605    6.980000   10.000000    ( 0.0000,  0.0000,  0.0000)
  73 Li     7.403408    8.725000   10.000000    ( 0.0000,  0.0000,  0.0000)
  74 Li     7.403408    6.980000   12.467803    ( 0.0000,  0.0000,  0.0000)
  75 Li     4.935605    8.725000   12.467803    ( 0.0000,  0.0000,  0.0000)
  76 Li     9.871211    6.980000   14.935605    ( 0.0000,  0.0000,  0.0000)
  77 Li     7.403408    8.725000   14.935605    ( 0.0000,  0.0000,  0.0000)
  78 Li     7.397700    6.981084   17.322524    ( 0.0000,  0.0000,  0.0000)
  79 Li     9.868631    8.727809   17.383409    ( 0.0000,  0.0000,  0.0000)
  80 Li     9.708339    6.980731   19.790155    ( 0.0000,  0.0000,  0.0000)
  81 Li     7.252598    8.751750   19.666964    ( 0.0000,  0.0000,  0.0000)
  82 Li     7.452373    7.034023   22.024386    ( 0.0000,  0.0000,  0.0000)
  83 Li     4.896547    8.835075   22.266217    ( 0.0000,  0.0000,  0.0000)
  84 Li     4.935605   10.470000   10.000000    ( 0.0000,  0.0000,  0.0000)
  85 Li     7.403408   12.215000   10.000000    ( 0.0000,  0.0000,  0.0000)
  86 Li     7.403408   10.470000   12.467803    ( 0.0000,  0.0000,  0.0000)
  87 Li     4.935605   12.215000   12.467803    ( 0.0000,  0.0000,  0.0000)
  88 Li     9.871211   10.470000   14.935605    ( 0.0000,  0.0000,  0.0000)
  89 Li     7.403408   12.215000   14.935605    ( 0.0000,  0.0000,  0.0000)
  90 Li     7.375951   10.470069   17.311141    ( 0.0000,  0.0000,  0.0000)
  91 Li     9.868967   12.211181   17.382956    ( 0.0000,  0.0000,  0.0000)
  92 Li     9.720606   10.469197   19.786042    ( 0.0000,  0.0000,  0.0000)
  93 Li     7.253967   12.186936   19.669341    ( 0.0000,  0.0000,  0.0000)
  94 Li     7.497238   10.464317   22.024523    ( 0.0000,  0.0000,  0.0000)
  95 Li     4.904491   12.100753   22.261086    ( 0.0000,  0.0000,  0.0000)
  96 Li     9.871211    0.000000   10.000000    ( 0.0000,  0.0000,  0.0000)
  97 Li    12.339013    1.745000   10.000000    ( 0.0000,  0.0000,  0.0000)
  98 Li    12.339013    0.000000   12.467803    ( 0.0000,  0.0000,  0.0000)
  99 Li     9.871211    1.745000   12.467803    ( 0.0000,  0.0000,  0.0000)
 100 Li    14.806816    0.000000   14.935605    ( 0.0000,  0.0000,  0.0000)
 101 Li    12.339013    1.745000   14.935605    ( 0.0000,  0.0000,  0.0000)
 102 Li    12.338627    0.000137   17.331280    ( 0.0000,  0.0000,  0.0000)
 103 Li    14.807073    1.746558   17.328441    ( 0.0000,  0.0000,  0.0000)
 104 Li    14.868781   -0.001441   19.675565    ( 0.0000,  0.0000,  0.0000)
 105 Li    12.280352    1.743492   19.675887    ( 0.0000,  0.0000,  0.0000)
 106 Li     9.871211    3.490000   10.000000    ( 0.0000,  0.0000,  0.0000)
 107 Li    12.339013    5.235000   10.000000    ( 0.0000,  0.0000,  0.0000)
 108 Li    12.339013    3.490000   12.467803    ( 0.0000,  0.0000,  0.0000)
 109 Li     9.871211    5.235000   12.467803    ( 0.0000,  0.0000,  0.0000)
 110 Li    14.806816    3.490000   14.935605    ( 0.0000,  0.0000,  0.0000)
 111 Li    12.339013    5.235000   14.935605    ( 0.0000,  0.0000,  0.0000)
 112 Li    12.337918    3.490133   17.330866    ( 0.0000,  0.0000,  0.0000)
 113 Li    14.807474    5.233754   17.328466    ( 0.0000,  0.0000,  0.0000)
 114 Li    14.861824    3.490118   19.674810    ( 0.0000,  0.0000,  0.0000)
 115 Li    12.280130    5.237372   19.675917    ( 0.0000,  0.0000,  0.0000)
 116 Li     9.871211    6.980000   10.000000    ( 0.0000,  0.0000,  0.0000)
 117 Li    12.339013    8.725000   10.000000    ( 0.0000,  0.0000,  0.0000)
 118 Li    12.339013    6.980000   12.467803    ( 0.0000,  0.0000,  0.0000)
 119 Li     9.871211    8.725000   12.467803    ( 0.0000,  0.0000,  0.0000)
 120 Li    14.806816    6.980000   14.935605    ( 0.0000,  0.0000,  0.0000)
 121 Li    12.339013    8.725000   14.935605    ( 0.0000,  0.0000,  0.0000)
 122 Li    12.338979    6.979875   17.331041    ( 0.0000,  0.0000,  0.0000)
 123 Li    14.801855    8.726693   17.325351    ( 0.0000,  0.0000,  0.0000)
 124 Li    14.871488    6.982503   19.675512    ( 0.0000,  0.0000,  0.0000)
 125 Li    12.279833    8.724793   19.676187    ( 0.0000,  0.0000,  0.0000)
 126 Li     9.871211   10.470000   10.000000    ( 0.0000,  0.0000,  0.0000)
 127 Li    12.339013   12.215000   10.000000    ( 0.0000,  0.0000,  0.0000)
 128 Li    12.339013   10.470000   12.467803    ( 0.0000,  0.0000,  0.0000)
 129 Li     9.871211   12.215000   12.467803    ( 0.0000,  0.0000,  0.0000)
 130 Li    14.806816   10.470000   14.935605    ( 0.0000,  0.0000,  0.0000)
 131 Li    12.339013   12.215000   14.935605    ( 0.0000,  0.0000,  0.0000)
 132 Li    12.340542   10.469855   17.330224    ( 0.0000,  0.0000,  0.0000)
 133 Li    14.803035   12.212994   17.326304    ( 0.0000,  0.0000,  0.0000)
 134 Li    14.869763   10.468820   19.672577    ( 0.0000,  0.0000,  0.0000)
 135 Li    12.279694   12.214343   19.676371    ( 0.0000,  0.0000,  0.0000)
 136 Li    14.806816    0.000000   10.000000    ( 0.0000,  0.0000,  0.0000)
 137 Li    17.274619    1.745000   10.000000    ( 0.0000,  0.0000,  0.0000)
 138 Li    17.274619    0.000000   12.467803    ( 0.0000,  0.0000,  0.0000)
 139 Li    14.806816    1.745000   12.467803    ( 0.0000,  0.0000,  0.0000)
 140 Li    19.742421    0.000000   14.935605    ( 0.0000,  0.0000,  0.0000)
 141 Li    17.274619    1.745000   14.935605    ( 0.0000,  0.0000,  0.0000)
 142 Li    17.269994   -0.014159   17.394920    ( 0.0000,  0.0000,  0.0000)
 143 Li    19.742598    1.736433   17.353198    ( 0.0000,  0.0000,  0.0000)
 144 Li    19.885263   -0.052107   19.730689    ( 0.0000,  0.0000,  0.0000)
 145 Li    17.425222    1.755853   19.766496    ( 0.0000,  0.0000,  0.0000)
 146 Li    14.806816    3.490000   10.000000    ( 0.0000,  0.0000,  0.0000)
 147 Li    17.274619    5.235000   10.000000    ( 0.0000,  0.0000,  0.0000)
 148 Li    17.274619    3.490000   12.467803    ( 0.0000,  0.0000,  0.0000)
 149 Li    14.806816    5.235000   12.467803    ( 0.0000,  0.0000,  0.0000)
 150 Li    19.742421    3.490000   14.935605    ( 0.0000,  0.0000,  0.0000)
 151 Li    17.274619    5.235000   14.935605    ( 0.0000,  0.0000,  0.0000)
 152 Li    17.276886    3.490734   17.371822    ( 0.0000,  0.0000,  0.0000)
 153 Li    19.742156    5.242426   17.349987    ( 0.0000,  0.0000,  0.0000)
 154 Li    19.910699    3.492528   19.716043    ( 0.0000,  0.0000,  0.0000)
 155 Li    17.426430    5.222218   19.771117    ( 0.0000,  0.0000,  0.0000)
 156 Li    14.806816    6.980000   10.000000    ( 0.0000,  0.0000,  0.0000)
 157 Li    17.274619    8.725000   10.000000    ( 0.0000,  0.0000,  0.0000)
 158 Li    17.274619    6.980000   12.467803    ( 0.0000,  0.0000,  0.0000)
 159 Li    14.806816    8.725000   12.467803    ( 0.0000,  0.0000,  0.0000)
 160 Li    19.742421    6.980000   14.935605    ( 0.0000,  0.0000,  0.0000)
 161 Li    17.274619    8.725000   14.935605    ( 0.0000,  0.0000,  0.0000)
 162 Li    17.271878    6.996508   17.400343    ( 0.0000,  0.0000,  0.0000)
 163 Li    19.769612    8.695826   17.302039    ( 0.0000,  0.0000,  0.0000)
 164 Li    19.885562    7.030679   19.725802    ( 0.0000,  0.0000,  0.0000)
 165 Li    17.451541    8.738898   19.862570    ( 0.0000,  0.0000,  0.0000)
 166 Li    14.806816   10.470000   10.000000    ( 0.0000,  0.0000,  0.0000)
 167 Li    17.274619   12.215000   10.000000    ( 0.0000,  0.0000,  0.0000)
 168 Li    17.274619   10.470000   12.467803    ( 0.0000,  0.0000,  0.0000)
 169 Li    14.806816   12.215000   12.467803    ( 0.0000,  0.0000,  0.0000)
 170 Li    19.742421   10.470000   14.935605    ( 0.0000,  0.0000,  0.0000)
 171 Li    17.274619   12.215000   14.935605    ( 0.0000,  0.0000,  0.0000)
 172 Li    17.292927   10.466917   17.408319    ( 0.0000,  0.0000,  0.0000)
 173 Li    19.766234   12.245316   17.303646    ( 0.0000,  0.0000,  0.0000)
 174 Li    19.895484   10.468900   19.622742    ( 0.0000,  0.0000,  0.0000)
 175 Li    17.445413   12.203031   19.847491    ( 0.0000,  0.0000,  0.0000)
 176 Li     2.475293   10.179167   24.160346    ( 0.0000,  0.0000,  0.0000)

Unit cell:
           periodic     x           y           z      points  spacing
  1. axis:    yes   19.742421    0.000000    0.000000   100     0.1974
  2. axis:    yes    0.000000   13.960000    0.000000    68     0.2053
  3. axis:    no     0.000000    0.000000   32.339013   160     0.2021

  Lengths:  19.742421  13.960000  32.339013
  Angles:   90.000000  90.000000  90.000000

Effective grid spacing dv^(1/3) = 0.2016

     iter     time        total  log10-change:
                         energy   eigst   dens
iter:   1 05:19:05  -329.035222        c
iter:   2 05:19:52  -318.075591        c -0.66
iter:   3 05:20:45  -315.587325        c -0.85
iter:   4 05:21:37  -314.620358        c -0.92
iter:   5 05:22:29  -311.930118        c -0.97
iter:   6 05:23:19  -311.163342        c -1.18
iter:   7 05:24:12  -310.856203        c -1.30
iter:   8 05:24:56  -310.632795        c -1.41
iter:   9 05:25:42  -310.549912        c -1.58
iter:  10 05:26:26  -310.510388        c -1.70
iter:  11 05:27:12  -310.485673c       c -1.81
iter:  12 05:27:56  -310.475455c       c -1.90
iter:  13 05:28:42  -310.461086c       c -1.96
iter:  14 05:29:27  -310.457662c       c -2.11
iter:  15 05:30:09  -310.454959c       c -2.19
iter:  16 05:30:51  -310.454347c       c -2.27
iter:  17 05:31:36  -310.453583c       c -2.34
iter:  18 05:32:23  -310.451998c       c -2.39
iter:  19 05:33:07  -310.451669c       c -2.50
iter:  20 05:33:53  -310.450798c       c -2.55
iter:  21 05:34:36  -310.450604c       c -2.64
iter:  22 05:35:21  -310.450262c       c -2.73
iter:  23 05:36:05  -310.450093c       c -2.80
iter:  24 05:36:50  -310.450119c       c -2.87
iter:  25 05:37:36  -310.449846c       c -2.96
iter:  26 05:38:23  -310.449855c       c -3.05
iter:  27 05:39:09  -310.449730c       c -3.13
iter:  28 05:39:56  -310.449783c       c -3.27
iter:  29 05:40:42  -310.449785c       c -3.36
iter:  30 05:41:24  -310.449765c       c -3.41
iter:  31 05:42:10  -310.449822c       c -3.47
iter:  32 05:42:57  -310.449800c       c -3.54
iter:  33 05:43:46  -310.449811c       c -3.60
iter:  34 05:44:31  -310.449782c       c -3.66
iter:  35 05:45:16  -310.449776c       c -3.72
iter:  36 05:46:01  -310.449777c       c -3.81
iter:  37 05:46:47  -310.449747c       c -3.87
iter:  38 05:47:33  -310.449758c       c -3.92
iter:  39 05:48:20  -310.449750c       c -4.07c

Converged after 39 iterations.

Dipole moment: (-40.229671, -14.858841, 0.741192) |e|*Ang

Energy contributions relative to reference atoms: (reference = -35893.444183)

Kinetic:       +328.438009
Potential:     -279.514851
External:        +0.000000
XC:            -354.269801
Entropy (-ST):   -5.741577
Local:           -2.232319
SIC:             +0.000000
--------------------------
Free energy:   -313.320539
Extrapolated:  -310.449750

Showing all kpts
 Kpt  Band  Eigenvalues  Occupancy
  0    86     -2.89143    1.13531
  0    87     -2.87476    1.08040
  0    88     -2.84823    0.99214
  0    89     -2.83554    0.94988

  1    86     -2.89145    1.13538
  1    87     -2.87472    1.08026
  1    88     -2.84869    0.99368
  1    89     -2.83503    0.94818


Fermi level: -2.85059

Gap: 0.026 eV
Transition (v -> c):
  (s=0, k=1, n=87, [0.25, 0.25, 0.00]) -> (s=0, k=1, n=88, [0.25, 0.25, 0.00])
No difference between direct/indirect transitions

Forces in eV/Ang:
  0 Li   -0.00124   -0.00131    0.12716
  1 Li   -0.00412   -0.00160    0.12543
  2 Li    0.00123   -0.00086   -0.05623
  3 Li   -0.00088    0.00121   -0.06017
  4 Li   -0.00121    0.01903   -0.05579
  5 Li    0.00297    0.02610   -0.06918
  6 Li   -0.00296    0.00592   -0.01987
  7 Li   -0.00480    0.00019   -0.00896
  8 Li    0.01217    0.01177   -0.00527
  9 Li   -0.01735    0.01119    0.01342
 10 Li    0.00871    0.00358   -0.03072
 11 Li    0.01266   -0.01030   -0.01469
 12 Li   -0.00057    0.00031    0.12606
 13 Li   -0.00394    0.00171    0.12577
 14 Li    0.00117   -0.00026   -0.06551
 15 Li   -0.00078   -0.00100   -0.05906
 16 Li   -0.00861   -0.00041   -0.00709
 17 Li    0.00307   -0.02959   -0.07291
 18 Li   -0.00504    0.00149   -0.00623
 19 Li   -0.00528   -0.00048   -0.00894
 20 Li    0.01935    0.00009    0.00271
 21 Li   -0.01780   -0.01418    0.01263
 22 Li    0.01142   -0.00065   -0.04059
 23 Li    0.01024    0.00568   -0.01770
 24 Li   -0.00134    0.00101    0.12656
 25 Li   -0.00360   -0.00040    0.12296
 26 Li    0.00132    0.00122   -0.05485
 27 Li   -0.00010    0.00016   -0.05214
 28 Li   -0.00093   -0.01940   -0.05726
 29 Li    0.00532   -0.00975   -0.03944
 30 Li   -0.00288   -0.00849   -0.02117
 31 Li    0.01263    0.00646   -0.00557
 32 Li    0.01595   -0.01475   -0.01002
 33 Li   -0.01478   -0.00336   -0.02483
 34 Li    0.00771    0.04394    0.01515
 35 Li    0.02619    0.00452   -0.01947
 36 Li   -0.00164    0.00002    0.12446
 37 Li   -0.00370    0.00028    0.12345
 38 Li    0.00111   -0.00017   -0.05502
 39 Li   -0.00016   -0.00028   -0.05245
 40 Li   -0.00153    0.00112   -0.03824
 41 Li    0.00529    0.01281   -0.04415
 42 Li   -0.00153   -0.00009    0.01035
 43 Li    0.01098   -0.00556   -0.00715
 44 Li    0.02215    0.00185   -0.01635
 45 Li   -0.01502    0.00969   -0.02638
 46 Li   -0.01259    0.02568   -0.15731
 47 Li    0.02586   -0.01811   -0.01109
 48 Li    0.00314   -0.00193    0.12810
 49 Li    0.00150   -0.00157    0.12632
 50 Li    0.00040    0.00007   -0.05867
 51 Li   -0.00071    0.00144   -0.06432
 52 Li    0.00500   -0.00186   -0.03036
 53 Li    0.00126   -0.00211   -0.06544
 54 Li   -0.00220   -0.00145    0.00954
 55 Li   -0.00110   -0.00205   -0.00834
 56 Li    0.00564   -0.00159   -0.01398
 57 Li    0.01284    0.00095    0.00011
 58 Li   -0.00675    0.00308   -0.01805
 59 Li   -0.01510   -0.00479   -0.02173
 60 Li    0.00262    0.00047    0.12682
 61 Li    0.00102    0.00166    0.12609
 62 Li   -0.00054   -0.00009   -0.05542
 63 Li   -0.00091   -0.00141   -0.06407
 64 Li    0.00245    0.00047   -0.02941
 65 Li    0.00156    0.00162   -0.06619
 66 Li    0.00400   -0.00047    0.00743
 67 Li   -0.00123    0.00214   -0.00869
 68 Li    0.00223    0.00005   -0.01041
 69 Li    0.01231   -0.00139    0.00029
 70 Li   -0.01315   -0.00073   -0.00753
 71 Li   -0.01233    0.00120   -0.02483
 72 Li    0.00319    0.00157    0.12757
 73 Li   -0.00064    0.00023    0.12481
 74 Li    0.00038    0.00007   -0.05852
 75 Li   -0.00204   -0.00019   -0.05754
 76 Li    0.00476    0.00173   -0.03008
 77 Li    0.00484   -0.00440   -0.07711
 78 Li   -0.00128    0.00162    0.00924
 79 Li   -0.00165    0.00119   -0.00854
 80 Li    0.00700    0.00121   -0.01489
 81 Li    0.02654   -0.01145    0.00044
 82 Li   -0.00480   -0.00428   -0.01902
 83 Li   -0.02397    0.00477   -0.03438
 84 Li    0.00377   -0.00008    0.12486
 85 Li   -0.00044   -0.00038    0.12470
 86 Li    0.00084   -0.00016   -0.05602
 87 Li   -0.00190    0.00030   -0.05792
 88 Li    0.00269   -0.00032   -0.02925
 89 Li    0.00417    0.00466   -0.07678
 90 Li   -0.00056   -0.00012   -0.00159
 91 Li   -0.00135   -0.00132   -0.00859
 92 Li    0.01089    0.00039   -0.01564
 93 Li    0.02790    0.01113   -0.00056
 94 Li    0.00254    0.00092   -0.01250
 95 Li   -0.02869   -0.02323   -0.01927
 96 Li   -0.00018   -0.00020    0.12334
 97 Li    0.00055    0.00068    0.12327
 98 Li   -0.00018    0.00038   -0.05973
 99 Li    0.00131    0.00011   -0.05806
100 Li   -0.00417    0.00061   -0.05514
101 Li    0.00438    0.00007   -0.05521
102 Li   -0.00225   -0.00041    0.03039
103 Li    0.00381   -0.00259    0.03279
104 Li   -0.00655   -0.00204   -0.01648
105 Li    0.00766   -0.00119   -0.01514
106 Li    0.00139   -0.00005    0.12485
107 Li    0.00039   -0.00067    0.12345
108 Li   -0.00046    0.00002   -0.05940
109 Li    0.00144   -0.00017   -0.05811
110 Li   -0.00484   -0.00007   -0.05857
111 Li    0.00438   -0.00007   -0.05509
112 Li   -0.00278    0.00022    0.03136
113 Li    0.00386    0.00309    0.03287
114 Li   -0.01030    0.00008   -0.01772
115 Li    0.00808    0.00131   -0.01493
116 Li   -0.00021    0.00026    0.12323
117 Li   -0.00003   -0.00021    0.12440
118 Li   -0.00012   -0.00044   -0.05982
119 Li    0.00182    0.00007   -0.05932
120 Li   -0.00386   -0.00054   -0.05506
121 Li    0.00338   -0.00005   -0.05475
122 Li   -0.00239    0.00009    0.03014
123 Li    0.00284    0.00290    0.03234
124 Li   -0.00721    0.00189   -0.01620
125 Li    0.01015   -0.00114   -0.01496
126 Li   -0.00074    0.00000    0.12349
127 Li    0.00007    0.00023    0.12432
128 Li    0.00024    0.00007   -0.05903
129 Li    0.00182    0.00006   -0.05929
130 Li   -0.00035   -0.00005   -0.05510
131 Li    0.00356    0.00008   -0.05469
132 Li   -0.00402    0.00007    0.03230
133 Li    0.00304   -0.00336    0.03219
134 Li   -0.00944    0.00007   -0.01536
135 Li    0.01018    0.00102   -0.01501
136 Li   -0.00052   -0.00006    0.12413
137 Li    0.00098   -0.00155    0.12296
138 Li   -0.00147    0.00008   -0.05893
139 Li    0.00034   -0.00019   -0.06034
140 Li   -0.00573    0.02182   -0.08525
141 Li   -0.00274   -0.00943   -0.02121
142 Li    0.00433   -0.00749   -0.00297
143 Li    0.00790    0.00159    0.00235
144 Li   -0.01740    0.01256   -0.00055
145 Li    0.00265   -0.00389   -0.00772
146 Li   -0.00216   -0.00008    0.12556
147 Li    0.00128    0.00173    0.12278
148 Li   -0.00041   -0.00006   -0.05482
149 Li    0.00044    0.00013   -0.06027
150 Li    0.00295   -0.00103   -0.04304
151 Li   -0.00292    0.01080   -0.02022
152 Li   -0.00602   -0.00017   -0.00598
153 Li    0.00805   -0.00199    0.00208
154 Li   -0.00847    0.00055   -0.00159
155 Li    0.00255    0.00429   -0.00772
156 Li   -0.00007    0.00019    0.12412
157 Li    0.00227    0.00015    0.12132
158 Li   -0.00167   -0.00009   -0.05908
159 Li    0.00000    0.00030   -0.06068
160 Li   -0.00627   -0.02143   -0.08497
161 Li   -0.00691    0.00221   -0.02489
162 Li    0.00370    0.00705   -0.00414
163 Li   -0.00878    0.00783    0.00175
164 Li   -0.01974   -0.01531   -0.00634
165 Li   -0.02191   -0.00566   -0.02402
166 Li    0.00072   -0.00010    0.12459
167 Li    0.00241   -0.00036    0.12144
168 Li   -0.00126   -0.00006   -0.05770
169 Li   -0.00002   -0.00025   -0.06054
170 Li   -0.00542    0.00090   -0.06096
171 Li   -0.00656   -0.00378   -0.02443
172 Li   -0.00171    0.00024   -0.00796
173 Li   -0.00788   -0.00706    0.00017
174 Li   -0.00773    0.00085   -0.01036
175 Li   -0.02064    0.00578   -0.02149
176 Li   -0.00746   -0.03167    0.09341

System changes: positions 

Initializing position-dependent things.

Density initialized from wave functions
          .------------------------------------------------.  
         /|                                                |  
        / |                                                |  
       /  |                                                |  
      /   |                                                |  
     /    |                                                |  
    /     |                                                |  
   /      |                                                |  
  /       |                                                |  
 *        |                                                |  
 |        |                                                |  
 |        |                                                |  
 |        |                                                |  
 |        |   LiLi          Li                             |  
 |        |          Li                                   Li  
 |        |   Li      Li  Li                               |  
 |     Li Li       Li                          Li          |  
 |        | Li Li       Li Li          Li           Li     |  
 |      Li|      Li Li          Li           Li      Li    |  
 |       Li  Li          Li Li       Li           Li       |  
 |    Li Li   Li  Li LLi      Li Li       Li  Li           |  
 |        |Li Li      Li  Li       Li Li        Li Li      |  
 |  Li Li |    Li  Li      Li  Li       Li Li              |  
 |      Li| Li Li       Li Li       Li Li    Li Li  Li     |  
 |      Li|      Li Li       Li LLi      Li  Li      Li    |  
 |       Li  Li       Li Li       Li Li       Li  Li       |  
 |Li Li  Li   Li  Li Li    Li Li Li    Li Li  Li           |  
 |        Li  Li       Li Li       Li Li       Li  Li      |  
 | Li  Li |    Li  Li       Li LLi      Li Li              |  
 |      Li| Li Li    Li Li Li    Li Li Li    Li Li  Li     |  
 |  Li  Li|      Li Li       Li Li       Li  Li            |  
 Li      Li  Li       Li Li       Li LLi      Li  Li       |  
 |Li Li   |   Li  Li       Li Li       Li Li               |  
 |        Li           Li          Li          Li          |  
 | Li  Li |    Li  Li       Li  Li      Li  Li             |  
 |        |                                                |  
 |      Li|          Li          Li          Li            |  
 Li       |  Li          Li           Li                   |  
 |        |                                                |  
 |        |                                                |  
 |        .------------------------------------------------.  
 |       /                                                /   
 |      /                                                /    
 |     /                                                /     
 |    /                                                /      
 |   /                                                /       
 |  /                                                /        
 | /                                                /         
 |/                                                /          
 *------------------------------------------------*           

Atomic positions and initial magnetic moments

Positions:
   0 Li     0.000000    0.000000   10.000000    ( 0.0000,  0.0000,  0.0000)
   1 Li     2.467803    1.745000   10.000000    ( 0.0000,  0.0000,  0.0000)
   2 Li     2.467803    0.000000   12.467803    ( 0.0000,  0.0000,  0.0000)
   3 Li     0.000000    1.745000   12.467803    ( 0.0000,  0.0000,  0.0000)
   4 Li     4.935605    0.000000   14.935605    ( 0.0000,  0.0000,  0.0000)
   5 Li     2.467803    1.745000   14.935605    ( 0.0000,  0.0000,  0.0000)
   6 Li     2.466601    0.053281   17.327601    ( 0.0000,  0.0000,  0.0000)
   7 Li     4.936722    1.727630   17.415645    ( 0.0000,  0.0000,  0.0000)
   8 Li     4.913494   -0.053764   19.885720    ( 0.0000,  0.0000,  0.0000)
   9 Li     2.522105    1.690219   19.833669    ( 0.0000,  0.0000,  0.0000)
  10 Li     2.429394   -0.132737   22.170771    ( 0.0000,  0.0000,  0.0000)
  11 Li    -0.114807    1.714051   22.041906    ( 0.0000,  0.0000,  0.0000)
  12 Li     0.000000    3.490000   10.000000    ( 0.0000,  0.0000,  0.0000)
  13 Li     2.467803    5.235000   10.000000    ( 0.0000,  0.0000,  0.0000)
  14 Li     2.467803    3.490000   12.467803    ( 0.0000,  0.0000,  0.0000)
  15 Li     0.000000    5.235000   12.467803    ( 0.0000,  0.0000,  0.0000)
  16 Li     4.935605    3.490000   14.935605    ( 0.0000,  0.0000,  0.0000)
  17 Li     2.467803    5.235000   14.935605    ( 0.0000,  0.0000,  0.0000)
  18 Li     2.474899    3.489069   17.402996    ( 0.0000,  0.0000,  0.0000)
  19 Li     4.937304    5.251542   17.412746    ( 0.0000,  0.0000,  0.0000)
  20 Li     4.863319    3.492920   19.840096    ( 0.0000,  0.0000,  0.0000)
  21 Li     2.522359    5.292044   19.828983    ( 0.0000,  0.0000,  0.0000)
  22 Li     2.400541    3.492826   22.142059    ( 0.0000,  0.0000,  0.0000)
  23 Li    -0.107687    5.277115   22.047818    ( 0.0000,  0.0000,  0.0000)
  24 Li     0.000000    6.980000   10.000000    ( 0.0000,  0.0000,  0.0000)
  25 Li     2.467803    8.725000   10.000000    ( 0.0000,  0.0000,  0.0000)
  26 Li     2.467803    6.980000   12.467803    ( 0.0000,  0.0000,  0.0000)
  27 Li     0.000000    8.725000   12.467803    ( 0.0000,  0.0000,  0.0000)
  28 Li     4.935605    6.980000   14.935605    ( 0.0000,  0.0000,  0.0000)
  29 Li     2.467803    8.725000   14.935605    ( 0.0000,  0.0000,  0.0000)
  30 Li     2.466594    6.922905   17.322493    ( 0.0000,  0.0000,  0.0000)
  31 Li     4.926432    8.693099   17.360318    ( 0.0000,  0.0000,  0.0000)
  32 Li     4.914377    7.032349   19.881804    ( 0.0000,  0.0000,  0.0000)
  33 Li     2.535311    8.636616   19.600231    ( 0.0000,  0.0000,  0.0000)
  34 Li     2.436677    7.111550   22.154208    ( 0.0000,  0.0000,  0.0000)
  35 Li     0.011197    8.853142   22.149115    ( 0.0000,  0.0000,  0.0000)
  36 Li     0.000000   10.470000   10.000000    ( 0.0000,  0.0000,  0.0000)
  37 Li     2.467803   12.215000   10.000000    ( 0.0000,  0.0000,  0.0000)
  38 Li     2.467803   10.470000   12.467803    ( 0.0000,  0.0000,  0.0000)
  39 Li     0.000000   12.215000   12.467803    ( 0.0000,  0.0000,  0.0000)
  40 Li     4.935605   10.470000   14.935605    ( 0.0000,  0.0000,  0.0000)
  41 Li     2.467803   12.215000   14.935605    ( 0.0000,  0.0000,  0.0000)
  42 Li     2.474980   10.474734   17.340482    ( 0.0000,  0.0000,  0.0000)
  43 Li     4.928098   12.247735   17.362882    ( 0.0000,  0.0000,  0.0000)
  44 Li     4.883538   10.468484   19.767374    ( 0.0000,  0.0000,  0.0000)
  45 Li     2.534629   12.301154   19.615988    ( 0.0000,  0.0000,  0.0000)
  46 Li     2.452664   10.469087   21.631545    ( 0.0000,  0.0000,  0.0000)
  47 Li    -0.010460   12.075511   22.136594    ( 0.0000,  0.0000,  0.0000)
  48 Li     4.935605    0.000000   10.000000    ( 0.0000,  0.0000,  0.0000)
  49 Li     7.403408    1.745000   10.000000    ( 0.0000,  0.0000,  0.0000)
  50 Li     7.403408    0.000000   12.467803    ( 0.0000,  0.0000,  0.0000)
  51 Li     4.935605    1.745000   12.467803    ( 0.0000,  0.0000,  0.0000)
  52 Li     9.871211    0.000000   14.935605    ( 0.0000,  0.0000,  0.0000)
  53 Li     7.403408    1.745000   14.935605    ( 0.0000,  0.0000,  0.0000)
  54 Li     7.399031   -0.001461   17.323911    ( 0.0000,  0.0000,  0.0000)
  55 Li     9.868670    1.743819   17.377341    ( 0.0000,  0.0000,  0.0000)
  56 Li     9.710452    0.000548   19.786084    ( 0.0000,  0.0000,  0.0000)
  57 Li     7.244758    1.741448   19.688419    ( 0.0000,  0.0000,  0.0000)
  58 Li     7.459176   -0.051307   22.023410    ( 0.0000,  0.0000,  0.0000)
  59 Li     4.958157    1.744620   22.171279    ( 0.0000,  0.0000,  0.0000)
  60 Li     4.935605    3.490000   10.000000    ( 0.0000,  0.0000,  0.0000)
  61 Li     7.403408    5.235000   10.000000    ( 0.0000,  0.0000,  0.0000)
  62 Li     7.403408    3.490000   12.467803    ( 0.0000,  0.0000,  0.0000)
  63 Li     4.935605    5.235000   12.467803    ( 0.0000,  0.0000,  0.0000)
  64 Li     9.871211    3.490000   14.935605    ( 0.0000,  0.0000,  0.0000)
  65 Li     7.403408    5.235000   14.935605    ( 0.0000,  0.0000,  0.0000)
  66 Li     7.383233    3.490290   17.326800    ( 0.0000,  0.0000,  0.0000)
  67 Li     9.868435    5.237192   17.378848    ( 0.0000,  0.0000,  0.0000)
  68 Li     9.723021    3.489509   19.761834    ( 0.0000,  0.0000,  0.0000)
  69 Li     7.245747    5.239861   19.687681    ( 0.0000,  0.0000,  0.0000)
  70 Li     7.514612    3.492987   22.011529    ( 0.0000,  0.0000,  0.0000)
  71 Li     4.954534    5.239515   22.177971    ( 0.0000,  0.0000,  0.0000)
  72 Li     4.935605    6.980000   10.000000    ( 0.0000,  0.0000,  0.0000)
  73 Li     7.403408    8.725000   10.000000    ( 0.0000,  0.0000,  0.0000)
  74 Li     7.403408    6.980000   12.467803    ( 0.0000,  0.0000,  0.0000)
  75 Li     4.935605    8.725000   12.467803    ( 0.0000,  0.0000,  0.0000)
  76 Li     9.871211    6.980000   14.935605    ( 0.0000,  0.0000,  0.0000)
  77 Li     7.403408    8.725000   14.935605    ( 0.0000,  0.0000,  0.0000)
  78 Li     7.397688    6.981100   17.322617    ( 0.0000,  0.0000,  0.0000)
  79 Li     9.868615    8.727821   17.383324    ( 0.0000,  0.0000,  0.0000)
  80 Li     9.708409    6.980743   19.790008    ( 0.0000,  0.0000,  0.0000)
  81 Li     7.252863    8.751637   19.666970    ( 0.0000,  0.0000,  0.0000)
  82 Li     7.452325    7.033982   22.024197    ( 0.0000,  0.0000,  0.0000)
  83 Li     4.896307    8.835129   22.265876    ( 0.0000,  0.0000,  0.0000)
  84 Li     4.935605   10.470000   10.000000    ( 0.0000,  0.0000,  0.0000)
  85 Li     7.403408   12.215000   10.000000    ( 0.0000,  0.0000,  0.0000)
  86 Li     7.403408   10.470000   12.467803    ( 0.0000,  0.0000,  0.0000)
  87 Li     4.935605   12.215000   12.467803    ( 0.0000,  0.0000,  0.0000)
  88 Li     9.871211   10.470000   14.935605    ( 0.0000,  0.0000,  0.0000)
  89 Li     7.403408   12.215000   14.935605    ( 0.0000,  0.0000,  0.0000)
  90 Li     7.375945   10.470067   17.311126    ( 0.0000,  0.0000,  0.0000)
  91 Li     9.868953   12.211168   17.382871    ( 0.0000,  0.0000,  0.0000)
  92 Li     9.720715   10.469201   19.785887    ( 0.0000,  0.0000,  0.0000)
  93 Li     7.254245   12.187046   19.669336    ( 0.0000,  0.0000,  0.0000)
  94 Li     7.497266   10.464328   22.024399    ( 0.0000,  0.0000,  0.0000)
  95 Li     4.904201   12.100516   22.260899    ( 0.0000,  0.0000,  0.0000)
  96 Li     9.871211    0.000000   10.000000    ( 0.0000,  0.0000,  0.0000)
  97 Li    12.339013    1.745000   10.000000    ( 0.0000,  0.0000,  0.0000)
  98 Li    12.339013    0.000000   12.467803    ( 0.0000,  0.0000,  0.0000)
  99 Li     9.871211    1.745000   12.467803    ( 0.0000,  0.0000,  0.0000)
 100 Li    14.806816    0.000000   14.935605    ( 0.0000,  0.0000,  0.0000)
 101 Li    12.339013    1.745000   14.935605    ( 0.0000,  0.0000,  0.0000)
 102 Li    12.338605    0.000133   17.331584    ( 0.0000,  0.0000,  0.0000)
 103 Li    14.807111    1.746532   17.328769    ( 0.0000,  0.0000,  0.0000)
 104 Li    14.868716   -0.001462   19.675401    ( 0.0000,  0.0000,  0.0000)
 105 Li    12.280429    1.743480   19.675736    ( 0.0000,  0.0000,  0.0000)
 106 Li     9.871211    3.490000   10.000000    ( 0.0000,  0.0000,  0.0000)
 107 Li    12.339013    5.235000   10.000000    ( 0.0000,  0.0000,  0.0000)
 108 Li    12.339013    3.490000   12.467803    ( 0.0000,  0.0000,  0.0000)
 109 Li     9.871211    5.235000   12.467803    ( 0.0000,  0.0000,  0.0000)
 110 Li    14.806816    3.490000   14.935605    ( 0.0000,  0.0000,  0.0000)
 111 Li    12.339013    5.235000   14.935605    ( 0.0000,  0.0000,  0.0000)
 112 Li    12.337890    3.490135   17.331180    ( 0.0000,  0.0000,  0.0000)
 113 Li    14.807513    5.233785   17.328795    ( 0.0000,  0.0000,  0.0000)
 114 Li    14.861721    3.490119   19.674633    ( 0.0000,  0.0000,  0.0000)
 115 Li    12.280210    5.237385   19.675769    ( 0.0000,  0.0000,  0.0000)
 116 Li     9.871211    6.980000   10.000000    ( 0.0000,  0.0000,  0.0000)
 117 Li    12.339013    8.725000   10.000000    ( 0.0000,  0.0000,  0.0000)
 118 Li    12.339013    6.980000   12.467803    ( 0.0000,  0.0000,  0.0000)
 119 Li     9.871211    8.725000   12.467803    ( 0.0000,  0.0000,  0.0000)
 120 Li    14.806816    6.980000   14.935605    ( 0.0000,  0.0000,  0.0000)
 121 Li    12.339013    8.725000   14.935605    ( 0.0000,  0.0000,  0.0000)
 122 Li    12.338956    6.979876   17.331342    ( 0.0000,  0.0000,  0.0000)
 123 Li    14.801883    8.726723   17.325675    ( 0.0000,  0.0000,  0.0000)
 124 Li    14.871416    6.982522   19.675351    ( 0.0000,  0.0000,  0.0000)
 125 Li    12.279935    8.724782   19.676038    ( 0.0000,  0.0000,  0.0000)
 126 Li     9.871211   10.470000   10.000000    ( 0.0000,  0.0000,  0.0000)
 127 Li    12.339013   12.215000   10.000000    ( 0.0000,  0.0000,  0.0000)
 128 Li    12.339013   10.470000   12.467803    ( 0.0000,  0.0000,  0.0000)
 129 Li     9.871211   12.215000   12.467803    ( 0.0000,  0.0000,  0.0000)
 130 Li    14.806816   10.470000   14.935605    ( 0.0000,  0.0000,  0.0000)
 131 Li    12.339013   12.215000   14.935605    ( 0.0000,  0.0000,  0.0000)
 132 Li    12.340502   10.469856   17.330547    ( 0.0000,  0.0000,  0.0000)
 133 Li    14.803065   12.212961   17.326625    ( 0.0000,  0.0000,  0.0000)
 134 Li    14.869669   10.468821   19.672424    ( 0.0000,  0.0000,  0.0000)
 135 Li    12.279795   12.214353   19.676222    ( 0.0000,  0.0000,  0.0000)
 136 Li    14.806816    0.000000   10.000000    ( 0.0000,  0.0000,  0.0000)
 137 Li    17.274619    1.745000   10.000000    ( 0.0000,  0.0000,  0.0000)
 138 Li    17.274619    0.000000   12.467803    ( 0.0000,  0.0000,  0.0000)
 139 Li    14.806816    1.745000   12.467803    ( 0.0000,  0.0000,  0.0000)
 140 Li    19.742421    0.000000   14.935605    ( 0.0000,  0.0000,  0.0000)
 141 Li    17.274619    1.745000   14.935605    ( 0.0000,  0.0000,  0.0000)
 142 Li    17.270037   -0.014235   17.394893    ( 0.0000,  0.0000,  0.0000)
 143 Li    19.742676    1.736448   17.353224    ( 0.0000,  0.0000,  0.0000)
 144 Li    19.885089   -0.051983   19.730686    ( 0.0000,  0.0000,  0.0000)
 145 Li    17.425249    1.755814   19.766421    ( 0.0000,  0.0000,  0.0000)
 146 Li    14.806816    3.490000   10.000000    ( 0.0000,  0.0000,  0.0000)
 147 Li    17.274619    5.235000   10.000000    ( 0.0000,  0.0000,  0.0000)
 148 Li    17.274619    3.490000   12.467803    ( 0.0000,  0.0000,  0.0000)
 149 Li    14.806816    5.235000   12.467803    ( 0.0000,  0.0000,  0.0000)
 150 Li    19.742421    3.490000   14.935605    ( 0.0000,  0.0000,  0.0000)
 151 Li    17.274619    5.235000   14.935605    ( 0.0000,  0.0000,  0.0000)
 152 Li    17.276826    3.490732   17.371763    ( 0.0000,  0.0000,  0.0000)
 153 Li    19.742236    5.242407   17.350010    ( 0.0000,  0.0000,  0.0000)
 154 Li    19.910615    3.492532   19.716030    ( 0.0000,  0.0000,  0.0000)
 155 Li    17.426456    5.222261   19.771041    ( 0.0000,  0.0000,  0.0000)
 156 Li    14.806816    6.980000   10.000000    ( 0.0000,  0.0000,  0.0000)
 157 Li    17.274619    8.725000   10.000000    ( 0.0000,  0.0000,  0.0000)
 158 Li    17.274619    6.980000   12.467803    ( 0.0000,  0.0000,  0.0000)
 159 Li    14.806816    8.725000   12.467803    ( 0.0000,  0.0000,  0.0000)
 160 Li    19.742421    6.980000   14.935605    ( 0.0000,  0.0000,  0.0000)
 161 Li    17.274619    8.725000   14.935605    ( 0.0000,  0.0000,  0.0000)
 162 Li    17.271914    6.996578   17.400302    ( 0.0000,  0.0000,  0.0000)
 163 Li    19.769524    8.695902   17.302057    ( 0.0000,  0.0000,  0.0000)
 164 Li    19.885365    7.030529   19.725743    ( 0.0000,  0.0000,  0.0000)
 165 Li    17.451322    8.738842   19.862331    ( 0.0000,  0.0000,  0.0000)
 166 Li    14.806816   10.470000   10.000000    ( 0.0000,  0.0000,  0.0000)
 167 Li    17.274619   12.215000   10.000000    ( 0.0000,  0.0000,  0.0000)
 168 Li    17.274619   10.470000   12.467803    ( 0.0000,  0.0000,  0.0000)
 169 Li    14.806816   12.215000   12.467803    ( 0.0000,  0.0000,  0.0000)
 170 Li    19.742421   10.470000   14.935605    ( 0.0000,  0.0000,  0.0000)
 171 Li    17.274619   12.215000   14.935605    ( 0.0000,  0.0000,  0.0000)
 172 Li    17.292910   10.466921   17.408240    ( 0.0000,  0.0000,  0.0000)
 173 Li    19.766156   12.245247   17.303647    ( 0.0000,  0.0000,  0.0000)
 174 Li    19.895407   10.468909   19.622637    ( 0.0000,  0.0000,  0.0000)
 175 Li    17.445208   12.203087   19.847282    ( 0.0000,  0.0000,  0.0000)
 176 Li     2.475220   10.178940   24.161272    ( 0.0000,  0.0000,  0.0000)

Unit cell:
           periodic     x           y           z      points  spacing
  1. axis:    yes   19.742421    0.000000    0.000000   100     0.1974
  2. axis:    yes    0.000000   13.960000    0.000000    68     0.2053
  3. axis:    no     0.000000    0.000000   32.339013   160     0.2021

  Lengths:  19.742421  13.960000  32.339013
  Angles:   90.000000  90.000000  90.000000

Effective grid spacing dv^(1/3) = 0.2016

     iter     time        total  log10-change:
                         energy   eigst   dens
iter:   1 06:18:49  -310.450849        c
iter:   2 06:19:34  -310.450588        c -3.17
iter:   3 06:20:19  -310.450554c       c -3.07
iter:   4 06:21:04  -310.450562c       c -3.91
iter:   5 06:21:54  -310.450529c       c -4.09c

Converged after 5 iterations.

Dipole moment: (-40.241206, -14.863212, 0.741600) |e|*Ang

Energy contributions relative to reference atoms: (reference = -35893.444183)

Kinetic:       +328.467500
Potential:     -279.501701
External:        +0.000000
XC:            -354.280786
Entropy (-ST):   -5.741506
Local:           -2.264789
SIC:             +0.000000
--------------------------
Free energy:   -313.321282
Extrapolated:  -310.450529

Showing all kpts
 Kpt  Band  Eigenvalues  Occupancy
  0    86     -2.89128    1.13533
  0    87     -2.87465    1.08055
  0    88     -2.84807    0.99213
  0    89     -2.83539    0.94988

  1    86     -2.89130    1.13539
  1    87     -2.87461    1.08041
  1    88     -2.84854    0.99367
  1    89     -2.83488    0.94820


Fermi level: -2.85043

Gap: 0.026 eV
Transition (v -> c):
  (s=0, k=1, n=87, [0.25, 0.25, 0.00]) -> (s=0, k=1, n=88, [0.25, 0.25, 0.00])
No difference between direct/indirect transitions

Forces in eV/Ang:
  0 Li   -0.00107   -0.00139    0.12704
  1 Li   -0.00399   -0.00162    0.12503
  2 Li    0.00113   -0.00083   -0.05594
  3 Li   -0.00111    0.00123   -0.05987
  4 Li   -0.00127    0.01905   -0.05572
  5 Li    0.00303    0.02612   -0.06923
  6 Li   -0.00286    0.00588   -0.01983
  7 Li   -0.00477    0.00016   -0.00902
  8 Li    0.01197    0.01147   -0.00545
  9 Li   -0.01717    0.01104    0.01300
 10 Li    0.00855    0.00372   -0.03080
 11 Li    0.01270   -0.01013   -0.01452
 12 Li   -0.00043    0.00032    0.12603
 13 Li   -0.00381    0.00177    0.12534
 14 Li    0.00109   -0.00027   -0.06522
 15 Li   -0.00101   -0.00104   -0.05877
 16 Li   -0.00862   -0.00041   -0.00711
 17 Li    0.00313   -0.02962   -0.07295
 18 Li   -0.00492    0.00150   -0.00622
 19 Li   -0.00524   -0.00046   -0.00899
 20 Li    0.01918    0.00004    0.00241
 21 Li   -0.01762   -0.01374    0.01239
 22 Li    0.01121   -0.00066   -0.04017
 23 Li    0.01034    0.00560   -0.01753
 24 Li   -0.00116    0.00109    0.12641
 25 Li   -0.00348   -0.00032    0.12237
 26 Li    0.00122    0.00118   -0.05459
 27 Li   -0.00033    0.00016   -0.05196
 28 Li   -0.00099   -0.01942   -0.05714
 29 Li    0.00537   -0.00976   -0.03930
 30 Li   -0.00278   -0.00841   -0.02111
 31 Li    0.01241    0.00632   -0.00564
 32 Li    0.01570   -0.01450   -0.01022
 33 Li   -0.01457   -0.00380   -0.02511
 34 Li    0.00759    0.04344    0.01477
 35 Li    0.02600    0.00448   -0.01964
 36 Li   -0.00144    0.00001    0.12426
 37 Li   -0.00358    0.00018    0.12289
 38 Li    0.00099   -0.00016   -0.05485
 39 Li   -0.00039   -0.00026   -0.05224
 40 Li   -0.00159    0.00113   -0.03814
 41 Li    0.00535    0.01283   -0.04403
 42 Li   -0.00138   -0.00010    0.01023
 43 Li    0.01079   -0.00545   -0.00724
 44 Li    0.02204    0.00183   -0.01663
 45 Li   -0.01481    0.01013   -0.02682
 46 Li   -0.01244    0.02504   -0.15261
 47 Li    0.02565   -0.01785   -0.01125
 48 Li    0.00300   -0.00199    0.12762
 49 Li    0.00140   -0.00156    0.12621
 50 Li    0.00060    0.00010   -0.05840
 51 Li   -0.00061    0.00147   -0.06400
 52 Li    0.00490   -0.00190   -0.03066
 53 Li    0.00117   -0.00210   -0.06552
 54 Li   -0.00229   -0.00138    0.00940
 55 Li   -0.00104   -0.00201   -0.00836
 56 Li    0.00578   -0.00154   -0.01377
 57 Li    0.01273    0.00093   -0.00005
 58 Li   -0.00684    0.00302   -0.01786
 59 Li   -0.01493   -0.00469   -0.02156
 60 Li    0.00251    0.00048    0.12644
 61 Li    0.00091    0.00166    0.12597
 62 Li   -0.00036   -0.00010   -0.05512
 63 Li   -0.00080   -0.00146   -0.06376
 64 Li    0.00230    0.00047   -0.02968
 65 Li    0.00148    0.00160   -0.06628
 66 Li    0.00386   -0.00046    0.00728
 67 Li   -0.00117    0.00210   -0.00871
 68 Li    0.00239    0.00006   -0.01020
 69 Li    0.01220   -0.00136    0.00011
 70 Li   -0.01318   -0.00073   -0.00737
 71 Li   -0.01222    0.00120   -0.02467
 72 Li    0.00304    0.00164    0.12705
 73 Li   -0.00083    0.00026    0.12465
 74 Li    0.00059    0.00004   -0.05827
 75 Li   -0.00194   -0.00020   -0.05734
 76 Li    0.00467    0.00176   -0.03039
 77 Li    0.00480   -0.00443   -0.07720
 78 Li   -0.00140    0.00154    0.00912
 79 Li   -0.00160    0.00115   -0.00860
 80 Li    0.00711    0.00116   -0.01469
 81 Li    0.02617   -0.01129    0.00032
 82 Li   -0.00489   -0.00423   -0.01884
 83 Li   -0.02367    0.00483   -0.03444
 84 Li    0.00360   -0.00009    0.12428
 85 Li   -0.00061   -0.00042    0.12455
 86 Li    0.00108   -0.00016   -0.05580
 87 Li   -0.00180    0.00032   -0.05770
 88 Li    0.00267   -0.00031   -0.02962
 89 Li    0.00413    0.00471   -0.07687
 90 Li   -0.00058   -0.00011   -0.00154
 91 Li   -0.00131   -0.00127   -0.00865
 92 Li    0.01095    0.00039   -0.01541
 93 Li    0.02755    0.01096   -0.00069
 94 Li    0.00254    0.00089   -0.01252
 95 Li   -0.02832   -0.02299   -0.01937
 96 Li   -0.00015   -0.00014    0.12351
 97 Li    0.00056    0.00075    0.12341
 98 Li   -0.00024    0.00035   -0.05969
 99 Li    0.00133    0.00011   -0.05790
100 Li   -0.00405    0.00058   -0.05512
101 Li    0.00426    0.00004   -0.05515
102 Li   -0.00210   -0.00041    0.03001
103 Li    0.00363   -0.00259    0.03238
104 Li   -0.00663   -0.00196   -0.01620
105 Li    0.00773   -0.00115   -0.01486
106 Li    0.00148   -0.00005    0.12497
107 Li    0.00040   -0.00075    0.12361
108 Li   -0.00051    0.00002   -0.05945
109 Li    0.00147   -0.00017   -0.05795
110 Li   -0.00468   -0.00007   -0.05853
111 Li    0.00427   -0.00004   -0.05505
112 Li   -0.00263    0.00021    0.03103
113 Li    0.00368    0.00308    0.03245
114 Li   -0.01032    0.00007   -0.01738
115 Li    0.00814    0.00126   -0.01465
116 Li   -0.00020    0.00020    0.12341
117 Li   -0.00004   -0.00027    0.12468
118 Li   -0.00019   -0.00041   -0.05976
119 Li    0.00190    0.00009   -0.05910
120 Li   -0.00375   -0.00051   -0.05505
121 Li    0.00327    0.00001   -0.05477
122 Li   -0.00225    0.00009    0.02974
123 Li    0.00270    0.00286    0.03194
124 Li   -0.00728    0.00181   -0.01592
125 Li    0.01021   -0.00116   -0.01466
126 Li   -0.00080    0.00001    0.12372
127 Li    0.00006    0.00030    0.12458
128 Li    0.00016    0.00007   -0.05888
129 Li    0.00188    0.00003   -0.05907
130 Li   -0.00032   -0.00005   -0.05513
131 Li    0.00344    0.00002   -0.05469
132 Li   -0.00386    0.00007    0.03182
133 Li    0.00288   -0.00332    0.03180
134 Li   -0.00953    0.00008   -0.01508
135 Li    0.01024    0.00105   -0.01472
136 Li   -0.00058    0.00001    0.12437
137 Li    0.00093   -0.00154    0.12321
138 Li   -0.00152    0.00011   -0.05873
139 Li    0.00045   -0.00018   -0.06031
140 Li   -0.00566    0.02185   -0.08537
141 Li   -0.00263   -0.00943   -0.02155
142 Li    0.00424   -0.00734   -0.00305
143 Li    0.00784    0.00155    0.00228
144 Li   -0.01713    0.01224   -0.00062
145 Li    0.00240   -0.00383   -0.00754
146 Li   -0.00227   -0.00009    0.12576
147 Li    0.00124    0.00173    0.12302
148 Li   -0.00046   -0.00007   -0.05460
149 Li    0.00055    0.00012   -0.06024
150 Li    0.00298   -0.00103   -0.04323
151 Li   -0.00282    0.01080   -0.02055
152 Li   -0.00596   -0.00016   -0.00599
153 Li    0.00799   -0.00196    0.00200
154 Li   -0.00845    0.00049   -0.00172
155 Li    0.00230    0.00426   -0.00755
156 Li   -0.00011    0.00011    0.12437
157 Li    0.00234    0.00017    0.12153
158 Li   -0.00173   -0.00012   -0.05889
159 Li    0.00006    0.00031   -0.06058
160 Li   -0.00621   -0.02146   -0.08505
161 Li   -0.00685    0.00220   -0.02522
162 Li    0.00363    0.00691   -0.00421
163 Li   -0.00856    0.00768    0.00170
164 Li   -0.01944   -0.01502   -0.00640
165 Li   -0.02172   -0.00562   -0.02367
166 Li    0.00074   -0.00009    0.12489
167 Li    0.00246   -0.00039    0.12166
168 Li   -0.00132   -0.00006   -0.05754
169 Li    0.00004   -0.00026   -0.06045
170 Li   -0.00534    0.00090   -0.06110
171 Li   -0.00650   -0.00376   -0.02477
172 Li   -0.00185    0.00024   -0.00803
173 Li   -0.00767   -0.00693    0.00012
174 Li   -0.00781    0.00083   -0.01054
175 Li   -0.02049    0.00573   -0.02114
176 Li   -0.00750   -0.03140    0.08949

System changes: positions 

Initializing position-dependent things.

Density initialized from wave functions
          .------------------------------------------------.  
         /|                                                |  
        / |                                                |  
       /  |                                                |  
      /   |                                                |  
     /    |                                                |  
    /     |                                                |  
   /      |                                                |  
  /       |                                                |  
 *        |                                                |  
 |        |                                                |  
 |        |                                                |  
 |        |                                                |  
 |        |   LiLi          Li                             |  
 |        |          Li                                   Li  
 |        |   Li      Li  Li                               |  
 |     Li Li       Li                          Li          |  
 |        | Li Li       Li Li          Li           Li     |  
 |      Li|      Li Li          Li           Li      Li    |  
 |       Li  Li          Li Li       Li           Li       |  
 |    Li Li   Li  Li LLi      Li Li       Li  Li           |  
 |        |Li Li      Li  Li       Li Li        Li Li      |  
 |  Li Li |    Li  Li      Li  Li       Li Li              |  
 |      Li| Li Li       Li Li       Li Li    Li Li  Li     |  
 |      Li|      Li Li       Li LLi      Li  Li      Li    |  
 |       Li  Li       Li Li       Li Li       Li  Li       |  
 |Li Li  Li   Li  Li Li    Li Li Li    Li Li  Li           |  
 |        Li  Li       Li Li       Li Li       Li  Li      |  
 | Li  Li |    Li  Li       Li LLi      Li Li              |  
 |      Li| Li Li    Li Li Li    Li Li Li    Li Li  Li     |  
 |  Li  Li|      Li Li       Li Li       Li  Li            |  
 Li      Li  Li       Li Li       Li LLi      Li  Li       |  
 |Li Li   |   Li  Li       Li Li       Li Li               |  
 |        Li           Li          Li          Li          |  
 | Li  Li |    Li  Li       Li  Li      Li  Li             |  
 |        |                                                |  
 |      Li|          Li          Li          Li            |  
 Li       |  Li          Li           Li                   |  
 |        |                                                |  
 |        |                                                |  
 |        .------------------------------------------------.  
 |       /                                                /   
 |      /                                                /    
 |     /                                                /     
 |    /                                                /      
 |   /                                                /       
 |  /                                                /        
 | /                                                /         
 |/                                                /          
 *------------------------------------------------*           

Atomic positions and initial magnetic moments

Positions:
   0 Li     0.000000    0.000000   10.000000    ( 0.0000,  0.0000,  0.0000)
   1 Li     2.467803    1.745000   10.000000    ( 0.0000,  0.0000,  0.0000)
   2 Li     2.467803    0.000000   12.467803    ( 0.0000,  0.0000,  0.0000)
   3 Li     0.000000    1.745000   12.467803    ( 0.0000,  0.0000,  0.0000)
   4 Li     4.935605    0.000000   14.935605    ( 0.0000,  0.0000,  0.0000)
   5 Li     2.467803    1.745000   14.935605    ( 0.0000,  0.0000,  0.0000)
   6 Li     2.466542    0.053406   17.327201    ( 0.0000,  0.0000,  0.0000)
   7 Li     4.936627    1.727630   17.415470    ( 0.0000,  0.0000,  0.0000)
   8 Li     4.913739   -0.053537   19.885622    ( 0.0000,  0.0000,  0.0000)
   9 Li     2.521759    1.690434   19.833943    ( 0.0000,  0.0000,  0.0000)
  10 Li     2.429570   -0.132681   22.170167    ( 0.0000,  0.0000,  0.0000)
  11 Li    -0.114550    1.713842   22.041619    ( 0.0000,  0.0000,  0.0000)
  12 Li     0.000000    3.490000   10.000000    ( 0.0000,  0.0000,  0.0000)
  13 Li     2.467803    5.235000   10.000000    ( 0.0000,  0.0000,  0.0000)
  14 Li     2.467803    3.490000   12.467803    ( 0.0000,  0.0000,  0.0000)
  15 Li     0.000000    5.235000   12.467803    ( 0.0000,  0.0000,  0.0000)
  16 Li     4.935605    3.490000   14.935605    ( 0.0000,  0.0000,  0.0000)
  17 Li     2.467803    5.235000   14.935605    ( 0.0000,  0.0000,  0.0000)
  18 Li     2.474800    3.489099   17.402880    ( 0.0000,  0.0000,  0.0000)
  19 Li     4.937199    5.251536   17.412574    ( 0.0000,  0.0000,  0.0000)
  20 Li     4.863701    3.492919   19.840150    ( 0.0000,  0.0000,  0.0000)
  21 Li     2.522005    5.291771   19.829246    ( 0.0000,  0.0000,  0.0000)
  22 Li     2.400766    3.492811   22.141259    ( 0.0000,  0.0000,  0.0000)
  23 Li    -0.107484    5.277224   22.047467    ( 0.0000,  0.0000,  0.0000)
  24 Li     0.000000    6.980000   10.000000    ( 0.0000,  0.0000,  0.0000)
  25 Li     2.467803    8.725000   10.000000    ( 0.0000,  0.0000,  0.0000)
  26 Li     2.467803    6.980000   12.467803    ( 0.0000,  0.0000,  0.0000)
  27 Li     0.000000    8.725000   12.467803    ( 0.0000,  0.0000,  0.0000)
  28 Li     4.935605    6.980000   14.935605    ( 0.0000,  0.0000,  0.0000)
  29 Li     2.467803    8.725000   14.935605    ( 0.0000,  0.0000,  0.0000)
  30 Li     2.466537    6.922731   17.322070    ( 0.0000,  0.0000,  0.0000)
  31 Li     4.926682    8.693222   17.360208    ( 0.0000,  0.0000,  0.0000)
  32 Li     4.914696    7.032063   19.881614    ( 0.0000,  0.0000,  0.0000)
  33 Li     2.535018    8.636531   19.599724    ( 0.0000,  0.0000,  0.0000)
  34 Li     2.436828    7.112442   22.154532    ( 0.0000,  0.0000,  0.0000)
  35 Li     0.011715    8.853251   22.148729    ( 0.0000,  0.0000,  0.0000)
  36 Li     0.000000   10.470000   10.000000    ( 0.0000,  0.0000,  0.0000)
  37 Li     2.467803   12.215000   10.000000    ( 0.0000,  0.0000,  0.0000)
  38 Li     2.467803   10.470000   12.467803    ( 0.0000,  0.0000,  0.0000)
  39 Li     0.000000   12.215000   12.467803    ( 0.0000,  0.0000,  0.0000)
  40 Li     4.935605   10.470000   14.935605    ( 0.0000,  0.0000,  0.0000)
  41 Li     2.467803   12.215000   14.935605    ( 0.0000,  0.0000,  0.0000)
  42 Li     2.474951   10.474729   17.340691    ( 0.0000,  0.0000,  0.0000)
  43 Li     4.928315   12.247629   17.362738    ( 0.0000,  0.0000,  0.0000)
  44 Li     4.883978   10.468522   19.767039    ( 0.0000,  0.0000,  0.0000)
  45 Li     2.534332   12.301368   19.615437    ( 0.0000,  0.0000,  0.0000)
  46 Li     2.452414   10.469595   21.628396    ( 0.0000,  0.0000,  0.0000)
  47 Li    -0.009932   12.075141   22.136385    ( 0.0000,  0.0000,  0.0000)
  48 Li     4.935605    0.000000   10.000000    ( 0.0000,  0.0000,  0.0000)
  49 Li     7.403408    1.745000   10.000000    ( 0.0000,  0.0000,  0.0000)
  50 Li     7.403408    0.000000   12.467803    ( 0.0000,  0.0000,  0.0000)
  51 Li     4.935605    1.745000   12.467803    ( 0.0000,  0.0000,  0.0000)
  52 Li     9.871211    0.000000   14.935605    ( 0.0000,  0.0000,  0.0000)
  53 Li     7.403408    1.745000   14.935605    ( 0.0000,  0.0000,  0.0000)
  54 Li     7.398987   -0.001489   17.324102    ( 0.0000,  0.0000,  0.0000)
  55 Li     9.868649    1.743778   17.377177    ( 0.0000,  0.0000,  0.0000)
  56 Li     9.710564    0.000516   19.785813    ( 0.0000,  0.0000,  0.0000)
  57 Li     7.245012    1.741466   19.688424    ( 0.0000,  0.0000,  0.0000)
  58 Li     7.459034   -0.051251   22.023056    ( 0.0000,  0.0000,  0.0000)
  59 Li     4.957855    1.744525   22.170851    ( 0.0000,  0.0000,  0.0000)
  60 Li     4.935605    3.490000   10.000000    ( 0.0000,  0.0000,  0.0000)
  61 Li     7.403408    5.235000   10.000000    ( 0.0000,  0.0000,  0.0000)
  62 Li     7.403408    3.490000   12.467803    ( 0.0000,  0.0000,  0.0000)
  63 Li     4.935605    5.235000   12.467803    ( 0.0000,  0.0000,  0.0000)
  64 Li     9.871211    3.490000   14.935605    ( 0.0000,  0.0000,  0.0000)
  65 Li     7.403408    5.235000   14.935605    ( 0.0000,  0.0000,  0.0000)
  66 Li     7.383311    3.490280   17.326949    ( 0.0000,  0.0000,  0.0000)
  67 Li     9.868412    5.237234   17.378677    ( 0.0000,  0.0000,  0.0000)
  68 Li     9.723067    3.489511   19.761631    ( 0.0000,  0.0000,  0.0000)
  69 Li     7.245989    5.239833   19.687690    ( 0.0000,  0.0000,  0.0000)
  70 Li     7.514351    3.492970   22.011383    ( 0.0000,  0.0000,  0.0000)
  71 Li     4.954290    5.239536   22.177477    ( 0.0000,  0.0000,  0.0000)
  72 Li     4.935605    6.980000   10.000000    ( 0.0000,  0.0000,  0.0000)
  73 Li     7.403408    8.725000   10.000000    ( 0.0000,  0.0000,  0.0000)
  74 Li     7.403408    6.980000   12.467803    ( 0.0000,  0.0000,  0.0000)
  75 Li     4.935605    8.725000   12.467803    ( 0.0000,  0.0000,  0.0000)
  76 Li     9.871211    6.980000   14.935605    ( 0.0000,  0.0000,  0.0000)
  77 Li     7.403408    8.725000   14.935605    ( 0.0000,  0.0000,  0.0000)
  78 Li     7.397663    6.981132   17.322804    ( 0.0000,  0.0000,  0.0000)
  79 Li     9.868583    8.727845   17.383155    ( 0.0000,  0.0000,  0.0000)
  80 Li     9.708549    6.980766   19.789716    ( 0.0000,  0.0000,  0.0000)
  81 Li     7.253390    8.751413   19.666981    ( 0.0000,  0.0000,  0.0000)
  82 Li     7.452226    7.033900   22.023823    ( 0.0000,  0.0000,  0.0000)
  83 Li     4.895830    8.835242   22.265197    ( 0.0000,  0.0000,  0.0000)
  84 Li     4.935605   10.470000   10.000000    ( 0.0000,  0.0000,  0.0000)
  85 Li     7.403408   12.215000   10.000000    ( 0.0000,  0.0000,  0.0000)
  86 Li     7.403408   10.470000   12.467803    ( 0.0000,  0.0000,  0.0000)
  87 Li     4.935605   12.215000   12.467803    ( 0.0000,  0.0000,  0.0000)
  88 Li     9.871211   10.470000   14.935605    ( 0.0000,  0.0000,  0.0000)
  89 Li     7.403408   12.215000   14.935605    ( 0.0000,  0.0000,  0.0000)
  90 Li     7.375932   10.470065   17.311096    ( 0.0000,  0.0000,  0.0000)
  91 Li     9.868927   12.211143   17.382701    ( 0.0000,  0.0000,  0.0000)
  92 Li     9.720935   10.469209   19.785580    ( 0.0000,  0.0000,  0.0000)
  93 Li     7.254799   12.187264   19.669326    ( 0.0000,  0.0000,  0.0000)
  94 Li     7.497322   10.464350   22.024153    ( 0.0000,  0.0000,  0.0000)
  95 Li     4.903624   12.100040   22.260525    ( 0.0000,  0.0000,  0.0000)
  96 Li     9.871211    0.000000   10.000000    ( 0.0000,  0.0000,  0.0000)
  97 Li    12.339013    1.745000   10.000000    ( 0.0000,  0.0000,  0.0000)
  98 Li    12.339013    0.000000   12.467803    ( 0.0000,  0.0000,  0.0000)
  99 Li     9.871211    1.745000   12.467803    ( 0.0000,  0.0000,  0.0000)
 100 Li    14.806816    0.000000   14.935605    ( 0.0000,  0.0000,  0.0000)
 101 Li    12.339013    1.745000   14.935605    ( 0.0000,  0.0000,  0.0000)
 102 Li    12.338562    0.000125   17.332188    ( 0.0000,  0.0000,  0.0000)
 103 Li    14.807186    1.746480   17.329420    ( 0.0000,  0.0000,  0.0000)
 104 Li    14.868586   -0.001502   19.675076    ( 0.0000,  0.0000,  0.0000)
 105 Li    12.280582    1.743456   19.675438    ( 0.0000,  0.0000,  0.0000)
 106 Li     9.871211    3.490000   10.000000    ( 0.0000,  0.0000,  0.0000)
 107 Li    12.339013    5.235000   10.000000    ( 0.0000,  0.0000,  0.0000)
 108 Li    12.339013    3.490000   12.467803    ( 0.0000,  0.0000,  0.0000)
 109 Li     9.871211    5.235000   12.467803    ( 0.0000,  0.0000,  0.0000)
 110 Li    14.806816    3.490000   14.935605    ( 0.0000,  0.0000,  0.0000)
 111 Li    12.339013    5.235000   14.935605    ( 0.0000,  0.0000,  0.0000)
 112 Li    12.337836    3.490139   17.331804    ( 0.0000,  0.0000,  0.0000)
 113 Li    14.807588    5.233846   17.329448    ( 0.0000,  0.0000,  0.0000)
 114 Li    14.861516    3.490120   19.674284    ( 0.0000,  0.0000,  0.0000)
 115 Li    12.280372    5.237411   19.675475    ( 0.0000,  0.0000,  0.0000)
 116 Li     9.871211    6.980000   10.000000    ( 0.0000,  0.0000,  0.0000)
 117 Li    12.339013    8.725000   10.000000    ( 0.0000,  0.0000,  0.0000)
 118 Li    12.339013    6.980000   12.467803    ( 0.0000,  0.0000,  0.0000)
 119 Li     9.871211    8.725000   12.467803    ( 0.0000,  0.0000,  0.0000)
 120 Li    14.806816    6.980000   14.935605    ( 0.0000,  0.0000,  0.0000)
 121 Li    12.339013    8.725000   14.935605    ( 0.0000,  0.0000,  0.0000)
 122 Li    12.338909    6.979878   17.331941    ( 0.0000,  0.0000,  0.0000)
 123 Li    14.801939    8.726780   17.326318    ( 0.0000,  0.0000,  0.0000)
 124 Li    14.871270    6.982558   19.675031    ( 0.0000,  0.0000,  0.0000)
 125 Li    12.280138    8.724759   19.675744    ( 0.0000,  0.0000,  0.0000)
 126 Li     9.871211   10.470000   10.000000    ( 0.0000,  0.0000,  0.0000)
 127 Li    12.339013   12.215000   10.000000    ( 0.0000,  0.0000,  0.0000)
 128 Li    12.339013   10.470000   12.467803    ( 0.0000,  0.0000,  0.0000)
 129 Li     9.871211   12.215000   12.467803    ( 0.0000,  0.0000,  0.0000)
 130 Li    14.806816   10.470000   14.935605    ( 0.0000,  0.0000,  0.0000)
 131 Li    12.339013   12.215000   14.935605    ( 0.0000,  0.0000,  0.0000)
 132 Li    12.340424   10.469858   17.331188    ( 0.0000,  0.0000,  0.0000)
 133 Li    14.803124   12.212894   17.327265    ( 0.0000,  0.0000,  0.0000)
 134 Li    14.869478   10.468824   19.672122    ( 0.0000,  0.0000,  0.0000)
 135 Li    12.279999   12.214375   19.675926    ( 0.0000,  0.0000,  0.0000)
 136 Li    14.806816    0.000000   10.000000    ( 0.0000,  0.0000,  0.0000)
 137 Li    17.274619    1.745000   10.000000    ( 0.0000,  0.0000,  0.0000)
 138 Li    17.274619    0.000000   12.467803    ( 0.0000,  0.0000,  0.0000)
 139 Li    14.806816    1.745000   12.467803    ( 0.0000,  0.0000,  0.0000)
 140 Li    19.742421    0.000000   14.935605    ( 0.0000,  0.0000,  0.0000)
 141 Li    17.274619    1.745000   14.935605    ( 0.0000,  0.0000,  0.0000)
 142 Li    17.270122   -0.014384   17.394838    ( 0.0000,  0.0000,  0.0000)
 143 Li    19.742832    1.736478   17.353274    ( 0.0000,  0.0000,  0.0000)
 144 Li    19.884743   -0.051741   19.730682    ( 0.0000,  0.0000,  0.0000)
 145 Li    17.425300    1.755739   19.766274    ( 0.0000,  0.0000,  0.0000)
 146 Li    14.806816    3.490000   10.000000    ( 0.0000,  0.0000,  0.0000)
 147 Li    17.274619    5.235000   10.000000    ( 0.0000,  0.0000,  0.0000)
 148 Li    17.274619    3.490000   12.467803    ( 0.0000,  0.0000,  0.0000)
 149 Li    14.806816    5.235000   12.467803    ( 0.0000,  0.0000,  0.0000)
 150 Li    19.742421    3.490000   14.935605    ( 0.0000,  0.0000,  0.0000)
 151 Li    17.274619    5.235000   14.935605    ( 0.0000,  0.0000,  0.0000)
 152 Li    17.276706    3.490728   17.371646    ( 0.0000,  0.0000,  0.0000)
 153 Li    19.742395    5.242369   17.350058    ( 0.0000,  0.0000,  0.0000)
 154 Li    19.910449    3.492541   19.716002    ( 0.0000,  0.0000,  0.0000)
 155 Li    17.426504    5.222347   19.770890    ( 0.0000,  0.0000,  0.0000)
 156 Li    14.806816    6.980000   10.000000    ( 0.0000,  0.0000,  0.0000)
 157 Li    17.274619    8.725000   10.000000    ( 0.0000,  0.0000,  0.0000)
 158 Li    17.274619    6.980000   12.467803    ( 0.0000,  0.0000,  0.0000)
 159 Li    14.806816    8.725000   12.467803    ( 0.0000,  0.0000,  0.0000)
 160 Li    19.742421    6.980000   14.935605    ( 0.0000,  0.0000,  0.0000)
 161 Li    17.274619    8.725000   14.935605    ( 0.0000,  0.0000,  0.0000)
 162 Li    17.271985    6.996718   17.400220    ( 0.0000,  0.0000,  0.0000)
 163 Li    19.769350    8.696053   17.302092    ( 0.0000,  0.0000,  0.0000)
 164 Li    19.884972    7.030232   19.725627    ( 0.0000,  0.0000,  0.0000)
 165 Li    17.450884    8.738732   19.861856    ( 0.0000,  0.0000,  0.0000)
 166 Li    14.806816   10.470000   10.000000    ( 0.0000,  0.0000,  0.0000)
 167 Li    17.274619   12.215000   10.000000    ( 0.0000,  0.0000,  0.0000)
 168 Li    17.274619   10.470000   12.467803    ( 0.0000,  0.0000,  0.0000)
 169 Li    14.806816   12.215000   12.467803    ( 0.0000,  0.0000,  0.0000)
 170 Li    19.742421   10.470000   14.935605    ( 0.0000,  0.0000,  0.0000)
 171 Li    17.274619   12.215000   14.935605    ( 0.0000,  0.0000,  0.0000)
 172 Li    17.292876   10.466928   17.408083    ( 0.0000,  0.0000,  0.0000)
 173 Li    19.766002   12.245110   17.303650    ( 0.0000,  0.0000,  0.0000)
 174 Li    19.895252   10.468926   19.622423    ( 0.0000,  0.0000,  0.0000)
 175 Li    17.444799   12.203199   19.846868    ( 0.0000,  0.0000,  0.0000)
 176 Li     2.475073   10.178524   24.163079    ( 0.0000,  0.0000,  0.0000)

Unit cell:
           periodic     x           y           z      points  spacing
  1. axis:    yes   19.742421    0.000000    0.000000   100     0.1974
  2. axis:    yes    0.000000   13.960000    0.000000    68     0.2053
  3. axis:    no     0.000000    0.000000   32.339013   160     0.2021

  Lengths:  19.742421  13.960000  32.339013
  Angles:   90.000000  90.000000  90.000000

Effective grid spacing dv^(1/3) = 0.2016

     iter     time        total  log10-change:
                         energy   eigst   dens
iter:   1 06:48:33  -310.452047        c
iter:   2 06:49:19  -310.452042        c -3.76
iter:   3 06:50:06  -310.451990c       c -3.99
iter:   4 06:50:49  -310.451987c       c -4.00c

Converged after 4 iterations.

Dipole moment: (-40.266598, -14.872151, 0.742627) |e|*Ang

Energy contributions relative to reference atoms: (reference = -35893.444183)

Kinetic:       +328.476981
Potential:     -279.505784
External:        +0.000000
XC:            -354.287779
Entropy (-ST):   -5.741430
Local:           -2.264691
SIC:             +0.000000
--------------------------
Free energy:   -313.322702
Extrapolated:  -310.451987

Showing all kpts
 Kpt  Band  Eigenvalues  Occupancy
  0    86     -2.89105    1.13542
  0    87     -2.87443    1.08066
  0    88     -2.84783    0.99219
  0    89     -2.83516    0.94997

  1    86     -2.89107    1.13547
  1    87     -2.87439    1.08052
  1    88     -2.84830    0.99374
  1    89     -2.83466    0.94834


Fermi level: -2.85018

Gap: 0.026 eV
Transition (v -> c):
  (s=0, k=1, n=87, [0.25, 0.25, 0.00]) -> (s=0, k=1, n=88, [0.25, 0.25, 0.00])
No difference between direct/indirect transitions

Forces in eV/Ang:
  0 Li   -0.00129   -0.00131    0.12723
  1 Li   -0.00415   -0.00160    0.12552
  2 Li    0.00121   -0.00087   -0.05598
  3 Li   -0.00089    0.00121   -0.06004
  4 Li   -0.00130    0.01899   -0.05600
  5 Li    0.00304    0.02628   -0.06957
  6 Li   -0.00288    0.00588   -0.01942
  7 Li   -0.00465    0.00026   -0.00877
  8 Li    0.01154    0.01102   -0.00554
  9 Li   -0.01672    0.01081    0.01221
 10 Li    0.00844    0.00386   -0.03064
 11 Li    0.01281   -0.00988   -0.01423
 12 Li   -0.00063    0.00031    0.12615
 13 Li   -0.00397    0.00172    0.12587
 14 Li    0.00115   -0.00026   -0.06532
 15 Li   -0.00079   -0.00100   -0.05891
 16 Li   -0.00872   -0.00041   -0.00731
 17 Li    0.00314   -0.02978   -0.07337
 18 Li   -0.00482    0.00146   -0.00596
 19 Li   -0.00506   -0.00061   -0.00879
 20 Li    0.01880   -0.00007    0.00203
 21 Li   -0.01717   -0.01298    0.01206
 22 Li    0.01099   -0.00068   -0.03933
 23 Li    0.01061    0.00553   -0.01715
 24 Li   -0.00139    0.00100    0.12663
 25 Li   -0.00362   -0.00039    0.12305
 26 Li    0.00131    0.00123   -0.05459
 27 Li   -0.00009    0.00016   -0.05202
 28 Li   -0.00101   -0.01935   -0.05744
 29 Li    0.00538   -0.00961   -0.03950
 30 Li   -0.00280   -0.00830   -0.02071
 31 Li    0.01214    0.00614   -0.00570
 32 Li    0.01516   -0.01416   -0.01035
 33 Li   -0.01409   -0.00502   -0.02579
 34 Li    0.00758    0.04248    0.01435
 35 Li    0.02576    0.00446   -0.01958
 36 Li   -0.00168    0.00002    0.12453
 37 Li   -0.00372    0.00027    0.12354
 38 Li    0.00109   -0.00018   -0.05482
 39 Li   -0.00016   -0.00028   -0.05233
 40 Li   -0.00160    0.00111   -0.03846
 41 Li    0.00536    0.01266   -0.04421
 42 Li   -0.00133   -0.00007    0.00991
 43 Li    0.01055   -0.00528   -0.00725
 44 Li    0.02204    0.00184   -0.01707
 45 Li   -0.01433    0.01143   -0.02787
 46 Li   -0.01200    0.02366   -0.14141
 47 Li    0.02536   -0.01736   -0.01126
 48 Li    0.00316   -0.00192    0.12819
 49 Li    0.00156   -0.00156    0.12640
 50 Li    0.00040    0.00009   -0.05855
 51 Li   -0.00069    0.00144   -0.06410
 52 Li    0.00494   -0.00188   -0.03061
 53 Li    0.00118   -0.00214   -0.06543
 54 Li   -0.00215   -0.00128    0.00914
 55 Li   -0.00105   -0.00199   -0.00827
 56 Li    0.00607   -0.00148   -0.01378
 57 Li    0.01266    0.00098   -0.00030
 58 Li   -0.00711    0.00295   -0.01752
 59 Li   -0.01479   -0.00455   -0.02125
 60 Li    0.00265    0.00047    0.12693
 61 Li    0.00107    0.00165    0.12617
 62 Li   -0.00052   -0.00009   -0.05529
 63 Li   -0.00089   -0.00140   -0.06384
 64 Li    0.00242    0.00047   -0.02967
 65 Li    0.00149    0.00165   -0.06619
 66 Li    0.00379   -0.00044    0.00712
 67 Li   -0.00118    0.00207   -0.00863
 68 Li    0.00255    0.00007   -0.01017
 69 Li    0.01219   -0.00145   -0.00015
 70 Li   -0.01328   -0.00075   -0.00734
 71 Li   -0.01224    0.00129   -0.02428
 72 Li    0.00320    0.00157    0.12766
 73 Li   -0.00061    0.00022    0.12489
 74 Li    0.00038    0.00006   -0.05840
 75 Li   -0.00204   -0.00019   -0.05732
 76 Li    0.00469    0.00175   -0.03032
 77 Li    0.00477   -0.00442   -0.07717
 78 Li   -0.00126    0.00144    0.00885
 79 Li   -0.00161    0.00112   -0.00851
 80 Li    0.00740    0.00111   -0.01471
 81 Li    0.02578   -0.01093    0.00000
 82 Li   -0.00514   -0.00421   -0.01846
 83 Li   -0.02343    0.00504   -0.03404
 84 Li    0.00377   -0.00008    0.12495
 85 Li   -0.00040   -0.00036    0.12478
 86 Li    0.00082   -0.00016   -0.05587
 87 Li   -0.00189    0.00029   -0.05771
 88 Li    0.00265   -0.00031   -0.02952
 89 Li    0.00410    0.00469   -0.07684
 90 Li   -0.00029   -0.00011   -0.00149
 91 Li   -0.00133   -0.00124   -0.00856
 92 Li    0.01118    0.00037   -0.01546
 93 Li    0.02711    0.01062   -0.00100
 94 Li    0.00233    0.00083   -0.01243
 95 Li   -0.02790   -0.02256   -0.01922
 96 Li   -0.00013   -0.00016    0.12340
 97 Li    0.00056    0.00070    0.12330
 98 Li   -0.00017    0.00041   -0.05970
 99 Li    0.00132    0.00013   -0.05800
100 Li   -0.00409    0.00058   -0.05469
101 Li    0.00431    0.00007   -0.05484
[...]
139 Li    0.00035   -0.00018   -0.06035
140 Li   -0.00576    0.02182   -0.08515
141 Li   -0.00259   -0.00969   -0.02167
142 Li    0.00380   -0.00538   -0.00375
143 Li    0.00573    0.00140    0.00148
144 Li   -0.01462    0.00786   -0.00216
145 Li   -0.00031   -0.00281   -0.00760
146 Li   -0.00227   -0.00011    0.12582
147 Li    0.00123    0.00173    0.12310
148 Li   -0.00046   -0.00007   -0.05455
149 Li    0.00046    0.00010   -0.06028
150 Li    0.00310   -0.00104   -0.04299
151 Li   -0.00279    0.01099   -0.02077
152 Li   -0.00416   -0.00010   -0.00531
153 Li    0.00569   -0.00209    0.00093
154 Li   -0.00926   -0.00013   -0.00293
155 Li   -0.00055    0.00326   -0.00778
156 Li   -0.00010    0.00012    0.12440
157 Li    0.00230    0.00015    0.12161
158 Li   -0.00174   -0.00014   -0.05888
159 Li   -0.00003    0.00031   -0.06068
160 Li   -0.00629   -0.02138   -0.08464
161 Li   -0.00693    0.00234   -0.02577
162 Li    0.00330    0.00496   -0.00484
163 Li   -0.00711    0.00586    0.00060
164 Li   -0.01625   -0.01096   -0.00736
165 Li   -0.01882   -0.00440   -0.02108
166 Li    0.00076   -0.00009    0.12490
167 Li    0.00244   -0.00037    0.12174
168 Li   -0.00130   -0.00006   -0.05748
169 Li   -0.00005   -0.00025   -0.06054
170 Li   -0.00540    0.00085   -0.06124
171 Li   -0.00656   -0.00384   -0.02532
172 Li   -0.00244    0.00031   -0.00829
173 Li   -0.00638   -0.00524   -0.00064
174 Li   -0.01232    0.00078   -0.01388
175 Li   -0.01788    0.00446   -0.01860
176 Li   -0.00693   -0.02740    0.03865

System changes: positions 

Initializing position-dependent things.

Density initialized from wave functions
          .------------------------------------------------.  
         /|                                                |  
        / |                                                |  
       /  |                                                |  
      /   |                                                |  
     /    |                                                |  
    /     |                                                |  
   /      |                                                |  
  /       |                                                |  
 *        |                                                |  
 |        |                                                |  
 |        |                                                |  
 |        |                                                |  
 |        |   LiLi          Li                             |  
 |        |          Li                                   Li  
 |        |           Li  Li                               |  
 |     Li Li  Li   Li                          Li          |  
 |        | Li Li       Li Li          Li           Li     |  
 |      Li|      Li Li          Li           Li      Li    |  
 |       Li  Li          Li Li       Li           Li       |  
 |    Li Li   Li  Li LLi      Li Li       Li  Li           |  
 |        |Li Li      Li  Li       Li Li        Li Li      |  
 |  Li Li |    Li  Li      Li  Li       Li Li              |  
 |      Li| Li Li       Li Li       Li Li    Li Li  Li     |  
 |  Li  Li|      Li Li       Li LLi      Li  Li            |  
 |       Li  Li       Li Li       Li Li       Li  Li       |  
 |Li Li  Li   Li  Li Li    Li Li Li    Li Li  Li           |  
 |        Li  Li       Li Li       Li Li       Li  Li      |  
 | Li  Li |    Li  Li       Li LLi      Li Li              |  
 |      Li| Li Li    Li Li Li    Li Li Li    Li Li  Li     |  
 |  Li  Li|      Li Li       Li Li       Li  Li            |  
 Li      Li  Li       Li Li       Li LLi      Li  Li       |  
 |Li Li   |   Li  Li       Li Li       Li Li               |  
 |        Li           Li          Li          Li          |  
 | Li  Li |    Li  Li       Li  Li      Li  Li             |  
 |        |                                                |  
 |      Li|          Li          Li          Li            |  
 Li       |  Li          Li           Li                   |  
 |        |                                                |  
 |        |                                                |  
 |        .------------------------------------------------.  
 |       /                                                /   
 |      /                                                /    
 |     /                                                /     
 |    /                                                /      
 |   /                                                /       
 |  /                                                /        
 | /                                                /         
 |/                                                /          
 *------------------------------------------------*           

Atomic positions and initial magnetic moments

Positions:
   0 Li     0.000000    0.000000   10.000000    ( 0.0000,  0.0000,  0.0000)
   1 Li     2.467803    1.745000   10.000000    ( 0.0000,  0.0000,  0.0000)
   2 Li     2.467803    0.000000   12.467803    ( 0.0000,  0.0000,  0.0000)
   3 Li     0.000000    1.745000   12.467803    ( 0.0000,  0.0000,  0.0000)
   4 Li     4.935605    0.000000   14.935605    ( 0.0000,  0.0000,  0.0000)
   5 Li     2.467803    1.745000   14.935605    ( 0.0000,  0.0000,  0.0000)
   6 Li     2.466015    0.054621   17.323648    ( 0.0000,  0.0000,  0.0000)
   7 Li     4.935812    1.727637   17.413991    ( 0.0000,  0.0000,  0.0000)
   8 Li     4.915859   -0.051721   19.884751    ( 0.0000,  0.0000,  0.0000)
   9 Li     2.518764    1.692202   19.836187    ( 0.0000,  0.0000,  0.0000)
  10 Li     2.431130   -0.132298   22.164791    ( 0.0000,  0.0000,  0.0000)
  11 Li    -0.112159    1.711978   22.039180    ( 0.0000,  0.0000,  0.0000)
  12 Li     0.000000    3.490000   10.000000    ( 0.0000,  0.0000,  0.0000)
  13 Li     2.467803    5.235000   10.000000    ( 0.0000,  0.0000,  0.0000)
  14 Li     2.467803    3.490000   12.467803    ( 0.0000,  0.0000,  0.0000)
  15 Li     0.000000    5.235000   12.467803    ( 0.0000,  0.0000,  0.0000)
  16 Li     4.935605    3.490000   14.935605    ( 0.0000,  0.0000,  0.0000)
  17 Li     2.467803    5.235000   14.935605    ( 0.0000,  0.0000,  0.0000)
  18 Li     2.473957    3.489375   17.401980    ( 0.0000,  0.0000,  0.0000)
  19 Li     4.936305    5.251473   17.411132    ( 0.0000,  0.0000,  0.0000)
  20 Li     4.867011    3.492853   19.840490    ( 0.0000,  0.0000,  0.0000)
  21 Li     2.518924    5.289683   19.831629    ( 0.0000,  0.0000,  0.0000)
  22 Li     2.402686    3.492642   22.134355    ( 0.0000,  0.0000,  0.0000)
  23 Li    -0.105565    5.278174   22.044416    ( 0.0000,  0.0000,  0.0000)
  24 Li     0.000000    6.980000   10.000000    ( 0.0000,  0.0000,  0.0000)
  25 Li     2.467803    8.725000   10.000000    ( 0.0000,  0.0000,  0.0000)
  26 Li     2.467803    6.980000   12.467803    ( 0.0000,  0.0000,  0.0000)
  27 Li     0.000000    8.725000   12.467803    ( 0.0000,  0.0000,  0.0000)
  28 Li     4.935605    6.980000   14.935605    ( 0.0000,  0.0000,  0.0000)
  29 Li     2.467803    8.725000   14.935605    ( 0.0000,  0.0000,  0.0000)
  30 Li     2.466026    6.921150   17.318371    ( 0.0000,  0.0000,  0.0000)
  31 Li     4.928854    8.694208   17.359208    ( 0.0000,  0.0000,  0.0000)
  32 Li     4.917432    7.029677   19.879912    ( 0.0000,  0.0000,  0.0000)
  33 Li     2.532545    8.635136   19.594751    ( 0.0000,  0.0000,  0.0000)
  34 Li     2.438136    7.120401   22.157499    ( 0.0000,  0.0000,  0.0000)
  35 Li     0.016262    8.854429   22.145213    ( 0.0000,  0.0000,  0.0000)
  36 Li     0.000000   10.470000   10.000000    ( 0.0000,  0.0000,  0.0000)
  37 Li     2.467803   12.215000   10.000000    ( 0.0000,  0.0000,  0.0000)
  38 Li     2.467803   10.470000   12.467803    ( 0.0000,  0.0000,  0.0000)
  39 Li     0.000000   12.215000   12.467803    ( 0.0000,  0.0000,  0.0000)
  40 Li     4.935605   10.470000   14.935605    ( 0.0000,  0.0000,  0.0000)
  41 Li     2.467803   12.215000   14.935605    ( 0.0000,  0.0000,  0.0000)
  42 Li     2.474746   10.474651   17.342529    ( 0.0000,  0.0000,  0.0000)
  43 Li     4.930184   12.246784   17.361416    ( 0.0000,  0.0000,  0.0000)
  44 Li     4.887987   10.468877   19.763748    ( 0.0000,  0.0000,  0.0000)
  45 Li     2.531824   12.303963   19.609783    ( 0.0000,  0.0000,  0.0000)
  46 Li     2.450276   10.473706   21.603164    ( 0.0000,  0.0000,  0.0000)
  47 Li    -0.005140   12.071840   22.134570    ( 0.0000,  0.0000,  0.0000)
  48 Li     4.935605    0.000000   10.000000    ( 0.0000,  0.0000,  0.0000)
  49 Li     7.403408    1.745000   10.000000    ( 0.0000,  0.0000,  0.0000)
  50 Li     7.403408    0.000000   12.467803    ( 0.0000,  0.0000,  0.0000)
  51 Li     4.935605    1.745000   12.467803    ( 0.0000,  0.0000,  0.0000)
  52 Li     9.871211    0.000000   14.935605    ( 0.0000,  0.0000,  0.0000)
  53 Li     7.403408    1.745000   14.935605    ( 0.0000,  0.0000,  0.0000)
  54 Li     7.398611   -0.001700   17.325765    ( 0.0000,  0.0000,  0.0000)
  55 Li     9.868465    1.743420   17.375735    ( 0.0000,  0.0000,  0.0000)
  56 Li     9.711662    0.000255   19.783450    ( 0.0000,  0.0000,  0.0000)
  57 Li     7.247297    1.741631   19.688412    ( 0.0000,  0.0000,  0.0000)
  58 Li     7.457584   -0.050827   22.019990    ( 0.0000,  0.0000,  0.0000)
  59 Li     4.955171    1.743700   22.167126    ( 0.0000,  0.0000,  0.0000)
  60 Li     4.935605    3.490000   10.000000    ( 0.0000,  0.0000,  0.0000)
  61 Li     7.403408    5.235000   10.000000    ( 0.0000,  0.0000,  0.0000)
  62 Li     7.403408    3.490000   12.467803    ( 0.0000,  0.0000,  0.0000)
  63 Li     4.935605    5.235000   12.467803    ( 0.0000,  0.0000,  0.0000)
  64 Li     9.871211    3.490000   14.935605    ( 0.0000,  0.0000,  0.0000)
  65 Li     7.403408    5.235000   14.935605    ( 0.0000,  0.0000,  0.0000)
  66 Li     7.383949    3.490199   17.328261    ( 0.0000,  0.0000,  0.0000)
  67 Li     9.868207    5.237588   17.377146    ( 0.0000,  0.0000,  0.0000)
  68 Li     9.723553    3.489531   19.759849    ( 0.0000,  0.0000,  0.0000)
  69 Li     7.248179    5.239559   19.687712    ( 0.0000,  0.0000,  0.0000)
  70 Li     7.511959    3.492785   22.010107    ( 0.0000,  0.0000,  0.0000)
  71 Li     4.952090    5.239746   22.173107    ( 0.0000,  0.0000,  0.0000)
  72 Li     4.935605    6.980000   10.000000    ( 0.0000,  0.0000,  0.0000)
  73 Li     7.403408    8.725000   10.000000    ( 0.0000,  0.0000,  0.0000)
  74 Li     7.403408    6.980000   12.467803    ( 0.0000,  0.0000,  0.0000)
  75 Li     4.935605    8.725000   12.467803    ( 0.0000,  0.0000,  0.0000)
  76 Li     9.871211    6.980000   14.935605    ( 0.0000,  0.0000,  0.0000)
  77 Li     7.403408    8.725000   14.935605    ( 0.0000,  0.0000,  0.0000)
  78 Li     7.397465    6.981373   17.324436    ( 0.0000,  0.0000,  0.0000)
  79 Li     9.868304    8.728049   17.381638    ( 0.0000,  0.0000,  0.0000)
  80 Li     9.709913    6.980941   19.787125    ( 0.0000,  0.0000,  0.0000)
  81 Li     7.258032    8.749550   19.667012    ( 0.0000,  0.0000,  0.0000)
  82 Li     7.451241    7.033197   22.020572    ( 0.0000,  0.0000,  0.0000)
  83 Li     4.891634    8.836514   22.259136    ( 0.0000,  0.0000,  0.0000)
  84 Li     4.935605   10.470000   10.000000    ( 0.0000,  0.0000,  0.0000)
  85 Li     7.403408   12.215000   10.000000    ( 0.0000,  0.0000,  0.0000)
  86 Li     7.403408   10.470000   12.467803    ( 0.0000,  0.0000,  0.0000)
  87 Li     4.935605   12.215000   12.467803    ( 0.0000,  0.0000,  0.0000)
  88 Li     9.871211   10.470000   14.935605    ( 0.0000,  0.0000,  0.0000)
  89 Li     7.403408   12.215000   14.935605    ( 0.0000,  0.0000,  0.0000)
  90 Li     7.375875   10.470046   17.310873    ( 0.0000,  0.0000,  0.0000)
  91 Li     9.868692   12.210937   17.381184    ( 0.0000,  0.0000,  0.0000)
  92 Li     9.723008   10.469287   19.782844    ( 0.0000,  0.0000,  0.0000)
  93 Li     7.259662   12.189091   19.669141    ( 0.0000,  0.0000,  0.0000)
  94 Li     7.497822   10.464578   22.021955    ( 0.0000,  0.0000,  0.0000)
  95 Li     4.898507   12.095730   22.257221    ( 0.0000,  0.0000,  0.0000)
  96 Li     9.871211    0.000000   10.000000    ( 0.0000,  0.0000,  0.0000)
  97 Li    12.339013    1.745000   10.000000    ( 0.0000,  0.0000,  0.0000)
  98 Li    12.339013    0.000000   12.467803    ( 0.0000,  0.0000,  0.0000)
  99 Li     9.871211    1.745000   12.467803    ( 0.0000,  0.0000,  0.0000)
 100 Li    14.806816    0.000000   14.935605    ( 0.0000,  0.0000,  0.0000)
 101 Li    12.339013    1.745000   14.935605    ( 0.0000,  0.0000,  0.0000)
 102 Li    12.338202    0.000046   17.337329    ( 0.0000,  0.0000,  0.0000)
 103 Li    14.807814    1.746011   17.334951    ( 0.0000,  0.0000,  0.0000)
 104 Li    14.867445   -0.001827   19.672370    ( 0.0000,  0.0000,  0.0000)
 105 Li    12.281914    1.743245   19.672971    ( 0.0000,  0.0000,  0.0000)
 106 Li     9.871211    3.490000   10.000000    ( 0.0000,  0.0000,  0.0000)
 107 Li    12.339013    5.235000   10.000000    ( 0.0000,  0.0000,  0.0000)
 108 Li    12.339013    3.490000   12.467803    ( 0.0000,  0.0000,  0.0000)
 109 Li     9.871211    5.235000   12.467803    ( 0.0000,  0.0000,  0.0000)
 110 Li    14.806816    3.490000   14.935605    ( 0.0000,  0.0000,  0.0000)
 111 Li    12.339013    5.235000   14.935605    ( 0.0000,  0.0000,  0.0000)
 112 Li    12.337392    3.490176   17.337126    ( 0.0000,  0.0000,  0.0000)
 113 Li    14.808219    5.234397   17.334992    ( 0.0000,  0.0000,  0.0000)
 114 Li    14.859757    3.490132   19.671380    ( 0.0000,  0.0000,  0.0000)
 115 Li    12.281782    5.237627   19.673043    ( 0.0000,  0.0000,  0.0000)
 116 Li     9.871211    6.980000   10.000000    ( 0.0000,  0.0000,  0.0000)
 117 Li    12.339013    8.725000   10.000000    ( 0.0000,  0.0000,  0.0000)
 118 Li    12.339013    6.980000   12.467803    ( 0.0000,  0.0000,  0.0000)
 119 Li     9.871211    8.725000   12.467803    ( 0.0000,  0.0000,  0.0000)
 120 Li    14.806816    6.980000   14.935605    ( 0.0000,  0.0000,  0.0000)
 121 Li    12.339013    8.725000   14.935605    ( 0.0000,  0.0000,  0.0000)
 122 Li    12.338514    6.979900   17.337041    ( 0.0000,  0.0000,  0.0000)
 123 Li    14.802413    8.727286   17.331805    ( 0.0000,  0.0000,  0.0000)
 124 Li    14.869974    6.982842   19.672378    ( 0.0000,  0.0000,  0.0000)
 125 Li    12.281917    8.724547   19.673317    ( 0.0000,  0.0000,  0.0000)
 126 Li     9.871211   10.470000   10.000000    ( 0.0000,  0.0000,  0.0000)
 127 Li    12.339013   12.215000   10.000000    ( 0.0000,  0.0000,  0.0000)
 128 Li    12.339013   10.470000   12.467803    ( 0.0000,  0.0000,  0.0000)
 129 Li     9.871211   12.215000   12.467803    ( 0.0000,  0.0000,  0.0000)
 130 Li    14.806816   10.470000   14.935605    ( 0.0000,  0.0000,  0.0000)
 131 Li    12.339013   12.215000   14.935605    ( 0.0000,  0.0000,  0.0000)
 132 Li    12.339743   10.469870   17.336654    ( 0.0000,  0.0000,  0.0000)
 133 Li    14.803612   12.212313   17.332710    ( 0.0000,  0.0000,  0.0000)
 134 Li    14.867758   10.468856   19.669617    ( 0.0000,  0.0000,  0.0000)
 135 Li    12.281784   12.214581   19.673488    ( 0.0000,  0.0000,  0.0000)
 136 Li    14.806816    0.000000   10.000000    ( 0.0000,  0.0000,  0.0000)
 137 Li    17.274619    1.745000   10.000000    ( 0.0000,  0.0000,  0.0000)
 138 Li    17.274619    0.000000   12.467803    ( 0.0000,  0.0000,  0.0000)
 139 Li    14.806816    1.745000   12.467803    ( 0.0000,  0.0000,  0.0000)
 140 Li    19.742421    0.000000   14.935605    ( 0.0000,  0.0000,  0.0000)
 141 Li    17.274619    1.745000   14.935605    ( 0.0000,  0.0000,  0.0000)
 142 Li    17.270873   -0.015663   17.394349    ( 0.0000,  0.0000,  0.0000)
 143 Li    19.744129    1.736732   17.353740    ( 0.0000,  0.0000,  0.0000)
 144 Li    19.881699   -0.049823   19.730625    ( 0.0000,  0.0000,  0.0000)
 145 Li    17.425626    1.755119   19.764972    ( 0.0000,  0.0000,  0.0000)
 146 Li    14.806816    3.490000   10.000000    ( 0.0000,  0.0000,  0.0000)
 147 Li    17.274619    5.235000   10.000000    ( 0.0000,  0.0000,  0.0000)
 148 Li    17.274619    3.490000   12.467803    ( 0.0000,  0.0000,  0.0000)
 149 Li    14.806816    5.235000   12.467803    ( 0.0000,  0.0000,  0.0000)
 150 Li    19.742421    3.490000   14.935605    ( 0.0000,  0.0000,  0.0000)
 151 Li    17.274619    5.235000   14.935605    ( 0.0000,  0.0000,  0.0000)
 152 Li    17.275714    3.490691   17.370621    ( 0.0000,  0.0000,  0.0000)
 153 Li    19.743715    5.242040   17.350503    ( 0.0000,  0.0000,  0.0000)
 154 Li    19.908902    3.492561   19.715714    ( 0.0000,  0.0000,  0.0000)
 155 Li    17.426786    5.223072   19.769511    ( 0.0000,  0.0000,  0.0000)
 156 Li    14.806816    6.980000   10.000000    ( 0.0000,  0.0000,  0.0000)
 157 Li    17.274619    8.725000   10.000000    ( 0.0000,  0.0000,  0.0000)
 158 Li    17.274619    6.980000   12.467803    ( 0.0000,  0.0000,  0.0000)
 159 Li    14.806816    8.725000   12.467803    ( 0.0000,  0.0000,  0.0000)
 160 Li    19.742421    6.980000   14.935605    ( 0.0000,  0.0000,  0.0000)
 161 Li    17.274619    8.725000   14.935605    ( 0.0000,  0.0000,  0.0000)
 162 Li    17.272601    6.997884   17.399443    ( 0.0000,  0.0000,  0.0000)
 163 Li    19.767835    8.697292   17.302369    ( 0.0000,  0.0000,  0.0000)
 164 Li    19.881537    7.027804   19.724610    ( 0.0000,  0.0000,  0.0000)
 165 Li    17.447011    8.737804   19.857664    ( 0.0000,  0.0000,  0.0000)
 166 Li    14.806816   10.470000   10.000000    ( 0.0000,  0.0000,  0.0000)
 167 Li    17.274619   12.215000   10.000000    ( 0.0000,  0.0000,  0.0000)
 168 Li    17.274619   10.470000   12.467803    ( 0.0000,  0.0000,  0.0000)
 169 Li    14.806816   12.215000   12.467803    ( 0.0000,  0.0000,  0.0000)
 170 Li    19.742421   10.470000   14.935605    ( 0.0000,  0.0000,  0.0000)
 171 Li    17.274619   12.215000   14.935605    ( 0.0000,  0.0000,  0.0000)
 172 Li    17.292530   10.467021   17.406643    ( 0.0000,  0.0000,  0.0000)
 173 Li    19.764691   12.243988   17.303632    ( 0.0000,  0.0000,  0.0000)
 174 Li    19.893561   10.469093   19.620205    ( 0.0000,  0.0000,  0.0000)
 175 Li    17.441228   12.204118   19.843356    ( 0.0000,  0.0000,  0.0000)
 176 Li     2.473783   10.177170   24.176422    ( 0.0000,  0.0000,  0.0000)

Unit cell:
           periodic     x           y           z      points  spacing
  1. axis:    yes   19.742421    0.000000    0.000000   100     0.1974
  2. axis:    yes    0.000000   13.960000    0.000000    68     0.2053
  3. axis:    no     0.000000    0.000000   32.339013   160     0.2021

  Lengths:  19.742421  13.960000  32.339013
  Angles:   90.000000  90.000000  90.000000

Effective grid spacing dv^(1/3) = 0.2016

     iter     time        total  log10-change:
                         energy   eigst   dens
iter:   1 09:15:19  -310.461619        c
iter:   2 09:16:10  -310.461948        c -3.26
iter:   3 09:17:06  -310.461705c       c -3.41
iter:   4 09:17:59  -310.461678c       c -3.63
iter:   5 09:18:53  -310.461655c       c -4.04c

Converged after 5 iterations.

Dipole moment: (-40.485035, -14.944632, 0.750130) |e|*Ang

Energy contributions relative to reference atoms: (reference = -35893.444183)

Kinetic:       +328.606832
Potential:     -279.579256
External:        +0.000000
XC:            -354.354338
Entropy (-ST):   -5.740763
Local:           -2.264511
SIC:             +0.000000
--------------------------
Free energy:   -313.332036
Extrapolated:  -310.461655

Showing all kpts
 Kpt  Band  Eigenvalues  Occupancy
  0    86     -2.88980    1.13594
  0    87     -2.87343    1.08202
  0    88     -2.84654    0.99258
  0    89     -2.83405    0.95099

  1    86     -2.88979    1.13590
  1    87     -2.87339    1.08188
  1    88     -2.84703    0.99420
  1    89     -2.83367    0.94972


Fermi level: -2.84877

Gap: 0.026 eV
Transition (v -> c):
  (s=0, k=1, n=87, [0.25, 0.25, 0.00]) -> (s=0, k=1, n=88, [0.25, 0.25, 0.00])
No difference between direct/indirect transitions
