
  ___ ___ ___ _ _ _  
 |   |   |_  | | | | 
 | | | | | . | | | | 
 |__ |  _|___|_____|  25.7.0
 |___|_|             

User:   tew@Mathuss-MacBook-Air-357.local
Date:   Wed Nov 26 03:04:02 2025
Arch:   arm64
Pid:    56558
CWD:    /Users/tew/Documents/Project/GitHub/chem-com/step
Python: 3.13.5
gpaw:   /Users/tew/Documents/Project/GitHub/chem-com/.venv/lib/python3.13/site-packages/gpaw
_gpaw:  /Users/tew/Documents/Project/GitHub/chem-com/.venv/lib/python3.13/site-packages/
        _gpaw.cpython-313-darwin.so
ase:    /Users/tew/Documents/Project/GitHub/chem-com/.venv/lib/python3.13/site-packages/ase (version 3.26.0)
numpy:  /Users/tew/Documents/Project/GitHub/chem-com/.venv/lib/python3.13/site-packages/numpy (version 2.3.5)
scipy:  /Users/tew/Documents/Project/GitHub/chem-com/.venv/lib/python3.13/site-packages/scipy (version 1.16.3)
libxc:  2.x.y
units:  Angstrom and eV
cores: 1
OpenMP: False
OMP_NUM_THREADS: 1

Input parameters:
  basis: dzp
  convergence: {density: 0.0001,
                eigenstates: 5e-06}
  kpts: [2 2 1]
  mode: {interpolation: 3,
         name: lcao}
  occupations: {fixmagmom: False,
                name: fermi-dirac,
                width: 0.15}
  xc: PBE

System changes: positions, numbers, cell, pbc, initial_charges, initial_magmoms 

Initialize ...

species:
  Li:
    name: Lithium
    id: 830b4218f175192f93f959cfc0aad614
    Z: 3.0
    valence: 1
    core: 2
    charge: 0.0
    file: /Users/tew/Documents/Project/GitHub/chem-com/.venv/lib/python3.13/site-packages/gpaw_data/setups/Li.PBE.gz
    compensation charges: {type: gauss,
                           rc: 0.33,
                           lmax: 2}
    cutoffs: {filter: 1.91,
              core: 2.55}
    projectors:
      #              energy  rcut
      - 2s(1.00)    -2.874   1.058
      - 2p(0.00)    -1.090   1.058
      -  s          24.337   1.058
  
    # LCAO basis set for Li:
    #   Name: dzp
    #   File: /Users/tew/Documents/Project/GitHub/chem-com/.venv/lib/python3.13/site-packages/gpaw_data/setups/Li.dzp.basis.gz
    #   Number of radial functions: 3
    #   Number of spherical harmonics: 5
    #     l=0, rc=10.8906 Bohr: 2s-sz confined orbital
    #     l=0, rc=6.6719 Bohr: 2s-dz split-valence wave
    #     l=1, rc=10.8906 Bohr: p-type Gaussian polarization
    #   Number of RI-basis functions 0

Reference energy: -35893.444183  # eV

Spin-paired calculation

Convergence criteria:
 Maximum [total energy] change in last 3 cyles: 0.0005 eV / valence electron
 Maximum integral of absolute [dens]ity change: 0.0001 electrons / valence electron
 Maximum integral of absolute [eigenst]ate change: 5e-06 eV^2 / valence electron
 Maximum number of scf [iter]ations: 333
 (Square brackets indicate name in SCF output, whereas a 'c' in
 the SCF output indicates the quantity has converged.)

Symmetries present (total): 1

  ( 1  0  0)
  ( 0  1  0)
  ( 0  0  1)

4 k-points: 2 x 2 x 1 Monkhorst-Pack grid
2 k-points in the irreducible part of the Brillouin zone
       k-points in crystal coordinates                weights
   0:     0.25000000   -0.25000000    0.00000000          2/4
   1:     0.25000000    0.25000000    0.00000000          2/4

Wave functions: LCAO
  Diagonalizer: Serial LAPACK
  Atomic Correction: dense with blas
  Data-type: complex
 

Occupation numbers: Fermi-Dirac:
  width: 0.1500  # eV
 

Eigensolver
   LCAO using direct dense diagonalizer 

Densities:
  Coarse grid: 100*68*160 grid
  Fine grid: 200*136*320 grid
  Total Charge: 0.000000 

Density mixing:
  Method: separate
  Backend: pulay
  Linear mixing parameter: 0.05
  old densities: 5
  Damping of long wavelength oscillations: 50 

Hamiltonian:
  XC and Coulomb potentials evaluated on a 200*136*320 grid
  Using the PBE Exchange-Correlation functional
  Interpolation: tri-quintic (5. degree polynomial)
  Poisson solver: FastPoissonSolver using
    Stencil: 6*3+1=19 point O(h^6) finite-difference Laplacian
    FFT axes: [np.int64(0), np.int64(1)]
    FST axes: [np.int64(2)]
 

XC parameters: PBE with 2 nearest neighbor stencil

Memory estimate:
  Process memory now: 3793.11 MiB
  Calculator: 1570.72 MiB
    Density: 780.53 MiB
      Arrays: 215.09 MiB
      Localized functions: 482.94 MiB
      Mixer: 82.49 MiB
    Hamiltonian: 178.84 MiB
      Arrays: 140.65 MiB
      XC: 0.00 MiB
      Poisson: 0.00 MiB
      vbar: 38.19 MiB
    Wavefunctions: 611.36 MiB
      C [qnM]: 3.00 MiB
      S, T [2 x qmm]: 47.80 MiB
      P [aqMi]: 1.49 MiB
      BasisFunctions: 559.07 MiB
      Eigensolver: 0.00 MiB

Total number of cores used: 1

Number of atoms: 177
Number of atomic orbitals: 885
Number of bands in calculation: 111
Number of valence electrons: 177
Bands to converge: occupied

... initialized

Initializing position-dependent things.

Density initialized from atomic densities
          .------------------------------------------------.  
         /|                                                |  
        / |                                                |  
       /  |                                                |  
      /   |                                                |  
     /    |                                                |  
    /     |                                                |  
   /      |                                                |  
  /       |                                                |  
 *        |                                                |  
 |        |                                                |  
 |        |                                                |  
 |        |                                                |  
 |        |  Li Li           Li                            |  
 |        |          Li                                   Li  
 |        |   Li      Li  Li                               |  
 |     Li Li       Li                          Li          |  
 |        | Li Li       Li Li          Li           Li     |  
 |      Li|      Li Li          Li           Li      Li    |  
 |       Li  Li          Li Li       Li  Li       Li Li    |  
 |    Li Li   Li  Li LLi      Li Li       Li  Li           |  
 |        |Li Li      Li  Li       Li Li        Li Li      |  
 |  Li Li |    Li  Li      Li  Li       Li Li              |  
 |      Li| Li Li       Li Li       Li Li    Li Li  Li     |  
 |  Li  Li|      Li Li       Li LLi      Li  Li            |  
 |       Li  Li       Li Li       Li Li       Li  Li       |  
 |Li Li  Li   Li  Li Li    Li Li Li    Li Li  Li           |  
 |        Li  Li       Li Li       Li Li       Li  Li      |  
 | Li  Li |    Li  Li       Li Li       Li Li              |  
 |      Li| Li Li    Li Li Li    Li Li Li    Li Li  Li     |  
 |  Li  Li|      Li Li       Li Li       Li  Li            |  
 Li      Li  Li       Li Li       Li LLi      Li  Li       |  
 |Li Li   |   Li  Li       Li Li       Li Li               |  
 |        Li           Li          Li          Li          |  
 | Li  Li |    Li  Li       Li  Li      Li  Li             |  
 |        |                                                |  
 |      Li|          Li          Li          Li            |  
 Li       |  Li          Li           Li                   |  
 |        |                                                |  
 |        |                                                |  
 |        .------------------------------------------------.  
 |       /                                                /   
 |      /                                                /    
 |     /                                                /     
 |    /                                                /      
 |   /                                                /       
 |  /                                                /        
 | /                                                /         
 |/                                                /          
 *------------------------------------------------*           

Atomic positions and initial magnetic moments

Positions:
   0 Li     0.000000    0.000000   10.000000    ( 0.0000,  0.0000,  0.0000)
   1 Li     2.467803    1.745000   10.000000    ( 0.0000,  0.0000,  0.0000)
   2 Li     2.467803    0.000000   12.467803    ( 0.0000,  0.0000,  0.0000)
   3 Li     0.000000    1.745000   12.467803    ( 0.0000,  0.0000,  0.0000)
   4 Li     4.935605    0.000000   14.935605    ( 0.0000,  0.0000,  0.0000)
   5 Li     2.467803    1.745000   14.935605    ( 0.0000,  0.0000,  0.0000)
   6 Li     2.472398    0.005680   17.347811    ( 0.0000,  0.0000,  0.0000)
   7 Li     4.931096    1.745000   17.381192    ( 0.0000,  0.0000,  0.0000)
   8 Li     4.890818   -0.017522   19.817175    ( 0.0000,  0.0000,  0.0000)
   9 Li     2.522146    1.745000   19.769259    ( 0.0000,  0.0000,  0.0000)
  10 Li     2.408625   -0.016999   22.090758    ( 0.0000,  0.0000,  0.0000)
  11 Li    -0.133521    1.745000   22.000561    ( 0.0000,  0.0000,  0.0000)
  12 Li     0.000000    3.490000   10.000000    ( 0.0000,  0.0000,  0.0000)
  13 Li     2.467803    5.235000   10.000000    ( 0.0000,  0.0000,  0.0000)
  14 Li     2.467803    3.490000   12.467803    ( 0.0000,  0.0000,  0.0000)
  15 Li     0.000000    5.235000   12.467803    ( 0.0000,  0.0000,  0.0000)
  16 Li     4.935605    3.490000   14.935605    ( 0.0000,  0.0000,  0.0000)
  17 Li     2.467803    5.235000   14.935605    ( 0.0000,  0.0000,  0.0000)
  18 Li     2.472398    3.484320   17.347811    ( 0.0000,  0.0000,  0.0000)
  19 Li     4.934615    5.230046   17.363787    ( 0.0000,  0.0000,  0.0000)
  20 Li     4.890818    3.507522   19.817175    ( 0.0000,  0.0000,  0.0000)
  21 Li     2.523701    5.248763   19.741183    ( 0.0000,  0.0000,  0.0000)
  22 Li     2.408625    3.506999   22.090758    ( 0.0000,  0.0000,  0.0000)
  23 Li    -0.090647    5.302290   22.036227    ( 0.0000,  0.0000,  0.0000)
  24 Li     0.000000    6.980000   10.000000    ( 0.0000,  0.0000,  0.0000)
  25 Li     2.467803    8.725000   10.000000    ( 0.0000,  0.0000,  0.0000)
  26 Li     2.467803    6.980000   12.467803    ( 0.0000,  0.0000,  0.0000)
  27 Li     0.000000    8.725000   12.467803    ( 0.0000,  0.0000,  0.0000)
  28 Li     4.935605    6.980000   14.935605    ( 0.0000,  0.0000,  0.0000)
  29 Li     2.467803    8.725000   14.935605    ( 0.0000,  0.0000,  0.0000)
  30 Li     2.472352    6.951581   17.317230    ( 0.0000,  0.0000,  0.0000)
  31 Li     4.924511    8.725000   17.348307    ( 0.0000,  0.0000,  0.0000)
  32 Li     4.895887    6.989210   19.793960    ( 0.0000,  0.0000,  0.0000)
  33 Li     2.527780    8.725000   19.646519    ( 0.0000,  0.0000,  0.0000)
  34 Li     2.452397    6.987021   21.988594    ( 0.0000,  0.0000,  0.0000)
  35 Li     0.039313    8.725000   22.111875    ( 0.0000,  0.0000,  0.0000)
  36 Li     0.000000   10.470000   10.000000    ( 0.0000,  0.0000,  0.0000)
  37 Li     2.467803   12.215000   10.000000    ( 0.0000,  0.0000,  0.0000)
  38 Li     2.467803   10.470000   12.467803    ( 0.0000,  0.0000,  0.0000)
  39 Li     0.000000   12.215000   12.467803    ( 0.0000,  0.0000,  0.0000)
  40 Li     4.935605   10.470000   14.935605    ( 0.0000,  0.0000,  0.0000)
  41 Li     2.467803   12.215000   14.935605    ( 0.0000,  0.0000,  0.0000)
  42 Li     2.472352   10.498419   17.317230    ( 0.0000,  0.0000,  0.0000)
  43 Li     4.934615   12.219954   17.363787    ( 0.0000,  0.0000,  0.0000)
  44 Li     4.895887   10.460790   19.793960    ( 0.0000,  0.0000,  0.0000)
  45 Li     2.523701   12.201237   19.741183    ( 0.0000,  0.0000,  0.0000)
  46 Li     2.452397   10.462979   21.988594    ( 0.0000,  0.0000,  0.0000)
  47 Li    -0.090647   12.147710   22.036227    ( 0.0000,  0.0000,  0.0000)
  48 Li     4.935605    0.000000   10.000000    ( 0.0000,  0.0000,  0.0000)
  49 Li     7.403408    1.745000   10.000000    ( 0.0000,  0.0000,  0.0000)
  50 Li     7.403408    0.000000   12.467803    ( 0.0000,  0.0000,  0.0000)
  51 Li     4.935605    1.745000   12.467803    ( 0.0000,  0.0000,  0.0000)
  52 Li     9.871211    0.000000   14.935605    ( 0.0000,  0.0000,  0.0000)
  53 Li     7.403408    1.745000   14.935605    ( 0.0000,  0.0000,  0.0000)
  54 Li     7.391420   -0.001766   17.310372    ( 0.0000,  0.0000,  0.0000)
  55 Li     9.867702    1.745000   17.353680    ( 0.0000,  0.0000,  0.0000)
  56 Li     9.727858    0.002949   19.739604    ( 0.0000,  0.0000,  0.0000)
  57 Li     7.254877    1.745000   19.661178    ( 0.0000,  0.0000,  0.0000)
  58 Li     7.503138   -0.017972   21.993302    ( 0.0000,  0.0000,  0.0000)
  59 Li     4.969417    1.745000   22.134476    ( 0.0000,  0.0000,  0.0000)
  60 Li     4.935605    3.490000   10.000000    ( 0.0000,  0.0000,  0.0000)
  61 Li     7.403408    5.235000   10.000000    ( 0.0000,  0.0000,  0.0000)
  62 Li     7.403408    3.490000   12.467803    ( 0.0000,  0.0000,  0.0000)
  63 Li     4.935605    5.235000   12.467803    ( 0.0000,  0.0000,  0.0000)
  64 Li     9.871211    3.490000   14.935605    ( 0.0000,  0.0000,  0.0000)
  65 Li     7.403408    5.235000   14.935605    ( 0.0000,  0.0000,  0.0000)
  66 Li     7.391420    3.491766   17.310372    ( 0.0000,  0.0000,  0.0000)
  67 Li     9.866298    5.241060   17.362750    ( 0.0000,  0.0000,  0.0000)
  68 Li     9.727858    3.487051   19.739604    ( 0.0000,  0.0000,  0.0000)
  69 Li     7.260842    5.242885   19.656739    ( 0.0000,  0.0000,  0.0000)
  70 Li     7.503138    3.507972   21.993302    ( 0.0000,  0.0000,  0.0000)
  71 Li     4.947504    5.260032   22.174831    ( 0.0000,  0.0000,  0.0000)
  72 Li     4.935605    6.980000   10.000000    ( 0.0000,  0.0000,  0.0000)
  73 Li     7.403408    8.725000   10.000000    ( 0.0000,  0.0000,  0.0000)
  74 Li     7.403408    6.980000   12.467803    ( 0.0000,  0.0000,  0.0000)
  75 Li     4.935605    8.725000   12.467803    ( 0.0000,  0.0000,  0.0000)
  76 Li     9.871211    6.980000   14.935605    ( 0.0000,  0.0000,  0.0000)
  77 Li     7.403408    8.725000   14.935605    ( 0.0000,  0.0000,  0.0000)
  78 Li     7.383308    6.979588   17.302629    ( 0.0000,  0.0000,  0.0000)
  79 Li     9.864285    8.725000   17.365469    ( 0.0000,  0.0000,  0.0000)
  80 Li     9.715513    6.984819   19.763213    ( 0.0000,  0.0000,  0.0000)
  81 Li     7.252629    8.725000   19.642476    ( 0.0000,  0.0000,  0.0000)
  82 Li     7.461900    7.014097   21.998084    ( 0.0000,  0.0000,  0.0000)
  83 Li     4.899844    8.725000   22.205611    ( 0.0000,  0.0000,  0.0000)
  84 Li     4.935605   10.470000   10.000000    ( 0.0000,  0.0000,  0.0000)
  85 Li     7.403408   12.215000   10.000000    ( 0.0000,  0.0000,  0.0000)
  86 Li     7.403408   10.470000   12.467803    ( 0.0000,  0.0000,  0.0000)
  87 Li     4.935605   12.215000   12.467803    ( 0.0000,  0.0000,  0.0000)
  88 Li     9.871211   10.470000   14.935605    ( 0.0000,  0.0000,  0.0000)
  89 Li     7.403408   12.215000   14.935605    ( 0.0000,  0.0000,  0.0000)
  90 Li     7.383308   10.470412   17.302629    ( 0.0000,  0.0000,  0.0000)
  91 Li     9.866298   12.208940   17.362750    ( 0.0000,  0.0000,  0.0000)
  92 Li     9.715513   10.465181   19.763213    ( 0.0000,  0.0000,  0.0000)
  93 Li     7.260842   12.207115   19.656739    ( 0.0000,  0.0000,  0.0000)
  94 Li     7.461900   10.435903   21.998084    ( 0.0000,  0.0000,  0.0000)
  95 Li     4.947504   12.189968   22.174831    ( 0.0000,  0.0000,  0.0000)
  96 Li     9.871211    0.000000   10.000000    ( 0.0000,  0.0000,  0.0000)
  97 Li    12.339013    1.745000   10.000000    ( 0.0000,  0.0000,  0.0000)
  98 Li    12.339013    0.000000   12.467803    ( 0.0000,  0.0000,  0.0000)
  99 Li     9.871211    1.745000   12.467803    ( 0.0000,  0.0000,  0.0000)
 100 Li    14.806816    0.000000   14.935605    ( 0.0000,  0.0000,  0.0000)
 101 Li    12.339013    1.745000   14.935605    ( 0.0000,  0.0000,  0.0000)
 102 Li    12.336672   -0.000797   17.331988    ( 0.0000,  0.0000,  0.0000)
 103 Li    14.806671    1.745000   17.329745    ( 0.0000,  0.0000,  0.0000)
 104 Li    14.856326   -0.000708   19.661651    ( 0.0000,  0.0000,  0.0000)
 105 Li    12.285128    1.745000   19.663496    ( 0.0000,  0.0000,  0.0000)
 106 Li     9.871211    3.490000   10.000000    ( 0.0000,  0.0000,  0.0000)
 107 Li    12.339013    5.235000   10.000000    ( 0.0000,  0.0000,  0.0000)
 108 Li    12.339013    3.490000   12.467803    ( 0.0000,  0.0000,  0.0000)
 109 Li     9.871211    5.235000   12.467803    ( 0.0000,  0.0000,  0.0000)
 110 Li    14.806816    3.490000   14.935605    ( 0.0000,  0.0000,  0.0000)
 111 Li    12.339013    5.235000   14.935605    ( 0.0000,  0.0000,  0.0000)
 112 Li    12.336672    3.490797   17.331988    ( 0.0000,  0.0000,  0.0000)
 113 Li    14.809077    5.236873   17.329899    ( 0.0000,  0.0000,  0.0000)
 114 Li    14.856326    3.490708   19.661651    ( 0.0000,  0.0000,  0.0000)
 115 Li    12.283793    5.240184   19.663678    ( 0.0000,  0.0000,  0.0000)
 116 Li     9.871211    6.980000   10.000000    ( 0.0000,  0.0000,  0.0000)
 117 Li    12.339013    8.725000   10.000000    ( 0.0000,  0.0000,  0.0000)
 118 Li    12.339013    6.980000   12.467803    ( 0.0000,  0.0000,  0.0000)
 119 Li     9.871211    8.725000   12.467803    ( 0.0000,  0.0000,  0.0000)
 120 Li    14.806816    6.980000   14.935605    ( 0.0000,  0.0000,  0.0000)
 121 Li    12.339013    8.725000   14.935605    ( 0.0000,  0.0000,  0.0000)
 122 Li    12.338785    6.980868   17.330551    ( 0.0000,  0.0000,  0.0000)
 123 Li    14.801994    8.725000   17.324183    ( 0.0000,  0.0000,  0.0000)
 124 Li    14.872568    6.987079   19.661332    ( 0.0000,  0.0000,  0.0000)
 125 Li    12.284632    8.725000   19.662574    ( 0.0000,  0.0000,  0.0000)
 126 Li     9.871211   10.470000   10.000000    ( 0.0000,  0.0000,  0.0000)
 127 Li    12.339013   12.215000   10.000000    ( 0.0000,  0.0000,  0.0000)
 128 Li    12.339013   10.470000   12.467803    ( 0.0000,  0.0000,  0.0000)
 129 Li     9.871211   12.215000   12.467803    ( 0.0000,  0.0000,  0.0000)
 130 Li    14.806816   10.470000   14.935605    ( 0.0000,  0.0000,  0.0000)
 131 Li    12.339013   12.215000   14.935605    ( 0.0000,  0.0000,  0.0000)
 132 Li    12.338785   10.469132   17.330551    ( 0.0000,  0.0000,  0.0000)
 133 Li    14.809077   12.213127   17.329899    ( 0.0000,  0.0000,  0.0000)
 134 Li    14.872568   10.462921   19.661332    ( 0.0000,  0.0000,  0.0000)
 135 Li    12.283793   12.209816   19.663678    ( 0.0000,  0.0000,  0.0000)
 136 Li    14.806816    0.000000   10.000000    ( 0.0000,  0.0000,  0.0000)
 137 Li    17.274619    1.745000   10.000000    ( 0.0000,  0.0000,  0.0000)
 138 Li    17.274619    0.000000   12.467803    ( 0.0000,  0.0000,  0.0000)
 139 Li    14.806816    1.745000   12.467803    ( 0.0000,  0.0000,  0.0000)
 140 Li    19.742421    0.000000   14.935605    ( 0.0000,  0.0000,  0.0000)
 141 Li    17.274619    1.745000   14.935605    ( 0.0000,  0.0000,  0.0000)
 142 Li    17.274347   -0.004404   17.357775    ( 0.0000,  0.0000,  0.0000)
 143 Li    19.754076    1.745000   17.324013    ( 0.0000,  0.0000,  0.0000)
 144 Li    19.890204   -0.015165   19.681441    ( 0.0000,  0.0000,  0.0000)
 145 Li    17.416113    1.745000   19.732379    ( 0.0000,  0.0000,  0.0000)
 146 Li    14.806816    3.490000   10.000000    ( 0.0000,  0.0000,  0.0000)
 147 Li    17.274619    5.235000   10.000000    ( 0.0000,  0.0000,  0.0000)
 148 Li    17.274619    3.490000   12.467803    ( 0.0000,  0.0000,  0.0000)
 149 Li    14.806816    5.235000   12.467803    ( 0.0000,  0.0000,  0.0000)
 150 Li    19.742421    3.490000   14.935605    ( 0.0000,  0.0000,  0.0000)
 151 Li    17.274619    5.235000   14.935605    ( 0.0000,  0.0000,  0.0000)
 152 Li    17.274347    3.494404   17.357775    ( 0.0000,  0.0000,  0.0000)
 153 Li    19.751426    5.228149   17.304742    ( 0.0000,  0.0000,  0.0000)
 154 Li    19.890204    3.505165   19.681441    ( 0.0000,  0.0000,  0.0000)
 155 Li    17.423363    5.223426   19.760106    ( 0.0000,  0.0000,  0.0000)
 156 Li    14.806816    6.980000   10.000000    ( 0.0000,  0.0000,  0.0000)
 157 Li    17.274619    8.725000   10.000000    ( 0.0000,  0.0000,  0.0000)
 158 Li    17.274619    6.980000   12.467803    ( 0.0000,  0.0000,  0.0000)
 159 Li    14.806816    8.725000   12.467803    ( 0.0000,  0.0000,  0.0000)
 160 Li    19.742421    6.980000   14.935605    ( 0.0000,  0.0000,  0.0000)
 161 Li    17.274619    8.725000   14.935605    ( 0.0000,  0.0000,  0.0000)
 162 Li    17.285649    6.998497   17.390310    ( 0.0000,  0.0000,  0.0000)
 163 Li    19.771696    8.725000   17.295102    ( 0.0000,  0.0000,  0.0000)
 164 Li    19.892001    6.986601   19.652123    ( 0.0000,  0.0000,  0.0000)
 165 Li    17.460135    8.725000   19.850582    ( 0.0000,  0.0000,  0.0000)
 166 Li    14.806816   10.470000   10.000000    ( 0.0000,  0.0000,  0.0000)
 167 Li    17.274619   12.215000   10.000000    ( 0.0000,  0.0000,  0.0000)
 168 Li    17.274619   10.470000   12.467803    ( 0.0000,  0.0000,  0.0000)
 169 Li    14.806816   12.215000   12.467803    ( 0.0000,  0.0000,  0.0000)
 170 Li    19.742421   10.470000   14.935605    ( 0.0000,  0.0000,  0.0000)
 171 Li    17.274619   12.215000   14.935605    ( 0.0000,  0.0000,  0.0000)
 172 Li    17.285649   10.451503   17.390310    ( 0.0000,  0.0000,  0.0000)
 173 Li    19.751426   12.221851   17.304742    ( 0.0000,  0.0000,  0.0000)
 174 Li    19.892001   10.463399   19.652123    ( 0.0000,  0.0000,  0.0000)
 175 Li    17.423363   12.226574   19.760106    ( 0.0000,  0.0000,  0.0000)
 176 Li     2.456457    8.725000   24.292916    ( 0.0000,  0.0000,  0.0000)

Unit cell:
           periodic     x           y           z      points  spacing
  1. axis:    yes   19.742421    0.000000    0.000000   100     0.1974
  2. axis:    yes    0.000000   13.960000    0.000000    68     0.2053
  3. axis:    no     0.000000    0.000000   32.339013   160     0.2021

  Lengths:  19.742421  13.960000  32.339013
  Angles:   90.000000  90.000000  90.000000

Effective grid spacing dv^(1/3) = 0.2016

     iter     time        total  log10-change:
                         energy   eigst   dens
iter:   1 09:22:34  -329.172905        c
iter:   2 09:23:18  -318.083601        c -0.66
iter:   3 09:23:59  -315.664165        c -0.85
iter:   4 09:24:39  -314.702836        c -0.92
iter:   5 09:25:19  -311.987199        c -0.97
iter:   6 09:26:00  -311.214121        c -1.18
iter:   7 09:26:41  -310.906862        c -1.30
iter:   8 09:27:22  -310.682005        c -1.41
iter:   9 09:28:02  -310.599735        c -1.57
iter:  10 09:28:43  -310.562581        c -1.70
iter:  11 09:29:23  -310.535942c       c -1.80
iter:  12 09:30:03  -310.525992c       c -1.90
iter:  13 09:30:44  -310.511620c       c -1.96
iter:  14 09:31:24  -310.508278c       c -2.11
iter:  15 09:32:06  -310.505665c       c -2.19
iter:  16 09:32:45  -310.505007c       c -2.26
iter:  17 09:33:26  -310.504225c       c -2.33
iter:  18 09:34:07  -310.502578c       c -2.39
iter:  19 09:34:48  -310.502263c       c -2.49
iter:  20 09:35:29  -310.501381c       c -2.55
iter:  21 09:36:09  -310.501192c       c -2.63
iter:  22 09:36:49  -310.500874c       c -2.72
iter:  23 09:37:32  -310.500686c       c -2.79
iter:  24 09:38:13  -310.500738c       c -2.86
iter:  25 09:38:53  -310.500446c       c -2.95
iter:  26 09:39:33  -310.500452c       c -3.04
iter:  27 09:40:13  -310.500315c       c -3.11
iter:  28 09:40:53  -310.500359c       c -3.25
iter:  29 09:41:35  -310.500369c       c -3.34
iter:  30 09:42:17  -310.500343c       c -3.39
iter:  31 09:42:56  -310.500411c       c -3.45
iter:  32 09:43:35  -310.500388c       c -3.52
iter:  33 09:44:16  -310.500401c       c -3.58
iter:  34 09:44:57  -310.500373c       c -3.64
iter:  35 09:45:38  -310.500361c       c -3.71
iter:  36 09:46:28  -310.500364c       c -3.78
iter:  37 09:47:17  -310.500330c       c -3.85
iter:  38 09:48:04  -310.500342c       c -3.90
iter:  39 09:48:48  -310.500333c       c -4.05c

Converged after 39 iterations.

Dipole moment: (-38.737008, -18.527128, 0.777340) |e|*Ang

Energy contributions relative to reference atoms: (reference = -35893.444183)

Kinetic:       +329.875839
Potential:     -280.410026
External:        +0.000000
XC:            -354.857241
Entropy (-ST):   -5.749672
Local:           -2.234070
SIC:             +0.000000
--------------------------
Free energy:   -313.375169
Extrapolated:  -310.500333

Showing all kpts
 Kpt  Band  Eigenvalues  Occupancy
  0    86     -2.88608    1.13979
  0    87     -2.87220    1.09415
  0    88     -2.83932    0.98485
  0    89     -2.82889    0.95010

  1    86     -2.88608    1.13979
  1    87     -2.87220    1.09415
  1    88     -2.83932    0.98485
  1    89     -2.82889    0.95010


Fermi level: -2.84387

Gap: 0.033 eV
Transition (v -> c):
  (s=0, k=1, n=87, [0.25, 0.25, 0.00]) -> (s=0, k=0, n=88, [0.25, -0.25, 0.00])
Direct/indirect transitions are different
Direct gap: 0.033 eV
Transition at: (s=0, k=0, n=87, [0.25, -0.25, 0.00])
