
  ___ ___ ___ _ _ _  
 |   |   |_  | | | | 
 | | | | | . | | | | 
 |__ |  _|___|_____|  25.7.0
 |___|_|             

User:   tew@Mathuss-MacBook-Air-357.local
Date:   Mon Nov 24 10:57:17 2025
Arch:   arm64
Pid:    82977
CWD:    /Users/tew/Documents/Project/GitHub/chem-com
Python: 3.13.5
gpaw:   /Users/tew/Documents/Project/GitHub/chem-com/.venv/lib/python3.13/site-packages/gpaw
_gpaw:  /Users/tew/Documents/Project/GitHub/chem-com/.venv/lib/python3.13/site-packages/
        _gpaw.cpython-313-darwin.so
ase:    /Users/tew/Documents/Project/GitHub/chem-com/.venv/lib/python3.13/site-packages/ase (version 3.26.0)
numpy:  /Users/tew/Documents/Project/GitHub/chem-com/.venv/lib/python3.13/site-packages/numpy (version 2.3.5)
scipy:  /Users/tew/Documents/Project/GitHub/chem-com/.venv/lib/python3.13/site-packages/scipy (version 1.16.3)
libxc:  2.x.y
units:  Angstrom and eV
cores: 1
OpenMP: False
OMP_NUM_THREADS: 1

Input parameters:
  convergence: {density: 0.0001,
                eigenstates: 5e-06}
  kpts: [2 2 1]
  mode: {ecut: 200.0,
         name: pw}
  xc: PBE

System changes: positions, numbers, cell, pbc, initial_charges, initial_magmoms 

Initialize ...

species:
  K:
    name: Potassium
    id: 04190408da443a44668134082ce1c192
    Z: 19.0
    valence: 9
    core: 10
    charge: 0.0
    file: /Users/tew/Documents/Project/GitHub/chem-com/.venv/lib/python3.13/site-packages/gpaw_data/setups/K.PBE.gz
    compensation charges: {type: gauss,
                           rc: 0.35,
                           lmax: 2}
    cutoffs: {filter: 1.91,
              core: 1.27}
    projectors:
      #              energy  rcut
      - 3s(2.00)   -35.338   1.122
      - 4s(1.00)    -2.319   1.122
      - 3p(6.00)   -18.813   1.106
      -  p           8.398   1.106
      -  d           0.000   0.937
  
    # Using partial waves for K as LCAO basis

Reference energy: -1195904.484944  # eV

Spin-paired calculation

Convergence criteria:
 Maximum [total energy] change in last 3 cyles: 0.0005 eV / valence electron
 Maximum integral of absolute [dens]ity change: 0.0001 electrons / valence electron
 Maximum integral of absolute [eigenst]ate change: 5e-06 eV^2 / valence electron
 Maximum number of scf [iter]ations: 333
 (Square brackets indicate name in SCF output, whereas a 'c' in
 the SCF output indicates the quantity has converged.)

Symmetries present (total): 1

  ( 1  0  0)
  ( 0  1  0)
  ( 0  0  1)

4 k-points: 2 x 2 x 1 Monkhorst-Pack grid
2 k-points in the irreducible part of the Brillouin zone
       k-points in crystal coordinates                weights
   0:     0.25000000   -0.25000000    0.00000000          2/4
   1:     0.25000000    0.25000000    0.00000000          2/4

Wave functions: Plane wave expansion
  Cutoff energy: 200.000 eV
  Number of coefficients (min, max): 69510, 69510
  Pulay-stress correction: 0.000000 eV/Ang^3 (de/decut=0.000000)
  Using Numpy's FFT
  ScaLapack parameters: grid=1x1, blocksize=None
  Wavefunction extrapolation:
    Improved wavefunction reuse through dual PAW basis 

Occupation numbers: Fermi-Dirac:
  width: 0.1000  # eV
 

Eigensolver
   Davidson(niter=2) 

Densities:
  Coarse grid: 75*54*105 grid
  Fine grid: 150*108*210 grid
  Total Charge: 0.000000 

Density mixing:
  Method: separate
  Backend: pulay
  Linear mixing parameter: 0.05
  old densities: 5
  Damping of long wavelength oscillations: 50 

Hamiltonian:
  XC and Coulomb potentials evaluated on a 150*108*210 grid
  Using the PBE Exchange-Correlation functional
  External potential:
    NoExternalPotential
 

XC parameters: PBE with 2 nearest neighbor stencil

Memory estimate:
  Process memory now: 5665.41 MiB
  Calculator: 1477.78 MiB
    Density: 190.32 MiB
      Arrays: 84.35 MiB
      Localized functions: 73.52 MiB
      Mixer: 32.44 MiB
    Hamiltonian: 56.66 MiB
      Arrays: 55.15 MiB
      XC: 0.00 MiB
      Poisson: 0.00 MiB
      vbar: 1.50 MiB
    Wavefunctions: 1230.80 MiB
      Arrays psit_nG: 774.27 MiB
      Eigensolver: 412.78 MiB
      Projections: 10.57 MiB
      Projectors: 14.85 MiB
      PW-descriptor: 18.34 MiB

Total number of cores used: 1

Number of atoms: 73
Number of atomic orbitals: 365
Number of bands in calculation: 365
Number of valence electrons: 657
Bands to converge: occupied

... initialized

Initializing position-dependent things.

Density initialized from atomic densities
Creating initial wave functions:
  365 bands from LCAO basis set

           .------------------------------------------------------.  
          /|                                                      |  
         / |                                                      |  
        /  |                                                      |  
       /   |                                                      |  
      /    |                                                      |  
     /     |                                                      |  
    /      |                                                      |  
   /       |                                                      |  
  /        |                                                      |  
 *         |                                                      |  
 |         |                                                      |  
 |         |                                                      |  
 |         |                                                      |  
 |       K |                K                 K                   |  
 |         |                                                      |  
 |         |     K                 K                  K           |  
 |    K    |            K                  K                      |  
 |         |       K K               K                 K          |  
 |         | K                  K                 K               |  
 |      K  |              K                 K                     |  
 | K       |         K                 K                          |  
 |        K|   K             K   K             K    K             |  
 |  K    K |           K    K            K    K                   |  
 |         |                                                      |  
 |         |K    K            K    K             K   K            |  
 |    K    |            K                  K                      |  
 K         |       K                 KK                K          |  
 |         | K                  K                 K               |  
 |      K  |              K                 K                     |  
 | K       |         K                 K                          |  
 |        K|   K             K   K             K    K             |  
 |  K      |           K                 K                        |  
 |         |                                                      |  
 |         |K                 K                  K                |  
 |         |                                                      |  
 K         |       K                  K                           |  
 |         |                                                      |  
 |         .------------------------------------------------------.  
 |        /                                                      /   
 |       /                                                      /    
 |      /                                                      /     
 |     /                                                      /      
 |    /                                                      /       
 |   /                                                      /        
 |  /                                                      /         
 | /                                                      /          
 |/                                                      /           
 *------------------------------------------------------*            

Atomic positions and initial magnetic moments

Positions:
   0 K      0.000000    0.000000   10.000000    ( 0.0000,  0.0000,  0.0000)
   1 K      3.698168    2.615000   10.000000    ( 0.0000,  0.0000,  0.0000)
   2 K      3.698168    0.000000   13.698168    ( 0.0000,  0.0000,  0.0000)
   3 K      0.000000    2.615000   13.698168    ( 0.0000,  0.0000,  0.0000)
   4 K      0.000000    0.000000   17.396337    ( 0.0000,  0.0000,  0.0000)
   5 K      3.698168    2.615000   17.396337    ( 0.0000,  0.0000,  0.0000)
   6 K      3.698168    0.000000   21.094505    ( 0.0000,  0.0000,  0.0000)
   7 K      0.000000    2.615000   21.094505    ( 0.0000,  0.0000,  0.0000)
   8 K      0.000000    5.230000   10.000000    ( 0.0000,  0.0000,  0.0000)
   9 K      3.698168    7.845000   10.000000    ( 0.0000,  0.0000,  0.0000)
  10 K      3.698168    5.230000   13.698168    ( 0.0000,  0.0000,  0.0000)
  11 K      0.000000    7.845000   13.698168    ( 0.0000,  0.0000,  0.0000)
  12 K      0.000000    5.230000   17.396337    ( 0.0000,  0.0000,  0.0000)
  13 K      3.698168    7.845000   17.396337    ( 0.0000,  0.0000,  0.0000)
  14 K      3.698168    5.230000   21.094505    ( 0.0000,  0.0000,  0.0000)
  15 K      0.000000    7.845000   21.094505    ( 0.0000,  0.0000,  0.0000)
  16 K      0.000000   10.460000   10.000000    ( 0.0000,  0.0000,  0.0000)
  17 K      3.698168   13.075000   10.000000    ( 0.0000,  0.0000,  0.0000)
  18 K      3.698168   10.460000   13.698168    ( 0.0000,  0.0000,  0.0000)
  19 K      0.000000   13.075000   13.698168    ( 0.0000,  0.0000,  0.0000)
  20 K      0.000000   10.460000   17.396337    ( 0.0000,  0.0000,  0.0000)
  21 K      3.698168   13.075000   17.396337    ( 0.0000,  0.0000,  0.0000)
  22 K      3.698168   10.460000   21.094505    ( 0.0000,  0.0000,  0.0000)
  23 K      0.000000   13.075000   21.094505    ( 0.0000,  0.0000,  0.0000)
  24 K      7.396337    0.000000   10.000000    ( 0.0000,  0.0000,  0.0000)
  25 K     11.094505    2.615000   10.000000    ( 0.0000,  0.0000,  0.0000)
  26 K     11.094505    0.000000   13.698168    ( 0.0000,  0.0000,  0.0000)
  27 K      7.396337    2.615000   13.698168    ( 0.0000,  0.0000,  0.0000)
  28 K      7.396337    0.000000   17.396337    ( 0.0000,  0.0000,  0.0000)
  29 K     11.094505    2.615000   17.396337    ( 0.0000,  0.0000,  0.0000)
  30 K     11.094505    0.000000   21.094505    ( 0.0000,  0.0000,  0.0000)
  31 K      7.396337    2.615000   21.094505    ( 0.0000,  0.0000,  0.0000)
  32 K      7.396337    5.230000   10.000000    ( 0.0000,  0.0000,  0.0000)
  33 K     11.094505    7.845000   10.000000    ( 0.0000,  0.0000,  0.0000)
  34 K     11.094505    5.230000   13.698168    ( 0.0000,  0.0000,  0.0000)
  35 K      7.396337    7.845000   13.698168    ( 0.0000,  0.0000,  0.0000)
  36 K      7.396337    5.230000   17.396337    ( 0.0000,  0.0000,  0.0000)
  37 K     11.094505    7.845000   17.396337    ( 0.0000,  0.0000,  0.0000)
  38 K     11.094505    5.230000   21.094505    ( 0.0000,  0.0000,  0.0000)
  39 K      7.396337    7.845000   21.094505    ( 0.0000,  0.0000,  0.0000)
  40 K      7.396337   10.460000   10.000000    ( 0.0000,  0.0000,  0.0000)
  41 K     11.094505   13.075000   10.000000    ( 0.0000,  0.0000,  0.0000)
  42 K     11.094505   10.460000   13.698168    ( 0.0000,  0.0000,  0.0000)
  43 K      7.396337   13.075000   13.698168    ( 0.0000,  0.0000,  0.0000)
  44 K      7.396337   10.460000   17.396337    ( 0.0000,  0.0000,  0.0000)
  45 K     11.094505   13.075000   17.396337    ( 0.0000,  0.0000,  0.0000)
  46 K     11.094505   10.460000   21.094505    ( 0.0000,  0.0000,  0.0000)
  47 K      7.396337   13.075000   21.094505    ( 0.0000,  0.0000,  0.0000)
  48 K     14.792674    0.000000   10.000000    ( 0.0000,  0.0000,  0.0000)
  49 K     18.490842    2.615000   10.000000    ( 0.0000,  0.0000,  0.0000)
  50 K     18.490842    0.000000   13.698168    ( 0.0000,  0.0000,  0.0000)
  51 K     14.792674    2.615000   13.698168    ( 0.0000,  0.0000,  0.0000)
  52 K     14.792674    0.000000   17.396337    ( 0.0000,  0.0000,  0.0000)
  53 K     18.490842    2.615000   17.396337    ( 0.0000,  0.0000,  0.0000)
  54 K     18.490842    0.000000   21.094505    ( 0.0000,  0.0000,  0.0000)
  55 K     14.792674    2.615000   21.094505    ( 0.0000,  0.0000,  0.0000)
  56 K     14.792674    5.230000   10.000000    ( 0.0000,  0.0000,  0.0000)
  57 K     18.490842    7.845000   10.000000    ( 0.0000,  0.0000,  0.0000)
  58 K     18.490842    5.230000   13.698168    ( 0.0000,  0.0000,  0.0000)
  59 K     14.792674    7.845000   13.698168    ( 0.0000,  0.0000,  0.0000)
  60 K     14.792674    5.230000   17.396337    ( 0.0000,  0.0000,  0.0000)
  61 K     18.490842    7.845000   17.396337    ( 0.0000,  0.0000,  0.0000)
  62 K     18.490842    5.230000   21.094505    ( 0.0000,  0.0000,  0.0000)
  63 K     14.792674    7.845000   21.094505    ( 0.0000,  0.0000,  0.0000)
  64 K     14.792674   10.460000   10.000000    ( 0.0000,  0.0000,  0.0000)
  65 K     18.490842   13.075000   10.000000    ( 0.0000,  0.0000,  0.0000)
  66 K     18.490842   10.460000   13.698168    ( 0.0000,  0.0000,  0.0000)
  67 K     14.792674   13.075000   13.698168    ( 0.0000,  0.0000,  0.0000)
  68 K     14.792674   10.460000   17.396337    ( 0.0000,  0.0000,  0.0000)
  69 K     18.490842   13.075000   17.396337    ( 0.0000,  0.0000,  0.0000)
  70 K     18.490842   10.460000   21.094505    ( 0.0000,  0.0000,  0.0000)
  71 K     14.792674   13.075000   21.094505    ( 0.0000,  0.0000,  0.0000)
  72 K      7.396337    2.615000   23.094505    ( 0.0000,  0.0000,  0.0000)

Unit cell:
           periodic     x           y           z      points  spacing
  1. axis:    yes   22.189011    0.000000    0.000000    75     0.2959
  2. axis:    yes    0.000000   15.690000    0.000000    54     0.2906
  3. axis:    no     0.000000    0.000000   31.094505   105     0.2961

  Lengths:  22.189011  15.690000  31.094505
  Angles:   90.000000  90.000000  90.000000

Effective grid spacing dv^(1/3) = 0.2942

     iter     time        total  log10-change:
                         energy   eigst   dens
iter:   1 11:01:15   -49.084094
iter:   2 11:02:09   -47.149813   -1.95  -1.24
iter:   3 11:03:01   -35.961279   -1.25  -1.27
iter:   4 11:03:57   -34.198421   -2.78  -1.53
iter:   5 11:04:47   -34.011043   -3.05  -1.67
iter:   6 11:05:34   -34.300771c  -3.52  -1.77
iter:   7 11:06:21   -33.777085   -3.09  -1.87
iter:   8 11:07:15   -33.589207   -3.36  -2.12
iter:   9 11:08:03   -33.580058c  -4.71  -2.69
iter:  10 11:08:53   -33.573458c  -4.63  -2.75
iter:  11 11:09:40   -33.573415c  -4.96  -2.92
iter:  12 11:10:38   -33.572109c  -5.63c -3.03
iter:  13 11:11:34   -33.572131c  -5.76c -3.14
iter:  14 11:12:45   -33.572690c  -6.19c -3.19
iter:  15 11:13:46   -33.573376c  -6.36c -3.30
iter:  16 11:14:46   -33.573174c  -6.45c -3.43
iter:  17 11:15:45   -33.573269c  -6.80c -3.64
iter:  18 11:17:01   -33.573330c  -7.06c -3.81
iter:  19 11:18:30   -33.573174c  -6.93c -3.88
iter:  20 11:19:46   -33.573193c  -7.56c -4.13c

Converged after 20 iterations.

Dipole moment: (-0.081352, -0.572091, 0.256051) |e|*Ang

Energy contributions relative to reference atoms: (reference = -1195904.484944)

Kinetic:       +251.236515
Potential:     -239.447286
External:        +0.000000
XC:             -76.484938
Entropy (-ST):   -2.048717
Local:          +32.146874
SIC:             +0.000000
--------------------------
Free energy:    -34.597552
Extrapolated:   -33.573193

Showing all kpts
 Kpt  Band  Eigenvalues  Occupancy
  0   326     -0.70961    1.34511
  0   327     -0.70330    1.31703
  0   328     -0.69705    1.28868
  0   329     -0.59752    0.80211

  1   326     -0.70961    1.34511
  1   327     -0.70330    1.31703
  1   328     -0.69705    1.28868
  1   329     -0.59752    0.80211


Fermi level: -0.63763

Gap: 0.100 eV
Transition (v -> c):
  (s=0, k=1, n=328, [0.25, 0.25, 0.00]) -> (s=0, k=1, n=329, [0.25, 0.25, 0.00])
No difference between direct/indirect transitions

Forces in eV/Ang:
  0 K     0.00058   -0.00139    0.00322
  1 K     0.00294   -0.00000    0.00316
  2 K     0.00110    0.00255   -0.00527
  3 K     0.00339   -0.00000   -0.00293
  4 K    -0.00140   -0.00013    0.00508
  5 K     0.00524   -0.00000    0.00627
  6 K     0.03232    0.02043    0.02117
  7 K    -0.00370   -0.00000   -0.00403
  8 K     0.00058    0.00139    0.00322
  9 K     0.00101   -0.00143    0.00186
 10 K     0.00110   -0.00255   -0.00527
 11 K    -0.00045    0.00001   -0.00602
 12 K    -0.00140    0.00013    0.00508
 13 K    -0.00166    0.00296    0.00466
 14 K     0.03232   -0.02043    0.02117
 15 K    -0.00296    0.00286   -0.00567
 16 K    -0.00182    0.00000    0.00398
 17 K     0.00101    0.00143    0.00186
 18 K    -0.00015    0.00000   -0.00449
 19 K    -0.00045   -0.00001   -0.00602
 20 K     0.00275    0.00000    0.00905
 21 K    -0.00166   -0.00296    0.00466
 22 K    -0.00409    0.00000   -0.00816
 23 K    -0.00296   -0.00286   -0.00567
 24 K     0.00000    0.00018    0.00281
 25 K    -0.00294   -0.00000    0.00316
 26 K    -0.00110    0.00255   -0.00527
 27 K    -0.00000   -0.00000   -0.01835
 28 K     0.00000    0.00283    0.00664
 29 K    -0.00524   -0.00000    0.00627
 30 K    -0.03232    0.02043    0.02117
 31 K     0.00000   -0.00000  -12.75219
 32 K     0.00000   -0.00018    0.00281
 33 K    -0.00101   -0.00143    0.00186
 34 K    -0.00110   -0.00255   -0.00527
 35 K     0.00000   -0.00425   -0.00495
 36 K    -0.00000   -0.00283    0.00664
 37 K     0.00166    0.00296    0.00466
 38 K    -0.03232   -0.02043    0.02117
 39 K     0.00000   -0.04581    0.01738
 40 K     0.00000    0.00000    0.00149
 41 K    -0.00101    0.00143    0.00186
 42 K     0.00015    0.00000   -0.00449
 43 K     0.00000    0.00425   -0.00495
 44 K    -0.00000    0.00000    0.00557
 45 K     0.00166   -0.00296    0.00466
 46 K     0.00409    0.00000   -0.00816
 47 K     0.00000    0.04581    0.01738
 48 K    -0.00058   -0.00139    0.00322
 49 K    -0.00000   -0.00000    0.00283
 50 K    -0.00000   -0.00179   -0.00618
 51 K    -0.00339   -0.00000   -0.00293
 52 K     0.00140   -0.00013    0.00508
 53 K    -0.00000   -0.00000    0.01051
 54 K     0.00000    0.00125   -0.00531
 55 K     0.00370   -0.00000   -0.00403
 56 K    -0.00058    0.00139    0.00322
 57 K    -0.00000    0.00244    0.00442
 58 K    -0.00000    0.00179   -0.00618
 59 K     0.00045    0.00001   -0.00602
 60 K     0.00140    0.00013    0.00508
 61 K    -0.00000   -0.00141    0.00810
 62 K    -0.00000   -0.00125   -0.00531
 63 K     0.00296    0.00286   -0.00567
 64 K     0.00182    0.00000    0.00398
 65 K    -0.00000   -0.00244    0.00442
 66 K    -0.00000    0.00000   -0.00978
 67 K     0.00045   -0.00001   -0.00602
 68 K    -0.00275    0.00000    0.00905
 69 K    -0.00000    0.00141    0.00810
 70 K     0.00000    0.00000   -0.00252
 71 K     0.00296   -0.00286   -0.00567
 72 K    -0.00000   -0.00000   12.63528

System changes: positions 

Initializing position-dependent things.

Density initialized from wave functions
           .------------------------------------------------------.  
          /|                                                      |  
         / |                                                      |  
        /  |                                                      |  
       /   |                                                      |  
      /    |                                                      |  
     /     |                                                      |  
    /      |                                                      |  
   /       |                                                      |  
  /        |                                                      |  
 *         |                                                      |  
 |         |                                                      |  
 |         |                                                      |  
 |         |                                                      |  
 |         |                K                 K                 K |  
 |         |                                                      |  
 |         |     K                 K                  K           |  
 |         |            K                  K    K            K    K  
 |         |      K  K               K                 K          |  
 |         |  K                 K                 K               |  
 |      K  |              K                 K                     |  
 |         |         K                 K                  K       |  
 |        K|   K            K     K            K    K             |  
 |       K |           K    K            K    K            K      |  
 |         |                                                      |  
 |         |K    K            K    K            K    K            |  
 |    K    |            K                  K                      |  
 |         |       K                 K                 K          |  
 |         | K                  K                 K               |  
 |      K  |              K                 K                     |  
 | K       |         K                 K                          |  
 |        K|   K             K   K             K    K             |  
 |  K      |           K                 K                        |  
 |         |                                                      |  
 |         |K                 K                  K                |  
 |         |                                                      |  
 K         |       K                  K                           |  
 |         |                                                      |  
 |         .------------------------------------------------------.  
 |        /                                                      /   
 |       /                                                      /    
 |      /                                                      /     
 |     /                                                      /      
 |    /                                                      /       
 |   /                                                      /        
 |  /                                                      /         
 | /                                                      /          
 |/                                                      /           
 *------------------------------------------------------*            

Atomic positions and initial magnetic moments

Positions:
   0 K      0.000000    0.000000   10.000000    ( 0.0000,  0.0000,  0.0000)
   1 K      3.698168    2.615000   10.000000    ( 0.0000,  0.0000,  0.0000)
   2 K      3.698168    0.000000   13.698168    ( 0.0000,  0.0000,  0.0000)
   3 K      0.000000    2.615000   13.698168    ( 0.0000,  0.0000,  0.0000)
   4 K     -0.000020   -0.000002   17.396409    ( 0.0000,  0.0000,  0.0000)
   5 K      3.698243    2.615000   17.396426    ( 0.0000,  0.0000,  0.0000)
   6 K      3.698630    0.000292   21.094808    ( 0.0000,  0.0000,  0.0000)
   7 K     -0.000053    2.615000   21.094448    ( 0.0000,  0.0000,  0.0000)
   8 K      0.000000    5.230000   10.000000    ( 0.0000,  0.0000,  0.0000)
   9 K      3.698168    7.845000   10.000000    ( 0.0000,  0.0000,  0.0000)
  10 K      3.698168    5.230000   13.698168    ( 0.0000,  0.0000,  0.0000)
  11 K      0.000000    7.845000   13.698168    ( 0.0000,  0.0000,  0.0000)
  12 K     -0.000020    5.230002   17.396409    ( 0.0000,  0.0000,  0.0000)
  13 K      3.698145    7.845042   17.396404    ( 0.0000,  0.0000,  0.0000)
  14 K      3.698630    5.229708   21.094808    ( 0.0000,  0.0000,  0.0000)
  15 K     -0.000042    7.845041   21.094424    ( 0.0000,  0.0000,  0.0000)
  16 K      0.000000   10.460000   10.000000    ( 0.0000,  0.0000,  0.0000)
  17 K      3.698168   13.075000   10.000000    ( 0.0000,  0.0000,  0.0000)
  18 K      3.698168   10.460000   13.698168    ( 0.0000,  0.0000,  0.0000)
  19 K      0.000000   13.075000   13.698168    ( 0.0000,  0.0000,  0.0000)
  20 K      0.000039   10.460000   17.396466    ( 0.0000,  0.0000,  0.0000)
  21 K      3.698145   13.074958   17.396404    ( 0.0000,  0.0000,  0.0000)
  22 K      3.698110   10.460000   21.094389    ( 0.0000,  0.0000,  0.0000)
  23 K     -0.000042   13.074959   21.094424    ( 0.0000,  0.0000,  0.0000)
  24 K      7.396337    0.000000   10.000000    ( 0.0000,  0.0000,  0.0000)
  25 K     11.094505    2.615000   10.000000    ( 0.0000,  0.0000,  0.0000)
  26 K     11.094505    0.000000   13.698168    ( 0.0000,  0.0000,  0.0000)
  27 K      7.396337    2.615000   13.698168    ( 0.0000,  0.0000,  0.0000)
  28 K      7.396337    0.000040   17.396432    ( 0.0000,  0.0000,  0.0000)
  29 K     11.094431    2.615000   17.396426    ( 0.0000,  0.0000,  0.0000)
  30 K     11.094044    0.000292   21.094808    ( 0.0000,  0.0000,  0.0000)
  31 K      7.396337    2.615000   20.912331    ( 0.0000,  0.0000,  0.0000)
  32 K      7.396337    5.230000   10.000000    ( 0.0000,  0.0000,  0.0000)
  33 K     11.094505    7.845000   10.000000    ( 0.0000,  0.0000,  0.0000)
  34 K     11.094505    5.230000   13.698168    ( 0.0000,  0.0000,  0.0000)
  35 K      7.396337    7.845000   13.698168    ( 0.0000,  0.0000,  0.0000)
  36 K      7.396337    5.229960   17.396432    ( 0.0000,  0.0000,  0.0000)
  37 K     11.094529    7.845042   17.396404    ( 0.0000,  0.0000,  0.0000)
  38 K     11.094044    5.229708   21.094808    ( 0.0000,  0.0000,  0.0000)
  39 K      7.396337    7.844346   21.094754    ( 0.0000,  0.0000,  0.0000)
  40 K      7.396337   10.460000   10.000000    ( 0.0000,  0.0000,  0.0000)
  41 K     11.094505   13.075000   10.000000    ( 0.0000,  0.0000,  0.0000)
  42 K     11.094505   10.460000   13.698168    ( 0.0000,  0.0000,  0.0000)
  43 K      7.396337   13.075000   13.698168    ( 0.0000,  0.0000,  0.0000)
  44 K      7.396337   10.460000   17.396416    ( 0.0000,  0.0000,  0.0000)
  45 K     11.094529   13.074958   17.396404    ( 0.0000,  0.0000,  0.0000)
  46 K     11.094564   10.460000   21.094389    ( 0.0000,  0.0000,  0.0000)
  47 K      7.396337   13.075654   21.094754    ( 0.0000,  0.0000,  0.0000)
  48 K     14.792674    0.000000   10.000000    ( 0.0000,  0.0000,  0.0000)
  49 K     18.490842    2.615000   10.000000    ( 0.0000,  0.0000,  0.0000)
  50 K     18.490842    0.000000   13.698168    ( 0.0000,  0.0000,  0.0000)
  51 K     14.792674    2.615000   13.698168    ( 0.0000,  0.0000,  0.0000)
  52 K     14.792694   -0.000002   17.396409    ( 0.0000,  0.0000,  0.0000)
  53 K     18.490842    2.615000   17.396487    ( 0.0000,  0.0000,  0.0000)
  54 K     18.490842    0.000018   21.094429    ( 0.0000,  0.0000,  0.0000)
  55 K     14.792727    2.615000   21.094448    ( 0.0000,  0.0000,  0.0000)
  56 K     14.792674    5.230000   10.000000    ( 0.0000,  0.0000,  0.0000)
  57 K     18.490842    7.845000   10.000000    ( 0.0000,  0.0000,  0.0000)
  58 K     18.490842    5.230000   13.698168    ( 0.0000,  0.0000,  0.0000)
  59 K     14.792674    7.845000   13.698168    ( 0.0000,  0.0000,  0.0000)
  60 K     14.792694    5.230002   17.396409    ( 0.0000,  0.0000,  0.0000)
  61 K     18.490842    7.844980   17.396453    ( 0.0000,  0.0000,  0.0000)
  62 K     18.490842    5.229982   21.094429    ( 0.0000,  0.0000,  0.0000)
  63 K     14.792716    7.845041   21.094424    ( 0.0000,  0.0000,  0.0000)
  64 K     14.792674   10.460000   10.000000    ( 0.0000,  0.0000,  0.0000)
  65 K     18.490842   13.075000   10.000000    ( 0.0000,  0.0000,  0.0000)
  66 K     18.490842   10.460000   13.698168    ( 0.0000,  0.0000,  0.0000)
  67 K     14.792674   13.075000   13.698168    ( 0.0000,  0.0000,  0.0000)
  68 K     14.792635   10.460000   17.396466    ( 0.0000,  0.0000,  0.0000)
  69 K     18.490842   13.075020   17.396453    ( 0.0000,  0.0000,  0.0000)
  70 K     18.490842   10.460000   21.094469    ( 0.0000,  0.0000,  0.0000)
  71 K     14.792716   13.074959   21.094424    ( 0.0000,  0.0000,  0.0000)
  72 K      7.396337    2.615000   23.275009    ( 0.0000,  0.0000,  0.0000)

Unit cell:
           periodic     x           y           z      points  spacing
  1. axis:    yes   22.189011    0.000000    0.000000    75     0.2959
  2. axis:    yes    0.000000   15.690000    0.000000    54     0.2906
  3. axis:    no     0.000000    0.000000   31.094505   105     0.2961

  Lengths:  22.189011  15.690000  31.094505
  Angles:   90.000000  90.000000  90.000000

Effective grid spacing dv^(1/3) = 0.2942

     iter     time        total  log10-change:
                         energy   eigst   dens
iter:   1 11:21:36   -36.325573   -2.53
iter:   2 11:22:54   -36.276698   -3.64  -2.42
iter:   3 11:24:19   -36.266902c  -4.18  -2.64
iter:   4 11:25:52   -36.265050c  -4.52  -3.06
iter:   5 11:27:24   -36.263259c  -4.83  -3.15
iter:   6 11:28:48   -36.262391c  -4.94  -3.26
iter:   7 11:30:03   -36.262288c  -5.37c -3.19
iter:   8 11:31:17   -36.262307c  -5.92c -3.57
iter:   9 11:32:34   -36.261859c  -6.17c -3.65
iter:  10 11:34:05   -36.261967c  -6.60c -3.88
iter:  11 11:35:35   -36.261981c  -7.00c -3.93
iter:  12 11:37:04   -36.261997c  -7.42c -4.07c

Converged after 12 iterations.

Dipole moment: (-0.034578, -0.702752, 0.197992) |e|*Ang

Energy contributions relative to reference atoms: (reference = -1195904.484944)

Kinetic:       +236.443238
Potential:     -229.732951
External:        +0.000000
XC:             -74.159234
Entropy (-ST):   -2.054413
Local:          +32.214157
SIC:             +0.000000
--------------------------
Free energy:    -37.289204
Extrapolated:   -36.261997

Showing all kpts
 Kpt  Band  Eigenvalues  Occupancy
  0   326     -0.71284    1.34795
  0   327     -0.70653    1.31992
  0   328     -0.69954    1.28820
  0   329     -0.59857    0.79469

  1   326     -0.71284    1.34795
  1   327     -0.70653    1.31992
  1   328     -0.69954    1.28820
  1   329     -0.59857    0.79469


Fermi level: -0.64022

Gap: 0.101 eV
Transition (v -> c):
  (s=0, k=0, n=328, [0.25, -0.25, 0.00]) -> (s=0, k=1, n=329, [0.25, 0.25, 0.00])
Direct/indirect transitions are different
Direct gap: 0.101 eV
Transition at: (s=0, k=1, n=328, [0.25, 0.25, 0.00])

Forces in eV/Ang:
  0 K     0.00238   -0.00060    0.00076
  1 K     0.00329   -0.00000   -0.00236
  2 K     0.00068   -0.00106   -0.00974
  3 K    -0.00094   -0.00000   -0.00745
  4 K     0.00074   -0.00043    0.00960
  5 K     0.00494   -0.00000    0.00768
  6 K     0.02031    0.01499    0.02162
  7 K    -0.00284   -0.00000   -0.00376
  8 K     0.00238    0.00060    0.00076
  9 K     0.00332    0.00011    0.00003
 10 K     0.00068    0.00106   -0.00974
 11 K    -0.00237    0.00233   -0.00691
 12 K     0.00074    0.00043    0.00960
 13 K    -0.00085   -0.00308    0.00965
 14 K     0.02031   -0.01499    0.02162
 15 K     0.00069   -0.00025   -0.00017
 16 K     0.00263    0.00000    0.00348
 17 K     0.00332   -0.00011    0.00003
 18 K    -0.00104    0.00000   -0.01119
 19 K    -0.00237   -0.00233   -0.00691
 20 K    -0.00328   -0.00000    0.00480
 21 K    -0.00085    0.00308    0.00965
 22 K    -0.00269    0.00000   -0.00307
 23 K     0.00069    0.00025   -0.00017
 24 K    -0.00000   -0.00157   -0.00166
 25 K    -0.00329   -0.00000   -0.00236
 26 K    -0.00068   -0.00106   -0.00974
 27 K     0.00000   -0.00000   -0.00028
 28 K     0.00000   -0.00698   -0.01464
 29 K    -0.00494   -0.00000    0.00768
 30 K    -0.02031    0.01499    0.02162
 31 K     0.00000   -0.00000   -4.04237
 32 K     0.00000    0.00157   -0.00166
 33 K    -0.00332    0.00011    0.00003
 34 K    -0.00068    0.00106   -0.00974
 35 K     0.00000   -0.00171   -0.01165
 36 K     0.00000    0.00698   -0.01464
 37 K     0.00085   -0.00308    0.00965
 38 K    -0.02031   -0.01499    0.02162
 39 K     0.00000   -0.03175    0.01856
 40 K    -0.00000    0.00000   -0.00049
 41 K    -0.00332   -0.00011    0.00003
 42 K     0.00104    0.00000   -0.01119
 43 K     0.00000    0.00171   -0.01165
 44 K     0.00000    0.00000    0.01280
 45 K     0.00085    0.00308    0.00965
 46 K     0.00269    0.00000   -0.00307
 47 K     0.00000    0.03175    0.01856
 48 K    -0.00238   -0.00060    0.00076
 49 K    -0.00000   -0.00000    0.00316
 50 K    -0.00000   -0.00271   -0.00611
 51 K     0.00094   -0.00000   -0.00745
 52 K    -0.00074   -0.00043    0.00960
 53 K    -0.00000   -0.00000    0.00656
 54 K    -0.00000    0.00016    0.00224
 55 K     0.00284   -0.00000   -0.00376
 56 K    -0.00238    0.00060    0.00076
 57 K    -0.00000    0.00034    0.00364
 58 K    -0.00000    0.00271   -0.00611
 59 K     0.00237    0.00233   -0.00691
 60 K    -0.00074    0.00043    0.00960
 61 K    -0.00000    0.00251    0.00296
 62 K     0.00000   -0.00016    0.00224
 63 K    -0.00069   -0.00025   -0.00017
 64 K    -0.00263    0.00000    0.00348
 65 K    -0.00000   -0.00034    0.00364
 66 K    -0.00000    0.00000   -0.00358
 67 K     0.00237   -0.00233   -0.00691
 68 K     0.00328   -0.00000    0.00480
 69 K     0.00000   -0.00251    0.00296
 70 K     0.00000    0.00000    0.00169
 71 K    -0.00069    0.00025   -0.00017
 72 K    -0.00000   -0.00000    3.94845

System changes: positions 

Initializing position-dependent things.

Density initialized from wave functions
           .------------------------------------------------------.  
          /|                                                      |  
         / |                                                      |  
        /  |                                                      |  
       /   |                                                      |  
      /    |                                                      |  
     /     |                                                      |  
    /      |                                                      |  
   /       |                                                      |  
  /        |                                                      |  
 *         |                                                      |  
 |         |                                                      |  
 |         |                                                      |  
 |         |                                                      |  
 |         |                K                 K                 K |  
 |         |                                                      |  
 |         |     K                 K                  K           |  
 |         |            K    K             K    K            K    K  
 |         |      K  K               K                 K          |  
 |         |  K                 K                 K               |  
 |         |              K                 K                  K  |  
 |         |         K                 K                  K       |  
 |        K|   K            K     K            K    K             |  
 |       K |           K    K            K    K            K      |  
 |         |                                                      |  
 |         |K    K            K    K            K    K            |  
 |    K    |            K                  K                      |  
 |         |       K                 K                 K          |  
 |         | K                  K                 K               |  
 |      K  |              K                 K                     |  
 | K       |         K                 K                          |  
 |        K|   K             K   K             K    K             |  
 |  K      |           K                 K                        |  
 |         |                                                      |  
 |         |K                 K                  K                |  
 |         |                                                      |  
 K         |       K                  K                           |  
 |         |                                                      |  
 |         .------------------------------------------------------.  
 |        /                                                      /   
 |       /                                                      /    
 |      /                                                      /     
 |     /                                                      /      
 |    /                                                      /       
 |   /                                                      /        
 |  /                                                      /         
 | /                                                      /          
 |/                                                      /           
 *------------------------------------------------------*            

Atomic positions and initial magnetic moments

Positions:
   0 K      0.000000    0.000000   10.000000    ( 0.0000,  0.0000,  0.0000)
   1 K      3.698168    2.615000   10.000000    ( 0.0000,  0.0000,  0.0000)
   2 K      3.698168    0.000000   13.698168    ( 0.0000,  0.0000,  0.0000)
   3 K      0.000000    2.615000   13.698168    ( 0.0000,  0.0000,  0.0000)
   4 K     -0.000005   -0.000011   17.396610    ( 0.0000,  0.0000,  0.0000)
   5 K      3.698346    2.615000   17.396586    ( 0.0000,  0.0000,  0.0000)
   6 K      3.699054    0.000604   21.095259    ( 0.0000,  0.0000,  0.0000)
   7 K     -0.000112    2.615000   21.094369    ( 0.0000,  0.0000,  0.0000)
   8 K      0.000000    5.230000   10.000000    ( 0.0000,  0.0000,  0.0000)
   9 K      3.698168    7.845000   10.000000    ( 0.0000,  0.0000,  0.0000)
  10 K      3.698168    5.230000   13.698168    ( 0.0000,  0.0000,  0.0000)
  11 K      0.000000    7.845000   13.698168    ( 0.0000,  0.0000,  0.0000)
  12 K     -0.000005    5.230011   17.396610    ( 0.0000,  0.0000,  0.0000)
  13 K      3.698127    7.844978   17.396605    ( 0.0000,  0.0000,  0.0000)
  14 K      3.699054    5.229396   21.095259    ( 0.0000,  0.0000,  0.0000)
  15 K     -0.000028    7.845036   21.094421    ( 0.0000,  0.0000,  0.0000)
  16 K      0.000000   10.460000   10.000000    ( 0.0000,  0.0000,  0.0000)
  17 K      3.698168   13.075000   10.000000    ( 0.0000,  0.0000,  0.0000)
  18 K      3.698168   10.460000   13.698168    ( 0.0000,  0.0000,  0.0000)
  19 K      0.000000   13.075000   13.698168    ( 0.0000,  0.0000,  0.0000)
  20 K     -0.000029   10.460000   17.396566    ( 0.0000,  0.0000,  0.0000)
  21 K      3.698127   13.075022   17.396605    ( 0.0000,  0.0000,  0.0000)
  22 K      3.698054   10.460000   21.094325    ( 0.0000,  0.0000,  0.0000)
  23 K     -0.000028   13.074964   21.094421    ( 0.0000,  0.0000,  0.0000)
  24 K      7.396337    0.000000   10.000000    ( 0.0000,  0.0000,  0.0000)
  25 K     11.094505    2.615000   10.000000    ( 0.0000,  0.0000,  0.0000)
  26 K     11.094505    0.000000   13.698168    ( 0.0000,  0.0000,  0.0000)
  27 K      7.396337    2.615000   13.698168    ( 0.0000,  0.0000,  0.0000)
  28 K      7.396337   -0.000105   17.396126    ( 0.0000,  0.0000,  0.0000)
  29 K     11.094327    2.615000   17.396586    ( 0.0000,  0.0000,  0.0000)
  30 K     11.093620    0.000604   21.095259    ( 0.0000,  0.0000,  0.0000)
  31 K      7.396337    2.615000   20.828047    ( 0.0000,  0.0000,  0.0000)
  32 K      7.396337    5.230000   10.000000    ( 0.0000,  0.0000,  0.0000)
  33 K     11.094505    7.845000   10.000000    ( 0.0000,  0.0000,  0.0000)
  34 K     11.094505    5.230000   13.698168    ( 0.0000,  0.0000,  0.0000)
  35 K      7.396337    7.845000   13.698168    ( 0.0000,  0.0000,  0.0000)
  36 K      7.396337    5.230105   17.396126    ( 0.0000,  0.0000,  0.0000)
  37 K     11.094547    7.844978   17.396605    ( 0.0000,  0.0000,  0.0000)
  38 K     11.093620    5.229396   21.095259    ( 0.0000,  0.0000,  0.0000)
  39 K      7.396337    7.843684   21.095141    ( 0.0000,  0.0000,  0.0000)
  40 K      7.396337   10.460000   10.000000    ( 0.0000,  0.0000,  0.0000)
  41 K     11.094505   13.075000   10.000000    ( 0.0000,  0.0000,  0.0000)
  42 K     11.094505   10.460000   13.698168    ( 0.0000,  0.0000,  0.0000)
  43 K      7.396337   13.075000   13.698168    ( 0.0000,  0.0000,  0.0000)
  44 K      7.396337   10.460000   17.396683    ( 0.0000,  0.0000,  0.0000)
  45 K     11.094547   13.075022   17.396605    ( 0.0000,  0.0000,  0.0000)
  46 K     11.094620   10.460000   21.094325    ( 0.0000,  0.0000,  0.0000)
  47 K      7.396337   13.076316   21.095141    ( 0.0000,  0.0000,  0.0000)
  48 K     14.792674    0.000000   10.000000    ( 0.0000,  0.0000,  0.0000)
  49 K     18.490842    2.615000   10.000000    ( 0.0000,  0.0000,  0.0000)
  50 K     18.490842    0.000000   13.698168    ( 0.0000,  0.0000,  0.0000)
  51 K     14.792674    2.615000   13.698168    ( 0.0000,  0.0000,  0.0000)
  52 K     14.792678   -0.000011   17.396610    ( 0.0000,  0.0000,  0.0000)
  53 K     18.490842    2.615000   17.396624    ( 0.0000,  0.0000,  0.0000)
  54 K     18.490842    0.000021   21.094476    ( 0.0000,  0.0000,  0.0000)
  55 K     14.792786    2.615000   21.094369    ( 0.0000,  0.0000,  0.0000)
  56 K     14.792674    5.230000   10.000000    ( 0.0000,  0.0000,  0.0000)
  57 K     18.490842    7.845000   10.000000    ( 0.0000,  0.0000,  0.0000)
  58 K     18.490842    5.230000   13.698168    ( 0.0000,  0.0000,  0.0000)
  59 K     14.792674    7.845000   13.698168    ( 0.0000,  0.0000,  0.0000)
  60 K     14.792678    5.230011   17.396610    ( 0.0000,  0.0000,  0.0000)
  61 K     18.490842    7.845032   17.396514    ( 0.0000,  0.0000,  0.0000)
  62 K     18.490842    5.229979   21.094476    ( 0.0000,  0.0000,  0.0000)
  63 K     14.792702    7.845036   21.094421    ( 0.0000,  0.0000,  0.0000)
  64 K     14.792674   10.460000   10.000000    ( 0.0000,  0.0000,  0.0000)
  65 K     18.490842   13.075000   10.000000    ( 0.0000,  0.0000,  0.0000)
  66 K     18.490842   10.460000   13.698168    ( 0.0000,  0.0000,  0.0000)
  67 K     14.792674   13.075000   13.698168    ( 0.0000,  0.0000,  0.0000)
  68 K     14.792703   10.460000   17.396566    ( 0.0000,  0.0000,  0.0000)
  69 K     18.490842   13.074968   17.396514    ( 0.0000,  0.0000,  0.0000)
  70 K     18.490842   10.460000   21.094505    ( 0.0000,  0.0000,  0.0000)
  71 K     14.792702   13.074964   21.094421    ( 0.0000,  0.0000,  0.0000)
  72 K      7.396337    2.615000   23.357335    ( 0.0000,  0.0000,  0.0000)

Unit cell:
           periodic     x           y           z      points  spacing
  1. axis:    yes   22.189011    0.000000    0.000000    75     0.2959
  2. axis:    yes    0.000000   15.690000    0.000000    54     0.2906
  3. axis:    no     0.000000    0.000000   31.094505   105     0.2961

  Lengths:  22.189011  15.690000  31.094505
  Angles:   90.000000  90.000000  90.000000

Effective grid spacing dv^(1/3) = 0.2942

     iter     time        total  log10-change:
                         energy   eigst   dens
iter:   1 11:39:02   -36.813855   -3.44
iter:   2 11:40:20   -36.795861   -4.29  -2.69
iter:   3 11:41:39   -36.792345c  -4.70  -2.90
iter:   4 11:42:58   -36.791831c  -5.10  -3.36
iter:   5 11:44:20   -36.791457c  -5.71c -3.52
iter:   6 11:46:05   -36.791096c  -5.94c -3.67
iter:   7 11:47:34   -36.791503c  -6.09c -3.58
iter:   8 11:49:56   -36.791432c  -6.98c -3.87
iter:   9 11:51:47   -36.791262c  -7.06c -3.92
iter:  10 11:53:35   -36.791322c  -7.73c -4.18c

Converged after 10 iterations.

Dipole moment: (-0.024382, -0.755407, 0.195162) |e|*Ang

Energy contributions relative to reference atoms: (reference = -1195904.484944)

Kinetic:       +233.674217
Potential:     -227.988974
External:        +0.000000
XC:             -73.694578
Entropy (-ST):   -2.056050
Local:          +32.246038
SIC:             +0.000000
--------------------------
Free energy:    -37.819347
Extrapolated:   -36.791322

Showing all kpts
 Kpt  Band  Eigenvalues  Occupancy
  0   326     -0.71282    1.34776
  0   327     -0.70682    1.32112
  0   328     -0.69966    1.28864
  0   329     -0.59835    0.79358

  1   326     -0.71282    1.34776
  1   327     -0.70682    1.32112
  1   328     -0.69966    1.28864
  1   329     -0.59835    0.79358


Fermi level: -0.64024

Gap: 0.101 eV
Transition (v -> c):
  (s=0, k=0, n=328, [0.25, -0.25, 0.00]) -> (s=0, k=0, n=329, [0.25, -0.25, 0.00])
No difference between direct/indirect transitions

Forces in eV/Ang:
  0 K     0.00032   -0.00129   -0.00144
  1 K     0.00201   -0.00000   -0.00193
  2 K     0.00122    0.00144   -0.00561
  3 K     0.00091   -0.00000   -0.00543
  4 K     0.00214    0.00111    0.00873
  5 K    -0.00317   -0.00000   -0.00248
  6 K     0.01586    0.01125    0.02276
  7 K    -0.00133   -0.00000   -0.00284
  8 K     0.00032    0.00129   -0.00144
  9 K     0.00039   -0.00056   -0.00166
 10 K     0.00122   -0.00144   -0.00561
 11 K    -0.00210    0.00098   -0.00731
 12 K     0.00214   -0.00111    0.00873
 13 K     0.00042   -0.00364    0.00885
 14 K     0.01586   -0.01125    0.02276
 15 K     0.00079   -0.00058   -0.00032
 16 K    -0.00127    0.00000    0.00025
 17 K     0.00039    0.00056   -0.00166
 18 K    -0.00111    0.00000   -0.00706
 19 K    -0.00210   -0.00098   -0.00731
 20 K     0.00010   -0.00000    0.00636
 21 K     0.00042    0.00364    0.00885
 22 K    -0.00185    0.00000   -0.00355
 23 K     0.00079    0.00058   -0.00032
 24 K     0.00000    0.00045   -0.00081
 25 K    -0.00201   -0.00000   -0.00193
 26 K    -0.00122    0.00144   -0.00561
 27 K     0.00000   -0.00000    0.00082
 28 K     0.00000   -0.02560   -0.03759
 29 K     0.00317   -0.00000   -0.00248
 30 K    -0.01586    0.01125    0.02276
 31 K     0.00000   -0.00000   -2.55373
 32 K     0.00000   -0.00045   -0.00081
 33 K    -0.00039   -0.00056   -0.00166
 34 K    -0.00122   -0.00144   -0.00561
 35 K    -0.00000   -0.00431   -0.00615
 36 K     0.00000    0.02560   -0.03759
 37 K    -0.00042   -0.00364    0.00885
 38 K    -0.01586   -0.01125    0.02276
 39 K    -0.00000   -0.02839    0.01836
 40 K    -0.00000    0.00000   -0.00254
 41 K    -0.00039    0.00056   -0.00166
 42 K     0.00111    0.00000   -0.00706
 43 K     0.00000    0.00431   -0.00615
 44 K     0.00000   -0.00000    0.01219
 45 K    -0.00042    0.00364    0.00885
 46 K     0.00185    0.00000   -0.00355
 47 K     0.00000    0.02839    0.01836
 48 K    -0.00032   -0.00129   -0.00144
 49 K    -0.00000   -0.00000    0.00020
 50 K    -0.00000   -0.00243   -0.00690
 51 K    -0.00091   -0.00000   -0.00543
 52 K    -0.00214    0.00111    0.00873
 53 K    -0.00000   -0.00000    0.00790
 54 K    -0.00000    0.00121    0.00134
 55 K     0.00133   -0.00000   -0.00284
 56 K    -0.00032    0.00129   -0.00144
 57 K    -0.00000    0.00203    0.00042
 58 K     0.00000    0.00243   -0.00690
 59 K     0.00210    0.00098   -0.00731
 60 K    -0.00214   -0.00111    0.00873
 61 K     0.00000   -0.00004    0.00449
 62 K    -0.00000   -0.00121    0.00134
 63 K    -0.00079   -0.00058   -0.00032
 64 K     0.00127    0.00000    0.00025
 65 K    -0.00000   -0.00203    0.00042
 66 K    -0.00000    0.00000   -0.00769
 67 K     0.00210   -0.00098   -0.00731
 68 K    -0.00010   -0.00000    0.00636
 69 K     0.00000    0.00004    0.00449
 70 K    -0.00000    0.00000    0.00265
 71 K    -0.00079    0.00058   -0.00032
 72 K    -0.00000   -0.00000    2.46501

System changes: positions 

Initializing position-dependent things.

Density initialized from wave functions
           .------------------------------------------------------.  
          /|                                                      |  
         / |                                                      |  
        /  |                                                      |  
       /   |                                                      |  
      /    |                                                      |  
     /     |                                                      |  
    /      |                                                      |  
   /       |                                                      |  
  /        |                                                      |  
 *         |                                                      |  
 |         |                                                      |  
 |         |                                                      |  
 |         |                                                      |  
 |       K |                K                 K                   |  
 |         |                                                      |  
 |         |     K                 K                 K            |  
 |    K    |            K    K             K                      |  
 |         |       K K               K                 K          |  
 |         |  K                 K                 K               |  
 |         |              K                 K                  K  |  
 |         |         K                 K                  K       |  
 |        K|   K            K    K             K    K             |  
 |  K    K |           K    K            K    K                   |  
 |         |                                                      |  
 |         |K    K            K    K            K    K            |  
 |    K    |            K                  K                      |  
 K         |       K                 KK                K          |  
 |         | K                  K                 K               |  
 |      K  |              K                 K                     |  
 | K       |         K                 K                          |  
 |        K|   K             K   K             K    K             |  
 |  K      |           K                 K                        |  
 |         |                                                      |  
 |         |K                 K                  K                |  
 |         |                                                      |  
 K         |       K                  K                           |  
 |         |                                                      |  
 |         .------------------------------------------------------.  
 |        /                                                      /   
 |       /                                                      /    
 |      /                                                      /     
 |     /                                                      /      
 |    /                                                      /       
 |   /                                                      /        
 |  /                                                      /         
 | /                                                      /          
 |/                                                      /           
 *------------------------------------------------------*            

Atomic positions and initial magnetic moments

Positions:
   0 K      0.000000    0.000000   10.000000    ( 0.0000,  0.0000,  0.0000)
   1 K      3.698168    2.615000   10.000000    ( 0.0000,  0.0000,  0.0000)
   2 K      3.698168    0.000000   13.698168    ( 0.0000,  0.0000,  0.0000)
   3 K      0.000000    2.615000   13.698168    ( 0.0000,  0.0000,  0.0000)
   4 K      0.000086    0.000027   17.397051    ( 0.0000,  0.0000,  0.0000)
   5 K      3.698279    2.615000   17.396576    ( 0.0000,  0.0000,  0.0000)
   6 K      3.699889    0.001203   21.096373    ( 0.0000,  0.0000,  0.0000)
   7 K     -0.000195    2.615000   21.094219    ( 0.0000,  0.0000,  0.0000)
   8 K      0.000000    5.230000   10.000000    ( 0.0000,  0.0000,  0.0000)
   9 K      3.698168    7.845000   10.000000    ( 0.0000,  0.0000,  0.0000)
  10 K      3.698168    5.230000   13.698168    ( 0.0000,  0.0000,  0.0000)
  11 K      0.000000    7.845000   13.698168    ( 0.0000,  0.0000,  0.0000)
  12 K      0.000086    5.229973   17.397051    ( 0.0000,  0.0000,  0.0000)
  13 K      3.698134    7.844804   17.397052    ( 0.0000,  0.0000,  0.0000)
  14 K      3.699889    5.228797   21.096373    ( 0.0000,  0.0000,  0.0000)
  15 K      0.000010    7.845011   21.094407    ( 0.0000,  0.0000,  0.0000)
  16 K      0.000000   10.460000   10.000000    ( 0.0000,  0.0000,  0.0000)
  17 K      3.698168   13.075000   10.000000    ( 0.0000,  0.0000,  0.0000)
  18 K      3.698168   10.460000   13.698168    ( 0.0000,  0.0000,  0.0000)
  19 K      0.000000   13.075000   13.698168    ( 0.0000,  0.0000,  0.0000)
  20 K     -0.000062   10.460000   17.396864    ( 0.0000,  0.0000,  0.0000)
  21 K      3.698134   13.075196   17.397052    ( 0.0000,  0.0000,  0.0000)
  22 K      3.697953   10.460000   21.094154    ( 0.0000,  0.0000,  0.0000)
  23 K      0.000010   13.074989   21.094407    ( 0.0000,  0.0000,  0.0000)
  24 K      7.396337    0.000000   10.000000    ( 0.0000,  0.0000,  0.0000)
  25 K     11.094505    2.615000   10.000000    ( 0.0000,  0.0000,  0.0000)
  26 K     11.094505    0.000000   13.698168    ( 0.0000,  0.0000,  0.0000)
  27 K      7.396337    2.615000   13.698168    ( 0.0000,  0.0000,  0.0000)
  28 K      7.396337   -0.001166   17.394520    ( 0.0000,  0.0000,  0.0000)
  29 K     11.094394    2.615000   17.396576    ( 0.0000,  0.0000,  0.0000)
  30 K     11.092785    0.001203   21.096373    ( 0.0000,  0.0000,  0.0000)
  31 K      7.396337    2.615000   20.685034    ( 0.0000,  0.0000,  0.0000)
  32 K      7.396337    5.230000   10.000000    ( 0.0000,  0.0000,  0.0000)
  33 K     11.094505    7.845000   10.000000    ( 0.0000,  0.0000,  0.0000)
  34 K     11.094505    5.230000   13.698168    ( 0.0000,  0.0000,  0.0000)
  35 K      7.396337    7.845000   13.698168    ( 0.0000,  0.0000,  0.0000)
  36 K      7.396337    5.231166   17.394520    ( 0.0000,  0.0000,  0.0000)
  37 K     11.094540    7.844804   17.397052    ( 0.0000,  0.0000,  0.0000)
  38 K     11.092785    5.228797   21.096373    ( 0.0000,  0.0000,  0.0000)
  39 K      7.396337    7.842241   21.096052    ( 0.0000,  0.0000,  0.0000)
  40 K      7.396337   10.460000   10.000000    ( 0.0000,  0.0000,  0.0000)
  41 K     11.094505   13.075000   10.000000    ( 0.0000,  0.0000,  0.0000)
  42 K     11.094505   10.460000   13.698168    ( 0.0000,  0.0000,  0.0000)
  43 K      7.396337   13.075000   13.698168    ( 0.0000,  0.0000,  0.0000)
  44 K      7.396337   10.460000   17.397294    ( 0.0000,  0.0000,  0.0000)
  45 K     11.094540   13.075196   17.397052    ( 0.0000,  0.0000,  0.0000)
  46 K     11.094721   10.460000   21.094154    ( 0.0000,  0.0000,  0.0000)
  47 K      7.396337   13.077759   21.096052    ( 0.0000,  0.0000,  0.0000)
  48 K     14.792674    0.000000   10.000000    ( 0.0000,  0.0000,  0.0000)
  49 K     18.490842    2.615000   10.000000    ( 0.0000,  0.0000,  0.0000)
  50 K     18.490842    0.000000   13.698168    ( 0.0000,  0.0000,  0.0000)
  51 K     14.792674    2.615000   13.698168    ( 0.0000,  0.0000,  0.0000)
  52 K     14.792588    0.000027   17.397051    ( 0.0000,  0.0000,  0.0000)
  53 K     18.490842    2.615000   17.397000    ( 0.0000,  0.0000,  0.0000)
  54 K     18.490842    0.000069   21.094552    ( 0.0000,  0.0000,  0.0000)
  55 K     14.792869    2.615000   21.094219    ( 0.0000,  0.0000,  0.0000)
  56 K     14.792674    5.230000   10.000000    ( 0.0000,  0.0000,  0.0000)
  57 K     18.490842    7.845000   10.000000    ( 0.0000,  0.0000,  0.0000)
  58 K     18.490842    5.230000   13.698168    ( 0.0000,  0.0000,  0.0000)
  59 K     14.792674    7.845000   13.698168    ( 0.0000,  0.0000,  0.0000)
  60 K     14.792588    5.229973   17.397051    ( 0.0000,  0.0000,  0.0000)
  61 K     18.490842    7.845059   17.396720    ( 0.0000,  0.0000,  0.0000)
  62 K     18.490842    5.229931   21.094552    ( 0.0000,  0.0000,  0.0000)
  63 K     14.792664    7.845011   21.094407    ( 0.0000,  0.0000,  0.0000)
  64 K     14.792674   10.460000   10.000000    ( 0.0000,  0.0000,  0.0000)
  65 K     18.490842   13.075000   10.000000    ( 0.0000,  0.0000,  0.0000)
  66 K     18.490842   10.460000   13.698168    ( 0.0000,  0.0000,  0.0000)
  67 K     14.792674   13.075000   13.698168    ( 0.0000,  0.0000,  0.0000)
  68 K     14.792736   10.460000   17.396864    ( 0.0000,  0.0000,  0.0000)
  69 K     18.490842   13.074941   17.396720    ( 0.0000,  0.0000,  0.0000)
  70 K     18.490842   10.460000   21.094625    ( 0.0000,  0.0000,  0.0000)
  71 K     14.792664   13.074989   21.094407    ( 0.0000,  0.0000,  0.0000)
  72 K      7.396337    2.615000   23.495897    ( 0.0000,  0.0000,  0.0000)

Unit cell:
           periodic     x           y           z      points  spacing
  1. axis:    yes   22.189011    0.000000    0.000000    75     0.2959
  2. axis:    yes    0.000000   15.690000    0.000000    54     0.2906
  3. axis:    no     0.000000    0.000000   31.094505   105     0.2961

  Lengths:  22.189011  15.690000  31.094505
  Angles:   90.000000  90.000000  90.000000

Effective grid spacing dv^(1/3) = 0.2942

     iter     time        total  log10-change:
                         energy   eigst   dens
iter:   1 11:57:41   -37.395876   -3.20
iter:   2 11:59:26   -37.327849   -4.05  -2.43
iter:   3 12:01:07   -37.313003c  -4.51  -2.65
iter:   4 12:02:28   -37.309171c  -4.97  -3.18
iter:   5 12:08:53   -37.307513c  -5.47c -3.28
iter:   6 13:24:09   -37.306652c  -5.51c -3.44
iter:   7 13:25:23   -37.307209c  -5.68c -3.38
iter:   8 13:26:36   -37.307185c  -6.47c -3.61
iter:   9 13:27:50   -37.306795c  -6.60c -3.63
iter:  10 13:29:06   -37.306919c  -7.29c -3.87
iter:  11 13:30:18   -37.306956c  -7.47c -3.95
iter:  12 13:31:33   -37.306971c  -7.82c -4.05c

Converged after 12 iterations.

Dipole moment: (-0.043886, -0.792897, 0.205832) |e|*Ang

Energy contributions relative to reference atoms: (reference = -1195904.484944)

Kinetic:       +231.587813
Potential:     -226.835213
External:        +0.000000
XC:             -73.296318
Entropy (-ST):   -2.057064
Local:          +32.265279
SIC:             +0.000000
--------------------------
Free energy:    -38.335503
Extrapolated:   -37.306971

Showing all kpts
 Kpt  Band  Eigenvalues  Occupancy
  0   326     -0.71138    1.34502
  0   327     -0.70616    1.32185
  0   328     -0.69881    1.28853
  0   329     -0.59761    0.79392

  1   326     -0.71138    1.34502
  1   327     -0.70616    1.32185
  1   328     -0.69881    1.28853
  1   329     -0.59761    0.79392


Fermi level: -0.63942

Gap: 0.101 eV
Transition (v -> c):
  (s=0, k=0, n=328, [0.25, -0.25, 0.00]) -> (s=0, k=1, n=329, [0.25, 0.25, 0.00])
Direct/indirect transitions are different
Direct gap: 0.101 eV
Transition at: (s=0, k=1, n=328, [0.25, 0.25, 0.00])

Forces in eV/Ang:
  0 K     0.00145   -0.00037   -0.00106
  1 K     0.00248   -0.00000   -0.00268
  2 K     0.00103   -0.00032   -0.00732
  3 K    -0.00091   -0.00000   -0.00634
  4 K     0.00053   -0.00047    0.00764
  5 K    -0.00865   -0.00000   -0.00558
  6 K     0.01141    0.00866    0.02412
  7 K     0.00550   -0.00000    0.00234
  8 K     0.00145    0.00037   -0.00106
  9 K     0.00210   -0.00020   -0.00140
 10 K     0.00103    0.00032   -0.00732
 11 K    -0.00211    0.00179   -0.00572
 12 K     0.00053    0.00047    0.00764
 13 K     0.00081   -0.00558    0.00848
 14 K     0.01141   -0.00866    0.02412
 15 K     0.00124   -0.00135    0.00269
 16 K     0.00122    0.00000    0.00113
 17 K     0.00210    0.00020   -0.00140
 18 K    -0.00063    0.00000   -0.00797
 19 K    -0.00211   -0.00179   -0.00572
 20 K    -0.00308    0.00000    0.00406
 21 K     0.00081    0.00558    0.00848
 22 K     0.00071    0.00000    0.00372
 23 K     0.00124    0.00135    0.00269
 24 K    -0.00000   -0.00057   -0.00116
 25 K    -0.00248   -0.00000   -0.00268
 26 K    -0.00103   -0.00032   -0.00732
 27 K     0.00000   -0.00000   -0.01478
 28 K    -0.00000   -0.04700   -0.06109
 29 K     0.00865   -0.00000   -0.00558
 30 K    -0.01141    0.00866    0.02412
 31 K     0.00000   -0.00000   -1.28163
 32 K    -0.00000    0.00057   -0.00116
 33 K    -0.00210   -0.00020   -0.00140
 34 K    -0.00103    0.00032   -0.00732
 35 K    -0.00000   -0.00184   -0.00865
 36 K     0.00000    0.04700   -0.06109
 37 K    -0.00081   -0.00558    0.00848
 38 K    -0.01141   -0.00866    0.02412
 39 K     0.00000   -0.02385    0.02064
 40 K    -0.00000    0.00000   -0.00162
 41 K    -0.00210    0.00020   -0.00140
 42 K     0.00063    0.00000   -0.00797
 43 K     0.00000    0.00184   -0.00865
 44 K     0.00000    0.00000    0.00894
 45 K    -0.00081    0.00558    0.00848
 46 K    -0.00071    0.00000    0.00372
 47 K    -0.00000    0.02385    0.02064
 48 K    -0.00145   -0.00037   -0.00106
 49 K    -0.00000   -0.00000    0.00114
 50 K    -0.00000   -0.00214   -0.00561
 51 K     0.00091   -0.00000   -0.00634
 52 K    -0.00053   -0.00047    0.00764
 53 K    -0.00000   -0.00000    0.00480
 54 K     0.00000   -0.00060    0.00299
 55 K    -0.00550   -0.00000    0.00234
 56 K    -0.00145    0.00037   -0.00106
 57 K    -0.00000    0.00062    0.00139
 58 K     0.00000    0.00214   -0.00561
 59 K     0.00211    0.00179   -0.00572
 60 K    -0.00053    0.00047    0.00764
 61 K    -0.00000    0.00212    0.00343
 62 K    -0.00000    0.00060    0.00299
 63 K    -0.00124   -0.00135    0.00269
 64 K    -0.00122    0.00000    0.00113
 65 K    -0.00000   -0.00062    0.00139
 66 K    -0.00000    0.00000   -0.00321
 67 K     0.00211   -0.00179   -0.00572
 68 K     0.00308    0.00000    0.00406
 69 K    -0.00000   -0.00212    0.00343
 70 K    -0.00000    0.00000    0.00167
 71 K    -0.00124    0.00135    0.00269
 72 K     0.00000    0.00000    1.28615

System changes: positions 

Initializing position-dependent things.

Density initialized from wave functions
           .------------------------------------------------------.  
          /|                                                      |  
         / |                                                      |  
        /  |                                                      |  
       /   |                                                      |  
      /    |                                                      |  
     /     |                                                      |  
    /      |                                                      |  
   /       |                                                      |  
  /        |                                                      |  
 *         |                                                      |  
 |         |                                                      |  
 |         |                                                      |  
 |         |                                                      |  
 |       K |                K                 K                   |  
 |         |                                                      |  
 |         |     K                 K                 K            |  
 |    K    |         K  K    K             K                      |  
 |         |       K                 K                 K          |  
 |         |  K                 K                 K               |  
 |         |              K                 K                  K  |  
 |         |         K                 K                  K       |  
 |        K|   K            K    K             K    K             |  
 |  K    K |           K    K            K    K                   |  
 |         |                                                      |  
 |         |K    K            K    K            K    K            |  
 |    K    |            K                  K                      |  
 K         |       K                 KK                K          |  
 |         | K                  K                 K               |  
 |      K  |              K                 K                     |  
 | K       |         K                 K                          |  
 |        K|   K             K   K             K    K             |  
 |  K      |           K                 K                        |  
 |         |                                                      |  
 |         |K                 K                  K                |  
 |         |                                                      |  
 K         |       K                  K                           |  
 |         |                                                      |  
 |         .------------------------------------------------------.  
 |        /                                                      /   
 |       /                                                      /    
 |      /                                                      /     
 |     /                                                      /      
 |    /                                                      /       
 |   /                                                      /        
 |  /                                                      /         
 | /                                                      /          
 |/                                                      /           
 *------------------------------------------------------*            

Atomic positions and initial magnetic moments

Positions:
   0 K      0.000000    0.000000   10.000000    ( 0.0000,  0.0000,  0.0000)
   1 K      3.698168    2.615000   10.000000    ( 0.0000,  0.0000,  0.0000)
   2 K      3.698168    0.000000   13.698168    ( 0.0000,  0.0000,  0.0000)
   3 K      0.000000    2.615000   13.698168    ( 0.0000,  0.0000,  0.0000)
   4 K      0.000164    0.000037   17.397608    ( 0.0000,  0.0000,  0.0000)
   5 K      3.698003    2.615000   17.396440    ( 0.0000,  0.0000,  0.0000)
   6 K      3.700861    0.001917   21.097908    ( 0.0000,  0.0000,  0.0000)
   7 K     -0.000101    2.615000   21.094171    ( 0.0000,  0.0000,  0.0000)
   8 K      0.000000    5.230000   10.000000    ( 0.0000,  0.0000,  0.0000)
   9 K      3.698168    7.845000   10.000000    ( 0.0000,  0.0000,  0.0000)
  10 K      3.698168    5.230000   13.698168    ( 0.0000,  0.0000,  0.0000)
  11 K      0.000000    7.845000   13.698168    ( 0.0000,  0.0000,  0.0000)
  12 K      0.000164    5.229963   17.397608    ( 0.0000,  0.0000,  0.0000)
  13 K      3.698158    7.844512   17.397637    ( 0.0000,  0.0000,  0.0000)
  14 K      3.700861    5.228083   21.097908    ( 0.0000,  0.0000,  0.0000)
  15 K      0.000075    7.844953   21.094475    ( 0.0000,  0.0000,  0.0000)
  16 K      0.000000   10.460000   10.000000    ( 0.0000,  0.0000,  0.0000)
  17 K      3.698168   13.075000   10.000000    ( 0.0000,  0.0000,  0.0000)
  18 K      3.698168   10.460000   13.698168    ( 0.0000,  0.0000,  0.0000)
  19 K      0.000000   13.075000   13.698168    ( 0.0000,  0.0000,  0.0000)
  20 K     -0.000188   10.460000   17.397200    ( 0.0000,  0.0000,  0.0000)
  21 K      3.698158   13.075488   17.397637    ( 0.0000,  0.0000,  0.0000)
  22 K      3.697896   10.460000   21.094137    ( 0.0000,  0.0000,  0.0000)
  23 K      0.000075   13.075047   21.094475    ( 0.0000,  0.0000,  0.0000)
  24 K      7.396337    0.000000   10.000000    ( 0.0000,  0.0000,  0.0000)
  25 K     11.094505    2.615000   10.000000    ( 0.0000,  0.0000,  0.0000)
  26 K     11.094505    0.000000   13.698168    ( 0.0000,  0.0000,  0.0000)
  27 K      7.396337    2.615000   13.698168    ( 0.0000,  0.0000,  0.0000)
  28 K      7.396337   -0.003272   17.391608    ( 0.0000,  0.0000,  0.0000)
  29 K     11.094671    2.615000   17.396440    ( 0.0000,  0.0000,  0.0000)
  30 K     11.091813    0.001917   21.097908    ( 0.0000,  0.0000,  0.0000)
  31 K      7.396337    2.615000   20.535665    ( 0.0000,  0.0000,  0.0000)
  32 K      7.396337    5.230000   10.000000    ( 0.0000,  0.0000,  0.0000)
  33 K     11.094505    7.845000   10.000000    ( 0.0000,  0.0000,  0.0000)
  34 K     11.094505    5.230000   13.698168    ( 0.0000,  0.0000,  0.0000)
  35 K      7.396337    7.845000   13.698168    ( 0.0000,  0.0000,  0.0000)
  36 K      7.396337    5.233272   17.391608    ( 0.0000,  0.0000,  0.0000)
  37 K     11.094516    7.844512   17.397637    ( 0.0000,  0.0000,  0.0000)
  38 K     11.091813    5.228083   21.097908    ( 0.0000,  0.0000,  0.0000)
  39 K      7.396337    7.840453   21.097338    ( 0.0000,  0.0000,  0.0000)
  40 K      7.396337   10.460000   10.000000    ( 0.0000,  0.0000,  0.0000)
  41 K     11.094505   13.075000   10.000000    ( 0.0000,  0.0000,  0.0000)
  42 K     11.094505   10.460000   13.698168    ( 0.0000,  0.0000,  0.0000)
  43 K      7.396337   13.075000   13.698168    ( 0.0000,  0.0000,  0.0000)
  44 K      7.396337   10.460000   17.398014    ( 0.0000,  0.0000,  0.0000)
  45 K     11.094516   13.075488   17.397637    ( 0.0000,  0.0000,  0.0000)
  46 K     11.094778   10.460000   21.094137    ( 0.0000,  0.0000,  0.0000)
  47 K      7.396337   13.079547   21.097338    ( 0.0000,  0.0000,  0.0000)
  48 K     14.792674    0.000000   10.000000    ( 0.0000,  0.0000,  0.0000)
  49 K     18.490842    2.615000   10.000000    ( 0.0000,  0.0000,  0.0000)
  50 K     18.490842    0.000000   13.698168    ( 0.0000,  0.0000,  0.0000)
  51 K     14.792674    2.615000   13.698168    ( 0.0000,  0.0000,  0.0000)
  52 K     14.792510    0.000037   17.397608    ( 0.0000,  0.0000,  0.0000)
  53 K     18.490842    2.615000   17.397417    ( 0.0000,  0.0000,  0.0000)
  54 K     18.490842    0.000084   21.094700    ( 0.0000,  0.0000,  0.0000)
  55 K     14.792775    2.615000   21.094171    ( 0.0000,  0.0000,  0.0000)
  56 K     14.792674    5.230000   10.000000    ( 0.0000,  0.0000,  0.0000)
  57 K     18.490842    7.845000   10.000000    ( 0.0000,  0.0000,  0.0000)
  58 K     18.490842    5.230000   13.698168    ( 0.0000,  0.0000,  0.0000)
  59 K     14.792674    7.845000   13.698168    ( 0.0000,  0.0000,  0.0000)
  60 K     14.792510    5.229963   17.397608    ( 0.0000,  0.0000,  0.0000)
  61 K     18.490842    7.845149   17.396968    ( 0.0000,  0.0000,  0.0000)
  62 K     18.490842    5.229916   21.094700    ( 0.0000,  0.0000,  0.0000)
  63 K     14.792599    7.844953   21.094475    ( 0.0000,  0.0000,  0.0000)
  64 K     14.792674   10.460000   10.000000    ( 0.0000,  0.0000,  0.0000)
  65 K     18.490842   13.075000   10.000000    ( 0.0000,  0.0000,  0.0000)
  66 K     18.490842   10.460000   13.698168    ( 0.0000,  0.0000,  0.0000)
  67 K     14.792674   13.075000   13.698168    ( 0.0000,  0.0000,  0.0000)
  68 K     14.792862   10.460000   17.397200    ( 0.0000,  0.0000,  0.0000)
  69 K     18.490842   13.074851   17.396968    ( 0.0000,  0.0000,  0.0000)
  70 K     18.490842   10.460000   21.094761    ( 0.0000,  0.0000,  0.0000)
  71 K     14.792599   13.075047   21.094475    ( 0.0000,  0.0000,  0.0000)
  72 K      7.396337    2.615000   23.642056    ( 0.0000,  0.0000,  0.0000)

Unit cell:
           periodic     x           y           z      points  spacing
  1. axis:    yes   22.189011    0.000000    0.000000    75     0.2959
  2. axis:    yes    0.000000   15.690000    0.000000    54     0.2906
  3. axis:    no     0.000000    0.000000   31.094505   105     0.2961

  Lengths:  22.189011  15.690000  31.094505
  Angles:   90.000000  90.000000  90.000000

Effective grid spacing dv^(1/3) = 0.2942

     iter     time        total  log10-change:
                         energy   eigst   dens
iter:   1 13:33:25   -37.685760   -3.32
iter:   2 13:34:42   -37.618065   -4.22  -2.43
iter:   3 13:35:53   -37.602752c  -4.71  -2.64
iter:   4 13:37:04   -37.598585c  -5.14  -3.19
iter:   5 13:38:23   -37.596827c  -5.54c -3.27
iter:   6 13:39:39   -37.595980c  -5.59c -3.44
iter:   7 13:40:46   -37.596495c  -5.67c -3.39
iter:   8 13:41:41   -37.596473c  -6.53c -3.63
iter:   9 13:42:45   -37.596179c  -6.65c -3.65
iter:  10 13:44:02   -37.596303c  -7.35c -3.88
iter:  11 13:45:15   -37.596379c  -7.45c -3.94
iter:  12 13:46:16   -37.596367c  -7.77c -4.05c

Converged after 12 iterations.

Dipole moment: (-0.087541, -0.734403, 0.242910) |e|*Ang

Energy contributions relative to reference atoms: (reference = -1195904.484944)

Kinetic:       +230.725526
Potential:     -226.463416
External:        +0.000000
XC:             -73.101558
Entropy (-ST):   -2.057113
Local:          +32.271637
SIC:             +0.000000
--------------------------
Free energy:    -38.624924
Extrapolated:   -37.596367

Showing all kpts
 Kpt  Band  Eigenvalues  Occupancy
  0   326     -0.70847    1.34019
  0   327     -0.70446    1.32236
  0   328     -0.69694    1.28826
  0   329     -0.59594    0.79460

  1   326     -0.70847    1.34019
  1   327     -0.70446    1.32236
  1   328     -0.69694    1.28826
  1   329     -0.59594    0.79460


Fermi level: -0.63761

Gap: 0.101 eV
Transition (v -> c):
  (s=0, k=0, n=328, [0.25, -0.25, 0.00]) -> (s=0, k=1, n=329, [0.25, 0.25, 0.00])
Direct/indirect transitions are different
Direct gap: 0.101 eV
Transition at: (s=0, k=0, n=328, [0.25, -0.25, 0.00])

Forces in eV/Ang:
  0 K     0.00182   -0.00040   -0.00126
  1 K     0.00270   -0.00000   -0.00303
  2 K     0.00099   -0.00054   -0.00813
  3 K    -0.00123   -0.00000   -0.00636
  4 K    -0.00011   -0.00067    0.00680
  5 K    -0.01497   -0.00000   -0.01078
  6 K     0.01287    0.00995    0.02633
  7 K     0.00787   -0.00000    0.00453
  8 K     0.00182    0.00040   -0.00126
  9 K     0.00230   -0.00006   -0.00232
 10 K     0.00099    0.00054   -0.00813
 11 K    -0.00211    0.00204   -0.00548
 12 K    -0.00011    0.00067    0.00680
 13 K     0.00092   -0.00649    0.00847
 14 K     0.01287   -0.00995    0.02633
 15 K     0.00181   -0.00190    0.00390
 16 K     0.00152    0.00000    0.00087
 17 K     0.00230    0.00006   -0.00232
 18 K    -0.00084    0.00000   -0.00874
 19 K    -0.00211   -0.00204   -0.00548
 20 K    -0.00361    0.00000    0.00314
 21 K     0.00092    0.00649    0.00847
 22 K     0.00214    0.00000    0.00666
 23 K     0.00181    0.00190    0.00390
 24 K     0.00000   -0.00080   -0.00076
 25 K    -0.00270   -0.00000   -0.00303
 26 K    -0.00099   -0.00054   -0.00813
 27 K    -0.00000   -0.00000   -0.01249
 28 K     0.00000   -0.06860   -0.08455
 29 K     0.01497   -0.00000   -0.01078
 30 K    -0.01287    0.00995    0.02633
 31 K     0.00000   -0.00000   -0.62217
 32 K     0.00000    0.00080   -0.00076
 33 K    -0.00230   -0.00006   -0.00232
 34 K    -0.00099    0.00054   -0.00813
 35 K    -0.00000   -0.00086   -0.01046
 36 K    -0.00000    0.06860   -0.08455
 37 K    -0.00092   -0.00649    0.00847
 38 K    -0.01287   -0.00995    0.02633
 39 K     0.00000   -0.02025    0.02112
 40 K    -0.00000    0.00000   -0.00198
 41 K    -0.00230    0.00006   -0.00232
 42 K     0.00084    0.00000   -0.00874
 43 K     0.00000    0.00086   -0.01046
 44 K     0.00000   -0.00000    0.00821
 45 K    -0.00092    0.00649    0.00847
 46 K    -0.00214    0.00000    0.00666
 47 K    -0.00000    0.02025    0.02112
 48 K    -0.00182   -0.00040   -0.00126
 49 K    -0.00000   -0.00000    0.00040
 50 K     0.00000   -0.00222   -0.00551
 51 K     0.00123   -0.00000   -0.00636
 52 K     0.00011   -0.00067    0.00680
 53 K    -0.00000   -0.00000    0.00349
 54 K    -0.00000   -0.00079    0.00342
 55 K    -0.00787   -0.00000    0.00453
 56 K    -0.00182    0.00040   -0.00126
 57 K    -0.00000    0.00067    0.00142
 58 K    -0.00000    0.00222   -0.00551
 59 K     0.00211    0.00204   -0.00548
 60 K     0.00011    0.00067    0.00680
 61 K    -0.00000    0.00243    0.00273
 62 K    -0.00000    0.00079    0.00342
 63 K    -0.00181   -0.00190    0.00390
 64 K    -0.00152    0.00000    0.00087
 65 K    -0.00000   -0.00067    0.00142
 66 K    -0.00000    0.00000   -0.00286
 67 K     0.00211   -0.00204   -0.00548
 68 K     0.00361    0.00000    0.00314
 69 K     0.00000   -0.00243    0.00273
 70 K    -0.00000    0.00000    0.00159
 71 K    -0.00181    0.00190    0.00390
 72 K    -0.00000   -0.00000    0.69090

System changes: positions 

Initializing position-dependent things.

Density initialized from wave functions
           .------------------------------------------------------.  
          /|                                                      |  
         / |                                                      |  
        /  |                                                      |  
       /   |                                                      |  
      /    |                                                      |  
     /     |                                                      |  
    /      |                                                      |  
   /       |                                                      |  
  /        |                                                      |  
 *         |                                                      |  
 |         |                                                      |  
 |         |                                                      |  
 |         |                                                      |  
 |       K |                K                 K                   |  
 |         |                                                      |  
 |         |     K                 K                 K            |  
 |    K    |         K  K    K             K                      |  
 |         |       K                 K                 K          |  
 |         |  K                 K                 K               |  
 |         |              K                 K                  K  |  
 | K       |         K                 K                          |  
 |        K|   K            K    K             K    K             |  
 |  K    K |           K    K            K    K                   |  
 |         |                                                      |  
 |         |K    K            K    K            K    K            |  
 |    K    |            K                  K                      |  
 K         |       K                 KK                K          |  
 |         | K                  K                 K               |  
 |      K  |              K                 K                     |  
 | K       |         K                 K                          |  
 |        K|   K             K   K             K    K             |  
 |  K      |           K                 K                        |  
 |         |                                                      |  
 |         |K                 K                  K                |  
 |         |                                                      |  
 K         |       K                  K                           |  
 |         |                                                      |  
 |         .------------------------------------------------------.  
 |        /                                                      /   
 |       /                                                      /    
 |      /                                                      /     
 |     /                                                      /      
 |    /                                                      /       
 |   /                                                      /        
 |  /                                                      /         
 | /                                                      /          
 |/                                                      /           
 *------------------------------------------------------*            

Atomic positions and initial magnetic moments

Positions:
   0 K      0.000000    0.000000   10.000000    ( 0.0000,  0.0000,  0.0000)
   1 K      3.698168    2.615000   10.000000    ( 0.0000,  0.0000,  0.0000)
   2 K      3.698168    0.000000   13.698168    ( 0.0000,  0.0000,  0.0000)
   3 K      0.000000    2.615000   13.698168    ( 0.0000,  0.0000,  0.0000)
   4 K      0.000236    0.000034   17.398279    ( 0.0000,  0.0000,  0.0000)
   5 K      3.697403    2.615000   17.396063    ( 0.0000,  0.0000,  0.0000)
   6 K      3.702093    0.002831   21.099936    ( 0.0000,  0.0000,  0.0000)
   7 K      0.000146    2.615000   21.094219    ( 0.0000,  0.0000,  0.0000)
   8 K      0.000000    5.230000   10.000000    ( 0.0000,  0.0000,  0.0000)
   9 K      3.698168    7.845000   10.000000    ( 0.0000,  0.0000,  0.0000)
  10 K      3.698168    5.230000   13.698168    ( 0.0000,  0.0000,  0.0000)
  11 K      0.000000    7.845000   13.698168    ( 0.0000,  0.0000,  0.0000)
[...]
 40 K     0.00000    0.00000   -0.01107
 41 K    -0.00207   -0.00174   -0.01244
 42 K    -0.00166    0.00000   -0.00076
 43 K     0.00000   -0.03180   -0.06071
 44 K    -0.00000   -0.00000    0.01182
 45 K    -0.01332    0.01265    0.00822
 46 K    -0.00481   -0.00000    0.03084
 47 K     0.00000    0.00150   -0.00137
 48 K    -0.00020    0.00085   -0.00869
 49 K    -0.00000   -0.00000   -0.00378
 50 K     0.00000    0.00238   -0.01194
 51 K     0.00342   -0.00000   -0.01370
 52 K     0.00035    0.00891    0.00405
 53 K    -0.00000   -0.00000    0.00626
 54 K     0.00000    0.00331    0.01842
 55 K     0.00078    0.00000    0.02053
 56 K    -0.00020   -0.00085   -0.00869
 57 K    -0.00000   -0.00233   -0.00717
 58 K    -0.00000   -0.00238   -0.01194
 59 K    -0.00084    0.00072   -0.01044
 60 K     0.00035   -0.00891    0.00405
 61 K    -0.00000   -0.00052    0.00547
 62 K    -0.00000   -0.00331    0.01842
 63 K    -0.00566   -0.00140    0.02037
 64 K    -0.00247    0.00000   -0.00548
 65 K    -0.00000    0.00233   -0.00717
 66 K    -0.00000    0.00000   -0.01264
 67 K    -0.00084   -0.00072   -0.01044
 68 K     0.00598   -0.00000    0.00581
 69 K    -0.00000    0.00052    0.00547
 70 K    -0.00000    0.00000    0.02117
 71 K    -0.00566    0.00140    0.02037
 72 K    -0.00000    0.00000   -0.02533

System changes: positions 

Initializing position-dependent things.

Density initialized from wave functions
           .------------------------------------------------------.  
          /|                                                      |  
         / |                                                      |  
        /  |                                                      |  
       /   |                                                      |  
      /    |                                                      |  
     /     |                                                      |  
    /      |                                                      |  
   /       |                                                      |  
  /        |                                                      |  
 *         |                                                      |  
 |         |                                                      |  
 |         |                                                      |  
 |         |                                                      |  
 |       K |                K                 K                   |  
 |         |                                                      |  
 |         |     K                 K                  K           |  
 |    K    |         K  K    K             K    K                 K  
 |         |      K                  K                 K          |  
 |         |  K                 K                 K               |  
 |      K  |              K                 K                     |  
 | K       |                           K                          |  
 |        K|   K     K      K     K            K    K             |  
 |       K |                K            K    K            K      |  
 |         |           K                                          |  
 |         |K    K            K    K             K   K            |  
 |    K    |            K                  K                      |  
 |         |       K                 K                 K          |  
 |         | K                  K                 K               |  
 |      K  |              K                 K                     |  
 | K       |         K                 K                          |  
 |        K|   K             K   K             K    K             |  
 |  K      |           K                 K                        |  
 |         |                                                      |  
 |         |K                 K                  K                |  
 |         |                                                      |  
 K         |       K                  K                           |  
 |         |                                                      |  
 |         .------------------------------------------------------.  
 |        /                                                      /   
 |       /                                                      /    
 |      /                                                      /     
 |     /                                                      /      
 |    /                                                      /       
 |   /                                                      /        
 |  /                                                      /         
 | /                                                      /          
 |/                                                      /           
 *------------------------------------------------------*            

Atomic positions and initial magnetic moments

Positions:
   0 K      0.000000    0.000000   10.000000    ( 0.0000,  0.0000,  0.0000)
   1 K      3.698168    2.615000   10.000000    ( 0.0000,  0.0000,  0.0000)
   2 K      3.698168    0.000000   13.698168    ( 0.0000,  0.0000,  0.0000)
   3 K      0.000000    2.615000   13.698168    ( 0.0000,  0.0000,  0.0000)
   4 K     -0.012440   -0.006167   17.420955    ( 0.0000,  0.0000,  0.0000)
   5 K      3.703172    2.615000   17.343715    ( 0.0000,  0.0000,  0.0000)
   6 K      3.777126    0.073499   21.299895    ( 0.0000,  0.0000,  0.0000)
   7 K      0.017709    2.615000   21.125802    ( 0.0000,  0.0000,  0.0000)
   8 K      0.000000    5.230000   10.000000    ( 0.0000,  0.0000,  0.0000)
   9 K      3.698168    7.845000   10.000000    ( 0.0000,  0.0000,  0.0000)
  10 K      3.698168    5.230000   13.698168    ( 0.0000,  0.0000,  0.0000)
  11 K      0.000000    7.845000   13.698168    ( 0.0000,  0.0000,  0.0000)
  12 K     -0.012440    5.236167   17.420955    ( 0.0000,  0.0000,  0.0000)
  13 K      3.664512    7.840696   17.456802    ( 0.0000,  0.0000,  0.0000)
  14 K      3.777126    5.156501   21.299895    ( 0.0000,  0.0000,  0.0000)
  15 K      0.021384    7.832659   21.114321    ( 0.0000,  0.0000,  0.0000)
  16 K      0.000000   10.460000   10.000000    ( 0.0000,  0.0000,  0.0000)
  17 K      3.698168   13.075000   10.000000    ( 0.0000,  0.0000,  0.0000)
  18 K      3.698168   10.460000   13.698168    ( 0.0000,  0.0000,  0.0000)
  19 K      0.000000   13.075000   13.698168    ( 0.0000,  0.0000,  0.0000)
  20 K      0.002173   10.460000   17.417603    ( 0.0000,  0.0000,  0.0000)
  21 K      3.664512   13.079304   17.456802    ( 0.0000,  0.0000,  0.0000)
  22 K      3.717197   10.460000   21.114020    ( 0.0000,  0.0000,  0.0000)
  23 K      0.021384   13.087341   21.114321    ( 0.0000,  0.0000,  0.0000)
  24 K      7.396337    0.000000   10.000000    ( 0.0000,  0.0000,  0.0000)
  25 K     11.094505    2.615000   10.000000    ( 0.0000,  0.0000,  0.0000)
  26 K     11.094505    0.000000   13.698168    ( 0.0000,  0.0000,  0.0000)
  27 K      7.396337    2.615000   13.698168    ( 0.0000,  0.0000,  0.0000)
  28 K      7.396337   -0.148717   17.198573    ( 0.0000,  0.0000,  0.0000)
  29 K     11.089502    2.615000   17.343715    ( 0.0000,  0.0000,  0.0000)
  30 K     11.015548    0.073499   21.299895    ( 0.0000,  0.0000,  0.0000)
  31 K      7.396337    2.615000   20.199384    ( 0.0000,  0.0000,  0.0000)
  32 K      7.396337    5.230000   10.000000    ( 0.0000,  0.0000,  0.0000)
  33 K     11.094505    7.845000   10.000000    ( 0.0000,  0.0000,  0.0000)
  34 K     11.094505    5.230000   13.698168    ( 0.0000,  0.0000,  0.0000)
  35 K      7.396337    7.845000   13.698168    ( 0.0000,  0.0000,  0.0000)
  36 K      7.396337    5.378717   17.198573    ( 0.0000,  0.0000,  0.0000)
  37 K     11.128161    7.840696   17.456802    ( 0.0000,  0.0000,  0.0000)
  38 K     11.015548    5.156501   21.299895    ( 0.0000,  0.0000,  0.0000)
  39 K      7.396337    7.777298   21.221251    ( 0.0000,  0.0000,  0.0000)
  40 K      7.396337   10.460000   10.000000    ( 0.0000,  0.0000,  0.0000)
  41 K     11.094505   13.075000   10.000000    ( 0.0000,  0.0000,  0.0000)
  42 K     11.094505   10.460000   13.698168    ( 0.0000,  0.0000,  0.0000)
  43 K      7.396337   13.075000   13.698168    ( 0.0000,  0.0000,  0.0000)
  44 K      7.396337   10.460000   17.454705    ( 0.0000,  0.0000,  0.0000)
  45 K     11.128161   13.079304   17.456802    ( 0.0000,  0.0000,  0.0000)
  46 K     11.075477   10.460000   21.114020    ( 0.0000,  0.0000,  0.0000)
  47 K      7.396337   13.142702   21.221251    ( 0.0000,  0.0000,  0.0000)
  48 K     14.792674    0.000000   10.000000    ( 0.0000,  0.0000,  0.0000)
  49 K     18.490842    2.615000   10.000000    ( 0.0000,  0.0000,  0.0000)
  50 K     18.490842    0.000000   13.698168    ( 0.0000,  0.0000,  0.0000)
  51 K     14.792674    2.615000   13.698168    ( 0.0000,  0.0000,  0.0000)
  52 K     14.805114   -0.006167   17.420955    ( 0.0000,  0.0000,  0.0000)
  53 K     18.490842    2.615000   17.414770    ( 0.0000,  0.0000,  0.0000)
  54 K     18.490842    0.001756   21.117022    ( 0.0000,  0.0000,  0.0000)
  55 K     14.774965    2.615000   21.125802    ( 0.0000,  0.0000,  0.0000)
  56 K     14.792674    5.230000   10.000000    ( 0.0000,  0.0000,  0.0000)
  57 K     18.490842    7.845000   10.000000    ( 0.0000,  0.0000,  0.0000)
  58 K     18.490842    5.230000   13.698168    ( 0.0000,  0.0000,  0.0000)
  59 K     14.792674    7.845000   13.698168    ( 0.0000,  0.0000,  0.0000)
  60 K     14.805114    5.236167   17.420955    ( 0.0000,  0.0000,  0.0000)
  61 K     18.490842    7.844602   17.416102    ( 0.0000,  0.0000,  0.0000)
  62 K     18.490842    5.228244   21.117022    ( 0.0000,  0.0000,  0.0000)
  63 K     14.771290    7.832659   21.114321    ( 0.0000,  0.0000,  0.0000)
  64 K     14.792674   10.460000   10.000000    ( 0.0000,  0.0000,  0.0000)
  65 K     18.490842   13.075000   10.000000    ( 0.0000,  0.0000,  0.0000)
  66 K     18.490842   10.460000   13.698168    ( 0.0000,  0.0000,  0.0000)
  67 K     14.792674   13.075000   13.698168    ( 0.0000,  0.0000,  0.0000)
  68 K     14.790501   10.460000   17.417603    ( 0.0000,  0.0000,  0.0000)
  69 K     18.490842   13.075398   17.416102    ( 0.0000,  0.0000,  0.0000)
  70 K     18.490842   10.460000   21.120445    ( 0.0000,  0.0000,  0.0000)
  71 K     14.771290   13.087341   21.114321    ( 0.0000,  0.0000,  0.0000)
  72 K      7.396337    2.615000   24.203447    ( 0.0000,  0.0000,  0.0000)

Unit cell:
           periodic     x           y           z      points  spacing
  1. axis:    yes   22.189011    0.000000    0.000000    75     0.2959
  2. axis:    yes    0.000000   15.690000    0.000000    54     0.2906
  3. axis:    no     0.000000    0.000000   31.094505   105     0.2961

  Lengths:  22.189011  15.690000  31.094505
  Angles:   90.000000  90.000000  90.000000

Effective grid spacing dv^(1/3) = 0.2942

     iter     time        total  log10-change:
                         energy   eigst   dens
iter:   1 20:06:32   -37.943368   -4.38
iter:   2 20:07:40   -37.942580   -5.61c -3.25
iter:   3 20:08:47   -37.942378c  -6.30c -3.48
iter:   4 20:09:59   -37.942131c  -6.24c -3.64
iter:   5 20:11:07   -37.942241c  -6.62c -3.88
iter:   6 20:12:17   -37.942340c  -7.00c -3.92
iter:   7 20:13:29   -37.942186c  -7.21c -4.01c

Converged after 7 iterations.

Dipole moment: (-5.649755, -0.387359, 0.350065) |e|*Ang

Energy contributions relative to reference atoms: (reference = -1195904.484944)

Kinetic:       +229.886439
Potential:     -226.695698
External:        +0.000000
XC:             -72.317783
Entropy (-ST):   -2.061926
Local:          +32.215819
SIC:             +0.000000
--------------------------
Free energy:    -38.973149
Extrapolated:   -37.942186

Showing all kpts
 Kpt  Band  Eigenvalues  Occupancy
  0   326     -0.70611    1.35037
  0   327     -0.70208    1.33253
  0   328     -0.68705    1.26413
  0   329     -0.59827    0.82837

  1   326     -0.70611    1.35037
  1   327     -0.70208    1.33253
  1   328     -0.68705    1.26413
  1   329     -0.59827    0.82837


Fermi level: -0.63294

Gap: 0.089 eV
Transition (v -> c):
  (s=0, k=1, n=328, [0.25, 0.25, 0.00]) -> (s=0, k=1, n=329, [0.25, 0.25, 0.00])
No difference between direct/indirect transitions

Forces in eV/Ang:
  0 K     0.00177    0.00081   -0.00909
  1 K     0.00135   -0.00000    0.01379
  2 K    -0.00229   -0.00764   -0.02966
  3 K     0.00152   -0.00000   -0.01257
  4 K    -0.00027    0.00427    0.00671
  5 K    -0.00805   -0.00000    0.00808
  6 K     0.01287    0.01699    0.01599
  7 K     0.00649   -0.00000    0.02447
  8 K     0.00177   -0.00081   -0.00909
  9 K     0.00025   -0.00201   -0.01378
 10 K    -0.00229    0.00764   -0.02966
 11 K     0.00062    0.00156   -0.00794
 12 K    -0.00027   -0.00427    0.00671
 13 K     0.00112   -0.01010    0.01721
 14 K     0.01287   -0.01699    0.01599
 15 K     0.00926   -0.00335    0.02117
 16 K    -0.00086    0.00000   -0.00520
 17 K     0.00025    0.00201   -0.01378
 18 K     0.00122    0.00000    0.00353
 19 K     0.00062   -0.00156   -0.00794
 20 K    -0.00664    0.00000    0.00580
 21 K     0.00112    0.01010    0.01721
 22 K     0.00653    0.00000    0.02924
 23 K     0.00926    0.00335    0.02117
 24 K     0.00000    0.00204    0.02687
 25 K    -0.00135   -0.00000    0.01379
 26 K     0.00229   -0.00764   -0.02966
 27 K     0.00000   -0.00000   -0.02689
 28 K     0.00000   -0.02955   -0.01413
 29 K     0.00805   -0.00000    0.00808
 30 K    -0.01287    0.01699    0.01599
 31 K    -0.00000    0.00000    0.00155
 32 K    -0.00000   -0.00204    0.02687
 33 K    -0.00025   -0.00201   -0.01378
 34 K     0.00229    0.00764   -0.02966
 35 K    -0.00000    0.03110   -0.05822
 36 K    -0.00000    0.02955   -0.01413
 37 K    -0.00112   -0.01010    0.01721
 38 K    -0.01287   -0.01699    0.01599
 39 K     0.00000   -0.01348    0.02952
 40 K     0.00000    0.00000   -0.01303
 41 K    -0.00025    0.00201   -0.01378
 42 K    -0.00122    0.00000    0.00353
 43 K     0.00000   -0.03110   -0.05822
 44 K    -0.00000    0.00000    0.01783
 45 K    -0.00112    0.01010    0.01721
 46 K    -0.00653    0.00000    0.02924
 47 K     0.00000    0.01348    0.02952
 48 K    -0.00177    0.00081   -0.00909
 49 K    -0.00000   -0.00000   -0.00682
 50 K    -0.00000   -0.00176   -0.01102
 51 K    -0.00152   -0.00000   -0.01257
 52 K     0.00027    0.00427    0.00671
 53 K    -0.00000   -0.00000    0.00677
 54 K     0.00000    0.00009    0.02259
 55 K    -0.00649    0.00000    0.02447
 56 K    -0.00177   -0.00081   -0.00909
 57 K    -0.00000    0.00030   -0.00747
 58 K     0.00000    0.00176   -0.01102
 59 K    -0.00062    0.00156   -0.00794
 60 K     0.00027   -0.00427    0.00671
 61 K    -0.00000    0.00404    0.00669
 62 K     0.00000   -0.00009    0.02259
 63 K    -0.00926   -0.00335    0.02117
 64 K     0.00086    0.00000   -0.00520
 65 K    -0.00000   -0.00030   -0.00747
 66 K    -0.00000    0.00000   -0.01076
 67 K    -0.00062   -0.00156   -0.00794
 68 K     0.00664    0.00000    0.00580
 69 K     0.00000   -0.00404    0.00669
 70 K    -0.00000   -0.00000    0.02344
 71 K    -0.00926    0.00335    0.02117
 72 K    -0.00000   -0.00000    0.03527

Timing:                                      incl.     excl.
-------------------------------------------------------------------
Density initialized from wave functions:   233.077   233.074   0.7% |
 Symmetrize density:                         0.002     0.002   0.0% |
Forces:                                    733.316   733.316   2.2% ||
Hamiltonian:                                93.629     0.400   0.0% |
 Atomic:                                    36.424     0.167   0.0% |
  XC Correction:                            36.257    36.257   0.1% |
 Calculate atomic Hamiltonians:             39.752    39.752   0.1% |
 Communicate:                                0.000     0.000   0.0% |
 Initialize Hamiltonian:                     0.001     0.001   0.0% |
 Poisson:                                    0.846     0.846   0.0% |
 XC 3D grid:                                16.206    16.206   0.0% |
LCAO initialization:                       185.052     0.007   0.0% |
 LCAO eigensolver:                           0.262     0.001   0.0% |
  Calculate projections:                     0.018     0.018   0.0% |
  DenseAtomicCorrection:                     0.049     0.049   0.0% |
  Distribute overlap matrix:                 0.000     0.000   0.0% |
  Orbital Layouts:                           0.087     0.087   0.0% |
  Potential matrix:                          0.102     0.102   0.0% |
  Sum over cells:                            0.003     0.003   0.0% |
 LCAO to grid:                             184.524   184.524   0.6% |
 Set positions (LCAO WFS):                   0.259     0.086   0.0% |
  Basic WFS set positions:                   0.001     0.001   0.0% |
  Basis functions set positions:             0.000     0.000   0.0% |
  P tci:                                     0.125     0.125   0.0% |
  ST tci:                                    0.034     0.034   0.0% |
  mktci:                                     0.014     0.014   0.0% |
PWDescriptor:                                0.018     0.018   0.0% |
Redistribute:                                0.451     0.451   0.0% |
SCF-cycle:                               31913.906     0.743   0.0% |
 Davidson:                               24194.342  3035.945   9.1% |---|
  Apply H:                                2481.635  2440.255   7.3% |--|
   HMM T:                                   41.379    41.379   0.1% |
  Subspace diag:                          4385.864     0.284   0.0% |
   calc_h_matrix:                         3831.404   565.659   1.7% ||
    Apply H:                              3265.745  3136.910   9.4% |---|
     HMM T:                                128.835   128.835   0.4% |
   diagonalize:                             19.514    19.514   0.1% |
   rotate_psi:                             534.663   534.663   1.6% ||
  calc. matrices:                        12462.437  2546.361   7.6% |--|
   Apply H:                               9916.076  9832.219  29.4% |-----------|
    HMM T:                                  83.857    83.857   0.3% |
  diagonalize:                             356.833   356.833   1.1% |
  rotate_psi:                             1471.628  1471.628   4.4% |-|
 Density:                                 4433.655     0.009   0.0% |
  Atomic density matrices:                   2.618     2.618   0.0% |
  Mix:                                    1313.903  1313.903   3.9% |-|
  Multipole moments:                         0.238     0.238   0.0% |
  Pseudo density:                         3116.887  3116.869   9.3% |---|
   Symmetrize density:                       0.018     0.018   0.0% |
 Hamiltonian:                             3104.483     1.962   0.0% |
  Atomic:                                  245.792     0.731   0.0% |
   XC Correction:                          245.062   245.062   0.7% |
  Calculate atomic Hamiltonians:          1692.135  1692.135   5.1% |-|
  Communicate:                               0.003     0.003   0.0% |
  Poisson:                                   4.180     4.180   0.0% |
  XC 3D grid:                             1160.410  1160.410   3.5% ||
 Orthonormalize:                           180.684     0.035   0.0% |
  calc_s_matrix:                            36.089    36.089   0.1% |
  inverse-cholesky:                          0.676     0.676   0.0% |
  projections:                             100.811   100.811   0.3% |
  rotate_psi_s:                             43.073    43.073   0.1% |
Set symmetry:                                0.001     0.001   0.0% |
Other:                                     227.622   227.622   0.7% |
-------------------------------------------------------------------
Total:                                             33387.070 100.0%

Memory usage: 5.62 GiB
Date: Mon Nov 24 20:13:44 2025
