73
Lattice="22.189010793633862 0.0 0.0 0.0 15.690000000000001 0.0 0.0 0.0 31.09450539681693" Properties=species:S:1:pos:R:3:move_mask:L:1:tags:I:1:forces:R:3:magmoms:R:1 energy=-37.942185676538266 dipole="-5.649754661511823 -0.3873593475204143 0.3500653894409141" magmom=0.0 free_energy=-38.97314878004572 pbc="T T F"
K        0.00000000       0.00000000      10.00000000  F        4       0.00177291       0.00081190      -0.00909059       0.00000000
K        3.69816847       2.61500000      10.00000000  F        4       0.00135447      -0.00000000       0.01378709       0.00000000
K        3.69816847       0.00000000      13.69816847  F        3      -0.00229369      -0.00763588      -0.02965652       0.00000000
K        0.00000000       2.61500000      13.69816847  F        3       0.00151774      -0.00000000      -0.01257312       0.00000000
K       -0.01243974      -0.00616677      17.42095459  T        2      -0.00026629       0.00426913       0.00671006       0.00000000
K        3.70317229       2.61500000      17.34371523  T        2      -0.00805197      -0.00000000       0.00808013       0.00000000
K        3.77712589       0.07349857      21.29989512  T        1       0.01287109       0.01698662       0.01599008       0.00000000
K        0.01770869       2.61500000      21.12580222  T        1       0.00649211      -0.00000000       0.02447122       0.00000000
K        0.00000000       5.23000000      10.00000000  F        4       0.00177291      -0.00081190      -0.00909059       0.00000000
K        3.69816847       7.84500000      10.00000000  F        4       0.00025027      -0.00201256      -0.01378394       0.00000000
K        3.69816847       5.23000000      13.69816847  F        3      -0.00229369       0.00763588      -0.02965652       0.00000000
K        0.00000000       7.84500000      13.69816847  F        3       0.00061938       0.00156097      -0.00794328       0.00000000
K       -0.01243974       5.23616677      17.42095459  T        2      -0.00026629      -0.00426913       0.00671006       0.00000000
K        3.66451237       7.84069566      17.45680217  T        2       0.00112495      -0.01009584       0.01721425       0.00000000
K        3.77712589       5.15650143      21.29989512  T        1       0.01287109      -0.01698662       0.01599008       0.00000000
K        0.02138384       7.83265916      21.11432064  T        1       0.00925739      -0.00334837       0.02116790       0.00000000
K        0.00000000      10.46000000      10.00000000  F        4      -0.00085970       0.00000000      -0.00519860       0.00000000
K        3.69816847      13.07500000      10.00000000  F        4       0.00025027       0.00201256      -0.01378394       0.00000000
K        3.69816847      10.46000000      13.69816847  F        3       0.00122310       0.00000000       0.00352790       0.00000000
K        0.00000000      13.07500000      13.69816847  F        3       0.00061938      -0.00156097      -0.00794328       0.00000000
K        0.00217272      10.46000000      17.41760295  T        2      -0.00663929       0.00000000       0.00579811       0.00000000
K        3.66451237      13.07930434      17.45680217  T        2       0.00112495       0.01009584       0.01721425       0.00000000
K        3.71719658      10.46000000      21.11401997  T        1       0.00653343       0.00000000       0.02924013       0.00000000
K        0.02138384      13.08734084      21.11432064  T        1       0.00925739       0.00334837       0.02116790       0.00000000
K        7.39633693       0.00000000      10.00000000  F        4       0.00000000       0.00204148       0.02687027       0.00000000
K       11.09450540       2.61500000      10.00000000  F        4      -0.00135447      -0.00000000       0.01378709       0.00000000
K       11.09450540       0.00000000      13.69816847  F        3       0.00229369      -0.00763588      -0.02965652       0.00000000
K        7.39633693       2.61500000      13.69816847  F        3       0.00000000      -0.00000000      -0.02688509       0.00000000
K        7.39633693      -0.14871741      17.19857273  T        2       0.00000000      -0.02954604      -0.01412978       0.00000000
K       11.08950157       2.61500000      17.34371523  T        2       0.00805197      -0.00000000       0.00808013       0.00000000
K       11.01554797       0.07349857      21.29989512  T        1      -0.01287109       0.01698662       0.01599008       0.00000000
K        7.39633693       2.61500000      20.19938401  T        1      -0.00000000       0.00000000       0.00154968       0.00000000
K        7.39633693       5.23000000      10.00000000  F        4      -0.00000000      -0.00204148       0.02687027       0.00000000
K       11.09450540       7.84500000      10.00000000  F        4      -0.00025027      -0.00201256      -0.01378394       0.00000000
K       11.09450540       5.23000000      13.69816847  F        3       0.00229369       0.00763588      -0.02965652       0.00000000
K        7.39633693       7.84500000      13.69816847  F        3      -0.00000000       0.03109519      -0.05822121       0.00000000
K        7.39633693       5.37871741      17.19857273  T        2      -0.00000000       0.02954604      -0.01412978       0.00000000
K       11.12816149       7.84069566      17.45680217  T        2      -0.00112495      -0.01009584       0.01721425       0.00000000
K       11.01554797       5.15650143      21.29989512  T        1      -0.01287109      -0.01698662       0.01599008       0.00000000
K        7.39633693       7.77729846      21.22125107  T        1       0.00000000      -0.01347708       0.02952488       0.00000000
K        7.39633693      10.46000000      10.00000000  F        4       0.00000000       0.00000000      -0.01303462       0.00000000
K       11.09450540      13.07500000      10.00000000  F        4      -0.00025027       0.00201256      -0.01378394       0.00000000
K       11.09450540      10.46000000      13.69816847  F        3      -0.00122310       0.00000000       0.00352790       0.00000000
K        7.39633693      13.07500000      13.69816847  F        3       0.00000000      -0.03109519      -0.05822121       0.00000000
K        7.39633693      10.46000000      17.45470534  T        2      -0.00000000       0.00000000       0.01782878       0.00000000
K       11.12816149      13.07930434      17.45680217  T        2      -0.00112495       0.01009584       0.01721425       0.00000000
K       11.07547728      10.46000000      21.11401997  T        1      -0.00653343       0.00000000       0.02924013       0.00000000
K        7.39633693      13.14270154      21.22125107  T        1       0.00000000       0.01347708       0.02952488       0.00000000
K       14.79267386       0.00000000      10.00000000  F        4      -0.00177291       0.00081190      -0.00909059       0.00000000
K       18.49084233       2.61500000      10.00000000  F        4      -0.00000000      -0.00000000      -0.00682374       0.00000000
K       18.49084233       0.00000000      13.69816847  F        3      -0.00000000      -0.00176252      -0.01101648       0.00000000
K       14.79267386       2.61500000      13.69816847  F        3      -0.00151774      -0.00000000      -0.01257312       0.00000000
K       14.80511361      -0.00616677      17.42095459  T        2       0.00026629       0.00426913       0.00671006       0.00000000
K       18.49084233       2.61500000      17.41477009  T        2      -0.00000000      -0.00000000       0.00677429       0.00000000
K       18.49084233       0.00175582      21.11702210  T        1       0.00000000       0.00009112       0.02258560       0.00000000
K       14.77496517       2.61500000      21.12580222  T        1      -0.00649211       0.00000000       0.02447122       0.00000000
K       14.79267386       5.23000000      10.00000000  F        4      -0.00177291      -0.00081190      -0.00909059       0.00000000
K       18.49084233       7.84500000      10.00000000  F        4      -0.00000000       0.00029503      -0.00747021       0.00000000
K       18.49084233       5.23000000      13.69816847  F        3       0.00000000       0.00176252      -0.01101648       0.00000000
K       14.79267386       7.84500000      13.69816847  F        3      -0.00061938       0.00156097      -0.00794328       0.00000000
K       14.80511361       5.23616677      17.42095459  T        2       0.00026629      -0.00426913       0.00671006       0.00000000
K       18.49084233       7.84460162      17.41610179  T        2      -0.00000000       0.00403710       0.00668714       0.00000000
K       18.49084233       5.22824418      21.11702210  T        1       0.00000000      -0.00009112       0.02258560       0.00000000
K       14.77129003       7.83265916      21.11432064  T        1      -0.00925739      -0.00334837       0.02116790       0.00000000
K       14.79267386      10.46000000      10.00000000  F        4       0.00085970       0.00000000      -0.00519860       0.00000000
K       18.49084233      13.07500000      10.00000000  F        4      -0.00000000      -0.00029503      -0.00747021       0.00000000
K       18.49084233      10.46000000      13.69816847  F        3      -0.00000000       0.00000000      -0.01075553       0.00000000
K       14.79267386      13.07500000      13.69816847  F        3      -0.00061938      -0.00156097      -0.00794328       0.00000000
K       14.79050114      10.46000000      17.41760295  T        2       0.00663929       0.00000000       0.00579811       0.00000000
K       18.49084233      13.07539838      17.41610179  T        2       0.00000000      -0.00403710       0.00668714       0.00000000
K       18.49084233      10.46000000      21.12044504  T        1      -0.00000000      -0.00000000       0.02344073       0.00000000
K       14.77129003      13.08734084      21.11432064  T        1      -0.00925739       0.00334837       0.02116790       0.00000000
K        7.39633693       2.61500000      24.20344708  T        0      -0.00000000      -0.00000000       0.03526558       0.00000000
