
  ___ ___ ___ _ _ _  
 |   |   |_  | | | | 
 | | | | | . | | | | 
 |__ |  _|___|_____|  25.7.0
 |___|_|             

User:   tew@Mathuss-MacBook-Air-357.local
Date:   Mon Nov 24 08:37:10 2025
Arch:   arm64
Pid:    82977
CWD:    /Users/tew/Documents/Project/GitHub/chem-com
Python: 3.13.5
gpaw:   /Users/tew/Documents/Project/GitHub/chem-com/.venv/lib/python3.13/site-packages/gpaw
_gpaw:  /Users/tew/Documents/Project/GitHub/chem-com/.venv/lib/python3.13/site-packages/
        _gpaw.cpython-313-darwin.so
ase:    /Users/tew/Documents/Project/GitHub/chem-com/.venv/lib/python3.13/site-packages/ase (version 3.26.0)
numpy:  /Users/tew/Documents/Project/GitHub/chem-com/.venv/lib/python3.13/site-packages/numpy (version 2.3.5)
scipy:  /Users/tew/Documents/Project/GitHub/chem-com/.venv/lib/python3.13/site-packages/scipy (version 1.16.3)
libxc:  2.x.y
units:  Angstrom and eV
cores: 1
OpenMP: False
OMP_NUM_THREADS: 1

Input parameters:
  convergence: {density: 0.0001,
                eigenstates: 5e-06}
  kpts: [2 2 1]
  mode: {ecut: 200.0,
         name: pw}
  xc: PBE

System changes: positions, numbers, cell, pbc, initial_charges, initial_magmoms 

Initialize ...

species:
  K:
    name: Potassium
    id: 04190408da443a44668134082ce1c192
    Z: 19.0
    valence: 9
    core: 10
    charge: 0.0
    file: /Users/tew/Documents/Project/GitHub/chem-com/.venv/lib/python3.13/site-packages/gpaw_data/setups/K.PBE.gz
    compensation charges: {type: gauss,
                           rc: 0.35,
                           lmax: 2}
    cutoffs: {filter: 1.91,
              core: 1.27}
    projectors:
      #              energy  rcut
      - 3s(2.00)   -35.338   1.122
      - 4s(1.00)    -2.319   1.122
      - 3p(6.00)   -18.813   1.106
      -  p           8.398   1.106
      -  d           0.000   0.937
  
    # Using partial waves for K as LCAO basis

Reference energy: -1195904.484944  # eV

Spin-paired calculation

Convergence criteria:
 Maximum [total energy] change in last 3 cyles: 0.0005 eV / valence electron
 Maximum integral of absolute [dens]ity change: 0.0001 electrons / valence electron
 Maximum integral of absolute [eigenst]ate change: 5e-06 eV^2 / valence electron
 Maximum number of scf [iter]ations: 333
 (Square brackets indicate name in SCF output, whereas a 'c' in
 the SCF output indicates the quantity has converged.)

Symmetries present (total): 2

  ( 1  0  0)  ( 1  0  0)
  ( 0  1  0)  ( 0 -1  0)
  ( 0  0  1)  ( 0  0  1)

4 k-points: 2 x 2 x 1 Monkhorst-Pack grid
1 k-point in the irreducible part of the Brillouin zone
       k-points in crystal coordinates                weights
   0:     0.25000000    0.25000000    0.00000000          4/4

Wave functions: Plane wave expansion
  Cutoff energy: 200.000 eV
  Number of coefficients (min, max): 69510, 69510
  Pulay-stress correction: 0.000000 eV/Ang^3 (de/decut=0.000000)
  Using Numpy's FFT
  ScaLapack parameters: grid=1x1, blocksize=None
  Wavefunction extrapolation:
    Improved wavefunction reuse through dual PAW basis 

Occupation numbers: Fermi-Dirac:
  width: 0.1000  # eV
 

Eigensolver
   Davidson(niter=2) 

Densities:
  Coarse grid: 75*54*105 grid
  Fine grid: 150*108*210 grid
  Total Charge: 0.000000 

Density mixing:
  Method: separate
  Backend: pulay
  Linear mixing parameter: 0.05
  old densities: 5
  Damping of long wavelength oscillations: 50 

Hamiltonian:
  XC and Coulomb potentials evaluated on a 150*108*210 grid
  Using the PBE Exchange-Correlation functional
  External potential:
    NoExternalPotential
 

XC parameters: PBE with 2 nearest neighbor stencil

Memory estimate:
  Process memory now: 4272.72 MiB
  Calculator: 1076.88 MiB
    Density: 190.32 MiB
      Arrays: 84.35 MiB
      Localized functions: 73.52 MiB
      Mixer: 32.44 MiB
    Hamiltonian: 56.66 MiB
      Arrays: 55.15 MiB
      XC: 0.00 MiB
      Poisson: 0.00 MiB
      vbar: 1.50 MiB
    Wavefunctions: 829.90 MiB
      Arrays psit_nG: 387.13 MiB
      Eigensolver: 412.78 MiB
      Projections: 5.29 MiB
      Projectors: 7.42 MiB
      PW-descriptor: 17.28 MiB

Total number of cores used: 1

Number of atoms: 73
Number of atomic orbitals: 365
Number of bands in calculation: 365
Number of valence electrons: 657
Bands to converge: occupied

... initialized

Initializing position-dependent things.

Density initialized from atomic densities
Creating initial wave functions:
  365 bands from LCAO basis set

           .------------------------------------------------------.  
          /|                                                      |  
         / |                                                      |  
        /  |                                                      |  
       /   |                                                      |  
      /    |                                                      |  
     /     |                                                      |  
    /      |                                                      |  
   /       |                                                      |  
  /        |                                                      |  
 *         |                                                      |  
 |         |                                                      |  
 |         |                                                      |  
 |         |                                                      |  
 |       K |                K                 K                   |  
 |         |                                                      |  
 |         |     K                 K                  K           |  
 |    K    |            K                  K                      |  
 |         |       K                 K                 K          |  
 |         | K                  K                 K               |  
 |      K K|              K                 K                     |  
 | K       |         K                 K                          |  
 |        K|   K             K   K             K    K             |  
 |  K    K |           K    K            K    K                   |  
 |         |                                                      |  
 |         |K    K            K    K             K   K            |  
 |    K    |            K                  K                      |  
 K         |       K                 KK                K          |  
 |         | K                  K                 K               |  
 |      K  |              K                 K                     |  
 | K       |         K                 K                          |  
 |        K|   K             K   K             K    K             |  
 |  K      |           K                 K                        |  
 |         |                                                      |  
 |         |K                 K                  K                |  
 |         |                                                      |  
 K         |       K                  K                           |  
 |         |                                                      |  
 |         .------------------------------------------------------.  
 |        /                                                      /   
 |       /                                                      /    
 |      /                                                      /     
 |     /                                                      /      
 |    /                                                      /       
 |   /                                                      /        
 |  /                                                      /         
 | /                                                      /          
 |/                                                      /           
 *------------------------------------------------------*            

Atomic positions and initial magnetic moments

Positions:
   0 K      0.000000    0.000000   10.000000    ( 0.0000,  0.0000,  0.0000)
   1 K      3.698168    2.615000   10.000000    ( 0.0000,  0.0000,  0.0000)
   2 K      3.698168    0.000000   13.698168    ( 0.0000,  0.0000,  0.0000)
   3 K      0.000000    2.615000   13.698168    ( 0.0000,  0.0000,  0.0000)
   4 K      0.000000    0.000000   17.396337    ( 0.0000,  0.0000,  0.0000)
   5 K      3.698168    2.615000   17.396337    ( 0.0000,  0.0000,  0.0000)
   6 K      3.698168    0.000000   21.094505    ( 0.0000,  0.0000,  0.0000)
   7 K      0.000000    2.615000   21.094505    ( 0.0000,  0.0000,  0.0000)
   8 K      0.000000    5.230000   10.000000    ( 0.0000,  0.0000,  0.0000)
   9 K      3.698168    7.845000   10.000000    ( 0.0000,  0.0000,  0.0000)
  10 K      3.698168    5.230000   13.698168    ( 0.0000,  0.0000,  0.0000)
  11 K      0.000000    7.845000   13.698168    ( 0.0000,  0.0000,  0.0000)
  12 K      0.000000    5.230000   17.396337    ( 0.0000,  0.0000,  0.0000)
  13 K      3.698168    7.845000   17.396337    ( 0.0000,  0.0000,  0.0000)
  14 K      3.698168    5.230000   21.094505    ( 0.0000,  0.0000,  0.0000)
  15 K      0.000000    7.845000   21.094505    ( 0.0000,  0.0000,  0.0000)
  16 K      0.000000   10.460000   10.000000    ( 0.0000,  0.0000,  0.0000)
  17 K      3.698168   13.075000   10.000000    ( 0.0000,  0.0000,  0.0000)
  18 K      3.698168   10.460000   13.698168    ( 0.0000,  0.0000,  0.0000)
  19 K      0.000000   13.075000   13.698168    ( 0.0000,  0.0000,  0.0000)
  20 K      0.000000   10.460000   17.396337    ( 0.0000,  0.0000,  0.0000)
  21 K      3.698168   13.075000   17.396337    ( 0.0000,  0.0000,  0.0000)
  22 K      3.698168   10.460000   21.094505    ( 0.0000,  0.0000,  0.0000)
  23 K      0.000000   13.075000   21.094505    ( 0.0000,  0.0000,  0.0000)
  24 K      7.396337    0.000000   10.000000    ( 0.0000,  0.0000,  0.0000)
  25 K     11.094505    2.615000   10.000000    ( 0.0000,  0.0000,  0.0000)
  26 K     11.094505    0.000000   13.698168    ( 0.0000,  0.0000,  0.0000)
  27 K      7.396337    2.615000   13.698168    ( 0.0000,  0.0000,  0.0000)
  28 K      7.396337    0.000000   17.396337    ( 0.0000,  0.0000,  0.0000)
  29 K     11.094505    2.615000   17.396337    ( 0.0000,  0.0000,  0.0000)
  30 K     11.094505    0.000000   21.094505    ( 0.0000,  0.0000,  0.0000)
  31 K      7.396337    2.615000   21.094505    ( 0.0000,  0.0000,  0.0000)
  32 K      7.396337    5.230000   10.000000    ( 0.0000,  0.0000,  0.0000)
  33 K     11.094505    7.845000   10.000000    ( 0.0000,  0.0000,  0.0000)
  34 K     11.094505    5.230000   13.698168    ( 0.0000,  0.0000,  0.0000)
  35 K      7.396337    7.845000   13.698168    ( 0.0000,  0.0000,  0.0000)
  36 K      7.396337    5.230000   17.396337    ( 0.0000,  0.0000,  0.0000)
  37 K     11.094505    7.845000   17.396337    ( 0.0000,  0.0000,  0.0000)
  38 K     11.094505    5.230000   21.094505    ( 0.0000,  0.0000,  0.0000)
  39 K      7.396337    7.845000   21.094505    ( 0.0000,  0.0000,  0.0000)
  40 K      7.396337   10.460000   10.000000    ( 0.0000,  0.0000,  0.0000)
  41 K     11.094505   13.075000   10.000000    ( 0.0000,  0.0000,  0.0000)
  42 K     11.094505   10.460000   13.698168    ( 0.0000,  0.0000,  0.0000)
  43 K      7.396337   13.075000   13.698168    ( 0.0000,  0.0000,  0.0000)
  44 K      7.396337   10.460000   17.396337    ( 0.0000,  0.0000,  0.0000)
  45 K     11.094505   13.075000   17.396337    ( 0.0000,  0.0000,  0.0000)
  46 K     11.094505   10.460000   21.094505    ( 0.0000,  0.0000,  0.0000)
  47 K      7.396337   13.075000   21.094505    ( 0.0000,  0.0000,  0.0000)
  48 K     14.792674    0.000000   10.000000    ( 0.0000,  0.0000,  0.0000)
  49 K     18.490842    2.615000   10.000000    ( 0.0000,  0.0000,  0.0000)
  50 K     18.490842    0.000000   13.698168    ( 0.0000,  0.0000,  0.0000)
  51 K     14.792674    2.615000   13.698168    ( 0.0000,  0.0000,  0.0000)
  52 K     14.792674    0.000000   17.396337    ( 0.0000,  0.0000,  0.0000)
  53 K     18.490842    2.615000   17.396337    ( 0.0000,  0.0000,  0.0000)
  54 K     18.490842    0.000000   21.094505    ( 0.0000,  0.0000,  0.0000)
  55 K     14.792674    2.615000   21.094505    ( 0.0000,  0.0000,  0.0000)
  56 K     14.792674    5.230000   10.000000    ( 0.0000,  0.0000,  0.0000)
  57 K     18.490842    7.845000   10.000000    ( 0.0000,  0.0000,  0.0000)
  58 K     18.490842    5.230000   13.698168    ( 0.0000,  0.0000,  0.0000)
  59 K     14.792674    7.845000   13.698168    ( 0.0000,  0.0000,  0.0000)
  60 K     14.792674    5.230000   17.396337    ( 0.0000,  0.0000,  0.0000)
  61 K     18.490842    7.845000   17.396337    ( 0.0000,  0.0000,  0.0000)
  62 K     18.490842    5.230000   21.094505    ( 0.0000,  0.0000,  0.0000)
  63 K     14.792674    7.845000   21.094505    ( 0.0000,  0.0000,  0.0000)
  64 K     14.792674   10.460000   10.000000    ( 0.0000,  0.0000,  0.0000)
  65 K     18.490842   13.075000   10.000000    ( 0.0000,  0.0000,  0.0000)
  66 K     18.490842   10.460000   13.698168    ( 0.0000,  0.0000,  0.0000)
  67 K     14.792674   13.075000   13.698168    ( 0.0000,  0.0000,  0.0000)
  68 K     14.792674   10.460000   17.396337    ( 0.0000,  0.0000,  0.0000)
  69 K     18.490842   13.075000   17.396337    ( 0.0000,  0.0000,  0.0000)
  70 K     18.490842   10.460000   21.094505    ( 0.0000,  0.0000,  0.0000)
  71 K     14.792674   13.075000   21.094505    ( 0.0000,  0.0000,  0.0000)
  72 K      3.698168    0.000000   23.094505    ( 0.0000,  0.0000,  0.0000)

Unit cell:
           periodic     x           y           z      points  spacing
  1. axis:    yes   22.189011    0.000000    0.000000    75     0.2959
  2. axis:    yes    0.000000   15.690000    0.000000    54     0.2906
  3. axis:    no     0.000000    0.000000   31.094505   105     0.2961

  Lengths:  22.189011  15.690000  31.094505
  Angles:   90.000000  90.000000  90.000000

Effective grid spacing dv^(1/3) = 0.2942

     iter     time        total  log10-change:
                         energy   eigst   dens
iter:   1 08:39:19   -49.089755
iter:   2 08:39:45   -47.155304   -1.95  -1.24
iter:   3 08:40:13   -35.966118   -1.25  -1.27
iter:   4 08:40:41   -34.198985   -2.78  -1.53
iter:   5 08:41:08   -34.009586   -3.05  -1.67
iter:   6 08:41:36   -34.302046c  -3.52  -1.77
iter:   7 08:42:02   -33.775631   -3.09  -1.87
iter:   8 08:42:30   -33.587842   -3.36  -2.12
iter:   9 08:42:56   -33.578700c  -4.70  -2.69
iter:  10 08:43:24   -33.572048c  -4.63  -2.75
iter:  11 08:43:51   -33.571996c  -4.96  -2.92
iter:  12 08:44:19   -33.570688c  -5.63c -3.03
iter:  13 08:44:46   -33.570701c  -5.75c -3.13
iter:  14 08:45:14   -33.571242c  -6.19c -3.19
iter:  15 08:45:42   -33.571931c  -6.35c -3.30
iter:  16 08:46:11   -33.571728c  -6.43c -3.42
iter:  17 08:46:42   -33.571827c  -6.80c -3.64
iter:  18 08:47:11   -33.571888c  -7.06c -3.81
iter:  19 08:47:39   -33.571738c  -6.94c -3.87
iter:  20 08:48:07   -33.571757c  -7.57c -4.11c

Converged after 20 iterations.

Dipole moment: (0.142150, -0.000000, 0.253383) |e|*Ang

Energy contributions relative to reference atoms: (reference = -1195904.484944)

Kinetic:       +251.065004
Potential:     -239.294160
External:        +0.000000
XC:             -76.473193
Entropy (-ST):   -2.048721
Local:          +32.154952
SIC:             +0.000000
--------------------------
Free energy:    -34.596117
Extrapolated:   -33.571757

 Band  Eigenvalues  Occupancy
    0    -35.74644    2.00000
    1    -33.22114    2.00000
    2    -33.01423    2.00000
    3    -33.01406    2.00000
    4    -33.00827    2.00000
    5    -33.00821    2.00000
    6    -33.00728    2.00000
    7    -33.00692    2.00000
    8    -33.00675    2.00000
    9    -33.00662    2.00000
   10    -33.00652    2.00000
   11    -33.00640    2.00000
   12    -33.00633    2.00000
   13    -33.00606    2.00000
   14    -33.00594    2.00000
   15    -33.00582    2.00000
   16    -33.00549    2.00000
   17    -33.00537    2.00000
   18    -33.00506    2.00000
   19    -33.00487    2.00000
   20    -33.00455    2.00000
   21    -33.00343    2.00000
   22    -33.00326    2.00000
   23    -33.00296    2.00000
   24    -33.00289    2.00000
   25    -33.00286    2.00000
   26    -33.00270    2.00000
   27    -33.00093    2.00000
   28    -33.00051    2.00000
   29    -32.99821    2.00000
   30    -32.99781    2.00000
   31    -32.98218    2.00000
   32    -32.98197    2.00000
   33    -32.93648    2.00000
   34    -32.93638    2.00000
   35    -32.93634    2.00000
   36    -32.93615    2.00000
   37    -32.80193    2.00000
   38    -32.80179    2.00000
   39    -32.79888    2.00000
   40    -32.79868    2.00000
   41    -32.79834    2.00000
   42    -32.79809    2.00000
   43    -32.79783    2.00000
   44    -32.79767    2.00000
   45    -32.79751    2.00000
   46    -32.79743    2.00000
   47    -32.79715    2.00000
   48    -32.79694    2.00000
   49    -32.79663    2.00000
   50    -32.79635    2.00000
   51    -32.79627    2.00000
   52    -32.79614    2.00000
   53    -32.79611    2.00000
   54    -32.79592    2.00000
   55    -32.79577    2.00000
   56    -32.79565    2.00000
   57    -32.79499    2.00000
   58    -32.79426    2.00000
   59    -32.79367    2.00000
   60    -32.79358    2.00000
   61    -32.79350    2.00000
   62    -32.79310    2.00000
   63    -32.79272    2.00000
   64    -32.79169    2.00000
   65    -32.79102    2.00000
   66    -32.79091    2.00000
   67    -32.79080    2.00000
   68    -32.78992    2.00000
   69    -32.78732    2.00000
   70    -32.78708    2.00000
   71    -32.77561    2.00000
   72    -32.77537    2.00000
   73    -20.66256    2.00000
   74    -18.42288    2.00000
   75    -18.42163    2.00000
   76    -16.82550    2.00000
   77    -16.82503    2.00000
   78    -16.46654    2.00000
   79    -16.46526    2.00000
   80    -16.46507    2.00000
   81    -16.46440    2.00000
   82    -16.46180    2.00000
   83    -16.46150    2.00000
   84    -16.46118    2.00000
   85    -16.46061    2.00000
   86    -16.46040    2.00000
   87    -16.46025    2.00000
   88    -16.46004    2.00000
   89    -16.45986    2.00000
   90    -16.45980    2.00000
   91    -16.45968    2.00000
   92    -16.45923    2.00000
   93    -16.45838    2.00000
   94    -16.45827    2.00000
   95    -16.45822    2.00000
   96    -16.45821    2.00000
   97    -16.45787    2.00000
   98    -16.45770    2.00000
   99    -16.45742    2.00000
  100    -16.45717    2.00000
  101    -16.45690    2.00000
  102    -16.45680    2.00000
  103    -16.45649    2.00000
  104    -16.45613    2.00000
  105    -16.45554    2.00000
  106    -16.45528    2.00000
  107    -16.45524    2.00000
  108    -16.45483    2.00000
  109    -16.45456    2.00000
  110    -16.45407    2.00000
  111    -16.45369    2.00000
  112    -16.45348    2.00000
  113    -16.45332    2.00000
  114    -16.45285    2.00000
  115    -16.45264    2.00000
  116    -16.45257    2.00000
  117    -16.45205    2.00000
  118    -16.45192    2.00000
  119    -16.45099    2.00000
  120    -16.44920    2.00000
  121    -16.44827    2.00000
  122    -16.44812    2.00000
  123    -16.44744    2.00000
  124    -16.44713    2.00000
  125    -16.44667    2.00000
  126    -16.44627    2.00000
  127    -16.44534    2.00000
  128    -16.44156    2.00000
  129    -16.43826    2.00000
  130    -16.43783    2.00000
  131    -16.43723    2.00000
  132    -16.43652    2.00000
  133    -16.43595    2.00000
  134    -16.43501    2.00000
  135    -16.43481    2.00000
  136    -16.43367    2.00000
  137    -16.43365    2.00000
  138    -16.43319    2.00000
  139    -16.43268    2.00000
  140    -16.43216    2.00000
  141    -16.43211    2.00000
  142    -16.43082    2.00000
  143    -16.42981    2.00000
  144    -16.42875    2.00000
  145    -16.42578    2.00000
  146    -16.42364    2.00000
  147    -16.42302    2.00000
  148    -16.42147    2.00000
  149    -16.42053    2.00000
  150    -16.42033    2.00000
  151    -16.41987    2.00000
  152    -16.41883    2.00000
  153    -16.41860    2.00000
  154    -16.41780    2.00000
  155    -16.41755    2.00000
  156    -16.41682    2.00000
  157    -16.41557    2.00000
  158    -16.41428    2.00000
  159    -16.41340    2.00000
  160    -16.41293    2.00000
  161    -16.41226    2.00000
  162    -16.41078    2.00000
  163    -16.40977    2.00000
  164    -16.40968    2.00000
  165    -16.40928    2.00000
  166    -16.40898    2.00000
  167    -16.40769    2.00000
  168    -16.40579    2.00000
  169    -16.40325    2.00000
  170    -16.40215    2.00000
  171    -16.38928    2.00000
  172    -16.38922    2.00000
  173    -16.38854    2.00000
  174    -16.38836    2.00000
  175    -16.36760    2.00000
  176    -16.36627    2.00000
  177    -16.36564    2.00000
  178    -16.36454    2.00000
  179    -16.35914    2.00000
  180    -16.35884    2.00000
  181    -16.35631    2.00000
  182    -16.35608    2.00000
  183    -16.27098    2.00000
  184    -16.26778    2.00000
  185    -16.26646    2.00000
  186    -16.26558    2.00000
  187    -16.26519    2.00000
  188    -16.26452    2.00000
  189    -16.26386    2.00000
  190    -16.26321    2.00000
  191    -16.26266    2.00000
  192    -16.26161    2.00000
  193    -16.26108    2.00000
  194    -16.25999    2.00000
  195    -16.25967    2.00000
  196    -16.25897    2.00000
  197    -16.25769    2.00000
  198    -16.25671    2.00000
  199    -16.25652    2.00000
  200    -16.25566    2.00000
  201    -16.25497    2.00000
  202    -16.25431    2.00000
  203    -16.25366    2.00000
  204    -16.25329    2.00000
  205    -16.25232    2.00000
  206    -16.25193    2.00000
  207    -16.25123    2.00000
  208    -16.25077    2.00000
  209    -16.24984    2.00000
  210    -16.24956    2.00000
  211    -16.24895    2.00000
  212    -16.24746    2.00000
  213    -16.24739    2.00000
  214    -16.24641    2.00000
  215    -16.24609    2.00000
  216    -16.24476    2.00000
  217    -16.24373    2.00000
  218    -16.24270    2.00000
  219    -16.24222    2.00000
  220    -16.24211    2.00000
  221    -16.24104    2.00000
  222    -16.24036    2.00000
  223    -16.23920    2.00000
  224    -16.23813    2.00000
  225    -16.23750    2.00000
  226    -16.23702    2.00000
  227    -16.23612    2.00000
  228    -16.23584    2.00000
  229    -16.23480    2.00000
  230    -16.23405    2.00000
  231    -16.23388    2.00000
  232    -16.23319    2.00000
  233    -16.23251    2.00000
  234    -16.23213    2.00000
  235    -16.23119    2.00000
  236    -16.23041    2.00000
  237    -16.23032    2.00000
  238    -16.23003    2.00000
  239    -16.22985    2.00000
  240    -16.22894    2.00000
  241    -16.22799    2.00000
  242    -16.22751    2.00000
  243    -16.22672    2.00000
  244    -16.22654    2.00000
  245    -16.22525    2.00000
  246    -16.22505    2.00000
  247    -16.22479    2.00000
  248    -16.22432    2.00000
  249    -16.22332    2.00000
  250    -16.22280    2.00000
  251    -16.22184    2.00000
  252    -16.22151    2.00000
  253    -16.22117    2.00000
  254    -16.22077    2.00000
  255    -16.21973    2.00000
  256    -16.21920    2.00000
  257    -16.21843    2.00000
  258    -16.21832    2.00000
  259    -16.21794    2.00000
  260    -16.21758    2.00000
  261    -16.21706    2.00000
  262    -16.21690    2.00000
  263    -16.21666    2.00000
  264    -16.21639    2.00000
  265    -16.21563    2.00000
  266    -16.21540    2.00000
  267    -16.21495    2.00000
  268    -16.21462    2.00000
  269    -16.21422    2.00000
  270    -16.21409    2.00000
  271    -16.21382    2.00000
  272    -16.21339    2.00000
  273    -16.21297    2.00000
  274    -16.21256    2.00000
  275    -16.21212    2.00000
  276    -16.21185    2.00000
  277    -16.21170    2.00000
  278    -16.21108    2.00000
  279    -16.21066    2.00000
  280    -16.21047    2.00000
  281    -16.20954    2.00000
  282    -16.20932    2.00000
  283    -16.20836    2.00000
  284    -16.20537    2.00000
  285    -16.20520    2.00000
  286    -16.20489    2.00000
  287    -16.20165    2.00000
  288    -16.20104    2.00000
  289    -16.20036    2.00000
  290    -16.19778    2.00000
  291    -14.53590    2.00000
  292     -2.65419    2.00000
  293     -2.48035    2.00000
  294     -2.31430    2.00000
  295     -2.29260    2.00000
  296     -2.14812    2.00000
  297     -2.13575    2.00000
  298     -2.11932    2.00000
  299     -1.95876    2.00000
  300     -1.82204    1.99999
  301     -1.79876    1.99998
  302     -1.77638    1.99998
  303     -1.69244    1.99995
  304     -1.64546    1.99992
  305     -1.64462    1.99992
  306     -1.52901    1.99973
  307     -1.48709    1.99959
  308     -1.46191    1.99947
  309     -1.36377    1.99859
  310     -1.32796    1.99799
  311     -1.30701    1.99752
  312     -1.29673    1.99725
  313     -1.21245    1.99363
  314     -1.17837    1.99106
  315     -1.16979    1.99026
  316     -1.14937    1.98807
  317     -1.02949    1.96097
  318     -1.00057    1.94822
  319     -0.94473    1.91121
  320     -0.86219    1.80823
  321     -0.85099    1.78791
  322     -0.77152    1.58404
  323     -0.73494    1.45078
  324     -0.72932    1.42809
  325     -0.72675    1.41753
  326     -0.70978    1.34509
  327     -0.70348    1.31703
  328     -0.69724    1.28871
  329     -0.59770    0.80209
  330     -0.58721    0.75229
  331     -0.56510    0.65169
  332     -0.45692    0.28154
  333     -0.42756    0.21772
  334     -0.42319    0.20938
  335     -0.41337    0.19166
  336     -0.40423    0.17640
  337     -0.39719    0.16540
  338     -0.32068    0.08053
  339     -0.30778    0.07112
  340     -0.29334    0.06186
  341     -0.28118    0.05497
  342     -0.17314    0.01900
  343     -0.16214    0.01704
  344     -0.13078    0.01248
  345     -0.07140    0.00691
  346     -0.04151    0.00513
  347     -0.03372    0.00475
  348     -0.01589    0.00397
  349      0.02440    0.00266
  350      0.03595    0.00237
  351      0.08845    0.00140
  352      0.10912    0.00114
  353      0.11486    0.00108
  354      0.12305    0.00099
  355      0.12944    0.00093
  356      0.15462    0.00072
  357      0.17852    0.00057
  358      0.21398    0.00040
  359      0.23692    0.00032
  360      0.27136    0.00023
  361      0.28681    0.00019
  362      0.30469    0.00016
  363      0.32517    0.00013
  364      0.39806    0.00006

Fermi level: -0.63781

Gap: 0.100 eV
Transition (v -> c):
  (s=0, k=0, n=328, [0.25, 0.25, 0.00]) -> (s=0, k=0, n=329, [0.25, 0.25, 0.00])
No difference between direct/indirect transitions

Forces in eV/Ang:
  0 K     0.00303    0.00000    0.00295
  1 K     0.00000   -0.00021    0.00306
  2 K     0.00000    0.00000   -0.01834
  3 K     0.00114   -0.00255   -0.00515
  4 K     0.00511    0.00000    0.00615
  5 K    -0.00000   -0.00291    0.00669
  6 K     0.00000    0.00000  -12.75219
  7 K     0.03186   -0.02042    0.02141
  8 K     0.00102   -0.00142    0.00162
  9 K     0.00000    0.00000    0.00168
 10 K     0.00000   -0.00436   -0.00496
 11 K    -0.00021    0.00000   -0.00440
 12 K    -0.00169    0.00292    0.00463
 13 K    -0.00000    0.00000    0.00567
 14 K    -0.00000   -0.04584    0.01706
 15 K    -0.00413    0.00000   -0.00799
 16 K     0.00102    0.00142    0.00162
 17 K     0.00000    0.00021    0.00306
 18 K     0.00000    0.00436   -0.00496
 19 K     0.00114    0.00255   -0.00515
 20 K    -0.00169   -0.00292    0.00463
 21 K    -0.00000    0.00291    0.00669
 22 K    -0.00000    0.04584    0.01706
 23 K     0.03186    0.02042    0.02141
 24 K    -0.00303    0.00000    0.00295
 25 K    -0.00059    0.00144    0.00347
 26 K    -0.00343    0.00000   -0.00296
 27 K    -0.00114   -0.00255   -0.00515
 28 K    -0.00511    0.00000    0.00615
 29 K     0.00135    0.00009    0.00525
 30 K     0.00408    0.00000   -0.00363
 31 K    -0.03186   -0.02042    0.02141
 32 K    -0.00102   -0.00142    0.00162
 33 K     0.00185    0.00000    0.00423
 34 K     0.00046    0.00001   -0.00608
 35 K     0.00021    0.00000   -0.00440
 36 K     0.00169    0.00292    0.00463
 37 K    -0.00279    0.00000    0.00916
 38 K     0.00285    0.00287   -0.00605
 39 K     0.00413    0.00000   -0.00799
 40 K    -0.00102    0.00142    0.00162
 41 K    -0.00059   -0.00144    0.00347
 42 K     0.00046   -0.00001   -0.00608
 43 K    -0.00114    0.00255   -0.00515
 44 K     0.00169   -0.00292    0.00463
 45 K     0.00135   -0.00009    0.00525
 46 K     0.00285   -0.00287   -0.00605
 47 K    -0.03186    0.02042    0.02141
 48 K     0.00000    0.00000    0.00252
 49 K     0.00059    0.00144    0.00347
 50 K     0.00343    0.00000   -0.00296
 51 K    -0.00000    0.00185   -0.00611
 52 K    -0.00000    0.00000    0.01059
 53 K    -0.00135    0.00009    0.00525
 54 K    -0.00408    0.00000   -0.00363
 55 K     0.00000   -0.00139   -0.00497
 56 K    -0.00000    0.00251    0.00420
 57 K    -0.00185    0.00000    0.00423
 58 K    -0.00046    0.00001   -0.00608
 59 K    -0.00000    0.00000   -0.00975
 60 K    -0.00000   -0.00142    0.00806
 61 K     0.00279    0.00000    0.00916
 62 K    -0.00285    0.00287   -0.00605
 63 K    -0.00000    0.00000   -0.00230
 64 K    -0.00000   -0.00251    0.00420
 65 K     0.00059   -0.00144    0.00347
 66 K    -0.00046   -0.00001   -0.00608
 67 K    -0.00000   -0.00185   -0.00611
 68 K    -0.00000    0.00142    0.00806
 69 K    -0.00135   -0.00009    0.00525
 70 K    -0.00285   -0.00287   -0.00605
 71 K     0.00000    0.00139   -0.00497
 72 K     0.00000    0.00000   12.63248

System changes: positions 

Initializing position-dependent things.

Density initialized from wave functions
           .------------------------------------------------------.  
          /|                                                      |  
         / |                                                      |  
        /  |                                                      |  
       /   |                                                      |  
      /    |                                                      |  
     /     |                                                      |  
    /      |                                                      |  
   /       |                                                      |  
  /        |                                                      |  
 *         |                                                      |  
 |         |                                                      |  
 |         |                                                      |  
 |         |                                                      |  
 |       K |                K                 K                   |  
 |         |                                                      |  
 |         |     K                 K                 K            |  
 |         |            K                  K                 K    |  
 |         |       K                 K                 K          |  
 |         | K                  K                 K               |  
 |        K|              K                 K                  K  |  
 | K       |         K                 K                          |  
 |        K|   K             K   K             K    K             |  
 |       K |           K    K            K    K            K      |  
 |         |                                                      |  
 |         |K    K            K    K            K    K            |  
 |    K    |            K                  K                      |  
 K         |       K                 KK                K          |  
 |         | K                  K                 K               |  
 |      K  |              K                 K                     |  
 | K       |         K                 K                          |  
 |        K|   K             K   K             K    K             |  
 |  K      |           K                 K                        |  
 |         |                                                      |  
 |         |K                 K                  K                |  
 |         |                                                      |  
 K         |       K                  K                           |  
 |         |                                                      |  
 |         .------------------------------------------------------.  
 |        /                                                      /   
 |       /                                                      /    
 |      /                                                      /     
 |     /                                                      /      
 |    /                                                      /       
 |   /                                                      /        
 |  /                                                      /         
 | /                                                      /          
 |/                                                      /           
 *------------------------------------------------------*            

Atomic positions and initial magnetic moments

Positions:
   0 K      0.000000    0.000000   10.000000    ( 0.0000,  0.0000,  0.0000)
   1 K      3.698168    2.615000   10.000000    ( 0.0000,  0.0000,  0.0000)
   2 K      3.698168    0.000000   13.698168    ( 0.0000,  0.0000,  0.0000)
   3 K      0.000000    2.615000   13.698168    ( 0.0000,  0.0000,  0.0000)
   4 K      0.000073    0.000000   17.396425    ( 0.0000,  0.0000,  0.0000)
   5 K      3.698168    2.614958   17.396433    ( 0.0000,  0.0000,  0.0000)
   6 K      3.698168    0.000000   20.912331    ( 0.0000,  0.0000,  0.0000)
   7 K      0.000455    2.614708   21.094811    ( 0.0000,  0.0000,  0.0000)
   8 K      0.000000    5.230000   10.000000    ( 0.0000,  0.0000,  0.0000)
   9 K      3.698168    7.845000   10.000000    ( 0.0000,  0.0000,  0.0000)
  10 K      3.698168    5.230000   13.698168    ( 0.0000,  0.0000,  0.0000)
  11 K      0.000000    7.845000   13.698168    ( 0.0000,  0.0000,  0.0000)
  12 K     -0.000024    5.230042   17.396403    ( 0.0000,  0.0000,  0.0000)
  13 K      3.698168    7.845000   17.396418    ( 0.0000,  0.0000,  0.0000)
  14 K      3.698168    5.229345   21.094749    ( 0.0000,  0.0000,  0.0000)
  15 K     -0.000059    7.845000   21.094391    ( 0.0000,  0.0000,  0.0000)
  16 K      0.000000   10.460000   10.000000    ( 0.0000,  0.0000,  0.0000)
  17 K      3.698168   13.075000   10.000000    ( 0.0000,  0.0000,  0.0000)
  18 K      3.698168   10.460000   13.698168    ( 0.0000,  0.0000,  0.0000)
  19 K      0.000000   13.075000   13.698168    ( 0.0000,  0.0000,  0.0000)
  20 K     -0.000024   10.459958   17.396403    ( 0.0000,  0.0000,  0.0000)
  21 K      3.698168   13.075042   17.396433    ( 0.0000,  0.0000,  0.0000)
  22 K      3.698168   10.460655   21.094749    ( 0.0000,  0.0000,  0.0000)
  23 K      0.000455   13.075292   21.094811    ( 0.0000,  0.0000,  0.0000)
  24 K      7.396337    0.000000   10.000000    ( 0.0000,  0.0000,  0.0000)
  25 K     11.094505    2.615000   10.000000    ( 0.0000,  0.0000,  0.0000)
  26 K     11.094505    0.000000   13.698168    ( 0.0000,  0.0000,  0.0000)
  27 K      7.396337    2.615000   13.698168    ( 0.0000,  0.0000,  0.0000)
  28 K      7.396264    0.000000   17.396425    ( 0.0000,  0.0000,  0.0000)
  29 K     11.094525    2.615001   17.396412    ( 0.0000,  0.0000,  0.0000)
  30 K     11.094564    0.000000   21.094454    ( 0.0000,  0.0000,  0.0000)
  31 K      7.395882    2.614708   21.094811    ( 0.0000,  0.0000,  0.0000)
  32 K      7.396337    5.230000   10.000000    ( 0.0000,  0.0000,  0.0000)
  33 K     11.094505    7.845000   10.000000    ( 0.0000,  0.0000,  0.0000)
  34 K     11.094505    5.230000   13.698168    ( 0.0000,  0.0000,  0.0000)
  35 K      7.396337    7.845000   13.698168    ( 0.0000,  0.0000,  0.0000)
  36 K      7.396361    5.230042   17.396403    ( 0.0000,  0.0000,  0.0000)
  37 K     11.094466    7.845000   17.396468    ( 0.0000,  0.0000,  0.0000)
  38 K     11.094546    5.230041   21.094419    ( 0.0000,  0.0000,  0.0000)
  39 K      7.396396    7.845000   21.094391    ( 0.0000,  0.0000,  0.0000)
  40 K      7.396337   10.460000   10.000000    ( 0.0000,  0.0000,  0.0000)
  41 K     11.094505   13.075000   10.000000    ( 0.0000,  0.0000,  0.0000)
  42 K     11.094505   10.460000   13.698168    ( 0.0000,  0.0000,  0.0000)
  43 K      7.396337   13.075000   13.698168    ( 0.0000,  0.0000,  0.0000)
  44 K      7.396361   10.459958   17.396403    ( 0.0000,  0.0000,  0.0000)
  45 K     11.094525   13.074999   17.396412    ( 0.0000,  0.0000,  0.0000)
  46 K     11.094546   10.459959   21.094419    ( 0.0000,  0.0000,  0.0000)
  47 K      7.395882   13.075292   21.094811    ( 0.0000,  0.0000,  0.0000)
  48 K     14.792674    0.000000   10.000000    ( 0.0000,  0.0000,  0.0000)
  49 K     18.490842    2.615000   10.000000    ( 0.0000,  0.0000,  0.0000)
  50 K     18.490842    0.000000   13.698168    ( 0.0000,  0.0000,  0.0000)
  51 K     14.792674    2.615000   13.698168    ( 0.0000,  0.0000,  0.0000)
  52 K     14.792674    0.000000   17.396488    ( 0.0000,  0.0000,  0.0000)
  53 K     18.490823    2.615001   17.396412    ( 0.0000,  0.0000,  0.0000)
  54 K     18.490784    0.000000   21.094454    ( 0.0000,  0.0000,  0.0000)
  55 K     14.792674    2.614980   21.094434    ( 0.0000,  0.0000,  0.0000)
  56 K     14.792674    5.230000   10.000000    ( 0.0000,  0.0000,  0.0000)
  57 K     18.490842    7.845000   10.000000    ( 0.0000,  0.0000,  0.0000)
  58 K     18.490842    5.230000   13.698168    ( 0.0000,  0.0000,  0.0000)
  59 K     14.792674    7.845000   13.698168    ( 0.0000,  0.0000,  0.0000)
  60 K     14.792674    5.229980   17.396452    ( 0.0000,  0.0000,  0.0000)
  61 K     18.490882    7.845000   17.396468    ( 0.0000,  0.0000,  0.0000)
  62 K     18.490802    5.230041   21.094419    ( 0.0000,  0.0000,  0.0000)
  63 K     14.792674    7.845000   21.094473    ( 0.0000,  0.0000,  0.0000)
  64 K     14.792674   10.460000   10.000000    ( 0.0000,  0.0000,  0.0000)
  65 K     18.490842   13.075000   10.000000    ( 0.0000,  0.0000,  0.0000)
  66 K     18.490842   10.460000   13.698168    ( 0.0000,  0.0000,  0.0000)
  67 K     14.792674   13.075000   13.698168    ( 0.0000,  0.0000,  0.0000)
  68 K     14.792674   10.460020   17.396452    ( 0.0000,  0.0000,  0.0000)
  69 K     18.490823   13.074999   17.396412    ( 0.0000,  0.0000,  0.0000)
  70 K     18.490802   10.459959   21.094419    ( 0.0000,  0.0000,  0.0000)
  71 K     14.792674   13.075020   21.094434    ( 0.0000,  0.0000,  0.0000)
  72 K      3.698168    0.000000   23.274969    ( 0.0000,  0.0000,  0.0000)

Unit cell:
           periodic     x           y           z      points  spacing
  1. axis:    yes   22.189011    0.000000    0.000000    75     0.2959
  2. axis:    yes    0.000000   15.690000    0.000000    54     0.2906
  3. axis:    no     0.000000    0.000000   31.094505   105     0.2961

  Lengths:  22.189011  15.690000  31.094505
  Angles:   90.000000  90.000000  90.000000

Effective grid spacing dv^(1/3) = 0.2942

     iter     time        total  log10-change:
                         energy   eigst   dens
iter:   1 08:48:50   -36.323334   -2.53
iter:   2 08:49:16   -36.274491   -3.64  -2.42
iter:   3 08:49:43   -36.264694c  -4.18  -2.64
iter:   4 08:50:09   -36.262856c  -4.52  -3.06
iter:   5 08:50:36   -36.261065c  -4.83  -3.15
iter:   6 08:51:02   -36.260191c  -4.94  -3.26
iter:   7 08:51:30   -36.260090c  -5.38c -3.19
iter:   8 08:51:58   -36.260110c  -5.92c -3.57
iter:   9 08:52:25   -36.259662c  -6.17c -3.65
iter:  10 08:52:53   -36.259771c  -6.60c -3.88
iter:  11 08:53:19   -36.259784c  -7.00c -3.93
iter:  12 08:53:47   -36.259800c  -7.42c -4.07c

Converged after 12 iterations.

Dipole moment: (0.050794, -0.000000, 0.194292) |e|*Ang

Energy contributions relative to reference atoms: (reference = -1195904.484944)

Kinetic:       +236.373128
Potential:     -229.668395
External:        +0.000000
XC:             -74.151561
Entropy (-ST):   -2.054424
Local:          +32.214241
SIC:             +0.000000
--------------------------
Free energy:    -37.287012
Extrapolated:   -36.259800

 Band  Eigenvalues  Occupancy
    0    -34.54261    2.00000
    1    -33.57452    2.00000
    2    -33.01798    2.00000
    3    -33.01781    2.00000
    4    -33.01231    2.00000
    5    -33.01222    2.00000
    6    -33.01073    2.00000
    7    -33.01044    2.00000
    8    -33.00995    2.00000
    9    -33.00955    2.00000
   10    -33.00944    2.00000
   11    -33.00911    2.00000
   12    -33.00903    2.00000
   13    -33.00887    2.00000
   14    -33.00885    2.00000
   15    -33.00879    2.00000
   16    -33.00853    2.00000
   17    -33.00842    2.00000
   18    -33.00803    2.00000
   19    -33.00780    2.00000
   20    -33.00682    2.00000
   21    -33.00586    2.00000
   22    -33.00576    2.00000
   23    -33.00567    2.00000
   24    -33.00563    2.00000
   25    -33.00532    2.00000
   26    -33.00498    2.00000
   27    -33.00356    2.00000
   28    -33.00315    2.00000
   29    -33.00088    2.00000
   30    -33.00048    2.00000
   31    -32.98363    2.00000
   32    -32.98342    2.00000
   33    -32.93752    2.00000
   34    -32.93743    2.00000
   35    -32.93739    2.00000
   36    -32.93719    2.00000
   37    -32.80379    2.00000
   38    -32.80364    2.00000
   39    -32.80224    2.00000
   40    -32.80212    2.00000
   41    -32.80170    2.00000
   42    -32.80092    2.00000
   43    -32.80084    2.00000
   44    -32.80046    2.00000
   45    -32.80037    2.00000
   46    -32.80008    2.00000
   47    -32.80005    2.00000
   48    -32.79984    2.00000
   49    -32.79975    2.00000
   50    -32.79949    2.00000
   51    -32.79935    2.00000
   52    -32.79930    2.00000
   53    -32.79913    2.00000
   54    -32.79911    2.00000
   55    -32.79887    2.00000
   56    -32.79879    2.00000
   57    -32.79818    2.00000
   58    -32.79762    2.00000
   59    -32.79735    2.00000
   60    -32.79719    2.00000
   61    -32.79704    2.00000
   62    -32.79683    2.00000
   63    -32.79625    2.00000
   64    -32.79576    2.00000
   65    -32.79561    2.00000
   66    -32.79542    2.00000
   67    -32.79501    2.00000
   68    -32.79461    2.00000
   69    -32.78548    2.00000
   70    -32.78524    2.00000
   71    -32.77825    2.00000
   72    -32.77796    2.00000
   73    -19.12172    2.00000
   74    -17.74991    2.00000
   75    -17.74858    2.00000
   76    -16.98684    2.00000
   77    -16.98625    2.00000
   78    -16.46956    2.00000
   79    -16.46882    2.00000
   80    -16.46830    2.00000
   81    -16.46794    2.00000
   82    -16.46517    2.00000
   83    -16.46456    2.00000
   84    -16.46446    2.00000
   85    -16.46403    2.00000
   86    -16.46376    2.00000
   87    -16.46369    2.00000
   88    -16.46339    2.00000
   89    -16.46314    2.00000
   90    -16.46253    2.00000
   91    -16.46250    2.00000
   92    -16.46218    2.00000
   93    -16.46177    2.00000
   94    -16.46129    2.00000
   95    -16.46115    2.00000
   96    -16.46110    2.00000
   97    -16.46091    2.00000
   98    -16.46054    2.00000
   99    -16.46024    2.00000
  100    -16.46023    2.00000
  101    -16.45986    2.00000
  102    -16.45949    2.00000
  103    -16.45911    2.00000
  104    -16.45903    2.00000
  105    -16.45896    2.00000
  106    -16.45851    2.00000
  107    -16.45819    2.00000
  108    -16.45758    2.00000
  109    -16.45756    2.00000
  110    -16.45698    2.00000
  111    -16.45679    2.00000
  112    -16.45618    2.00000
  113    -16.45590    2.00000
  114    -16.45587    2.00000
  115    -16.45562    2.00000
  116    -16.45539    2.00000
  117    -16.45534    2.00000
  118    -16.45440    2.00000
  119    -16.45380    2.00000
  120    -16.45192    2.00000
  121    -16.45093    2.00000
  122    -16.45091    2.00000
  123    -16.45083    2.00000
  124    -16.44993    2.00000
  125    -16.44960    2.00000
  126    -16.44921    2.00000
  127    -16.44878    2.00000
  128    -16.44475    2.00000
  129    -16.44107    2.00000
  130    -16.44081    2.00000
  131    -16.44035    2.00000
  132    -16.43925    2.00000
  133    -16.43875    2.00000
  134    -16.43794    2.00000
  135    -16.43780    2.00000
  136    -16.43656    2.00000
  137    -16.43611    2.00000
  138    -16.43610    2.00000
  139    -16.43477    2.00000
  140    -16.43455    2.00000
  141    -16.43405    2.00000
  142    -16.43345    2.00000
  143    -16.43281    2.00000
  144    -16.43161    2.00000
  145    -16.42862    2.00000
  146    -16.42638    2.00000
  147    -16.42588    2.00000
  148    -16.42433    2.00000
  149    -16.42323    2.00000
  150    -16.42320    2.00000
  151    -16.42259    2.00000
  152    -16.42156    2.00000
  153    -16.42154    2.00000
  154    -16.42078    2.00000
  155    -16.42030    2.00000
  156    -16.41953    2.00000
  157    -16.41842    2.00000
  158    -16.41742    2.00000
  159    -16.41632    2.00000
  160    -16.41605    2.00000
  161    -16.41443    2.00000
  162    -16.41353    2.00000
  163    -16.41243    2.00000
  164    -16.41226    2.00000
  165    -16.41188    2.00000
  166    -16.41165    2.00000
  167    -16.41045    2.00000
  168    -16.40853    2.00000
  169    -16.40482    2.00000
  170    -16.40336    2.00000
  171    -16.38980    2.00000
  172    -16.38975    2.00000
  173    -16.38905    2.00000
  174    -16.38886    2.00000
  175    -16.36876    2.00000
  176    -16.36746    2.00000
  177    -16.36676    2.00000
  178    -16.36571    2.00000
  179    -16.36073    2.00000
  180    -16.36037    2.00000
  181    -16.35788    2.00000
  182    -16.35765    2.00000
  183    -16.27403    2.00000
  184    -16.27084    2.00000
  185    -16.26953    2.00000
  186    -16.26857    2.00000
  187    -16.26822    2.00000
  188    -16.26743    2.00000
  189    -16.26683    2.00000
  190    -16.26647    2.00000
  191    -16.26581    2.00000
  192    -16.26469    2.00000
  193    -16.26450    2.00000
  194    -16.26345    2.00000
  195    -16.26251    2.00000
  196    -16.26209    2.00000
  197    -16.26090    2.00000
  198    -16.25975    2.00000
  199    -16.25929    2.00000
  200    -16.25864    2.00000
  201    -16.25807    2.00000
  202    -16.25710    2.00000
  203    -16.25685    2.00000
  204    -16.25636    2.00000
  205    -16.25542    2.00000
  206    -16.25488    2.00000
  207    -16.25443    2.00000
  208    -16.25378    2.00000
  209    -16.25311    2.00000
  210    -16.25257    2.00000
  211    -16.25211    2.00000
  212    -16.25078    2.00000
  213    -16.25039    2.00000
  214    -16.24947    2.00000
  215    -16.24867    2.00000
  216    -16.24789    2.00000
  217    -16.24670    2.00000
  218    -16.24570    2.00000
  219    -16.24533    2.00000
  220    -16.24513    2.00000
  221    -16.24386    2.00000
  222    -16.24348    2.00000
  223    -16.24232    2.00000
  224    -16.24112    2.00000
  225    -16.24076    2.00000
  226    -16.24013    2.00000
  227    -16.23929    2.00000
  228    -16.23885    2.00000
  229    -16.23789    2.00000
  230    -16.23716    2.00000
  231    -16.23681    2.00000
  232    -16.23603    2.00000
  233    -16.23550    2.00000
  234    -16.23526    2.00000
  235    -16.23428    2.00000
  236    -16.23346    2.00000
  237    -16.23316    2.00000
  238    -16.23302    2.00000
  239    -16.23255    2.00000
  240    -16.23198    2.00000
  241    -16.23118    2.00000
  242    -16.23068    2.00000
  243    -16.22986    2.00000
  244    -16.22953    2.00000
  245    -16.22840    2.00000
  246    -16.22794    2.00000
  247    -16.22779    2.00000
  248    -16.22726    2.00000
  249    -16.22617    2.00000
  250    -16.22588    2.00000
  251    -16.22501    2.00000
  252    -16.22449    2.00000
  253    -16.22405    2.00000
  254    -16.22392    2.00000
  255    -16.22265    2.00000
  256    -16.22225    2.00000
  257    -16.22161    2.00000
  258    -16.22132    2.00000
  259    -16.22097    2.00000
  260    -16.22050    2.00000
  261    -16.22015    2.00000
  262    -16.21987    2.00000
  263    -16.21977    2.00000
  264    -16.21956    2.00000
  265    -16.21861    2.00000
  266    -16.21851    2.00000
  267    -16.21797    2.00000
  268    -16.21757    2.00000
  269    -16.21725    2.00000
  270    -16.21700    2.00000
  271    -16.21662    2.00000
  272    -16.21639    2.00000
  273    -16.21616    2.00000
  274    -16.21599    2.00000
  275    -16.21547    2.00000
  276    -16.21506    2.00000
  277    -16.21439    2.00000
  278    -16.21425    2.00000
  279    -16.21378    2.00000
  280    -16.21318    2.00000
  281    -16.21251    2.00000
  282    -16.21185    2.00000
  283    -16.21097    2.00000
  284    -16.20953    2.00000
  285    -16.20938    2.00000
  286    -16.20888    2.00000
  287    -16.20423    2.00000
  288    -16.20268    2.00000
  289    -16.20207    2.00000
  290    -16.19897    2.00000
  291    -16.09641    2.00000
  292     -2.65763    2.00000
  293     -2.48370    2.00000
  294     -2.31620    2.00000
  295     -2.29332    2.00000
  296     -2.15046    2.00000
  297     -2.13870    2.00000
  298     -2.12025    2.00000
  299     -1.95772    2.00000
  300     -1.81956    1.99998
  301     -1.79834    1.99998
  302     -1.77914    1.99998
  303     -1.68572    1.99994
  304     -1.64994    1.99992
  305     -1.64754    1.99992
  306     -1.52177    1.99970
  307     -1.49077    1.99959
  308     -1.46472    1.99947
  309     -1.35766    1.99847
  310     -1.33159    1.99801
  311     -1.31041    1.99754
  312     -1.29936    1.99725
  313     -1.20670    1.99308
  314     -1.18209    1.99115
  315     -1.17285    1.99030
  316     -1.15243    1.98811
  317     -1.03286    1.96124
  318     -1.00093    1.94704
  319     -0.93731    1.90225
  320     -0.86543    1.80924
  321     -0.85480    1.79009
  322     -0.76937    1.56796
  323     -0.73893    1.45604
  324     -0.73277    1.43131
  325     -0.73078    1.42317
  326     -0.71308    1.34792
  327     -0.70679    1.31996
  328     -0.69979    1.28821
  329     -0.59881    0.79467
  330     -0.58895    0.74794
  331     -0.56980    0.66068
  332     -0.45569    0.27228
  333     -0.43455    0.22626
  334     -0.42659    0.21078
  335     -0.41700    0.19335
  336     -0.40722    0.17695
  337     -0.40049    0.16638
  338     -0.32392    0.08097
  339     -0.31110    0.07158
  340     -0.29572    0.06169
  341     -0.28383    0.05496
  342     -0.17730    0.01929
  343     -0.16571    0.01720
  344     -0.13592    0.01279
  345     -0.08807    0.00795
  346     -0.04338    0.00509
  347     -0.03688    0.00477
  348     -0.01799    0.00395
  349      0.01870    0.00274
  350      0.03105    0.00242
  351      0.08577    0.00140
  352      0.10282    0.00118
  353      0.10824    0.00112
  354      0.12005    0.00100
  355      0.12943    0.00091
  356      0.15333    0.00071
  357      0.17591    0.00057
  358      0.20684    0.00042
  359      0.23358    0.00032
  360      0.25702    0.00025
  361      0.28301    0.00020
  362      0.29139    0.00018
  363      0.31003    0.00015
  364      0.35724    0.00009

Fermi level: -0.64047

Gap: 0.101 eV
Transition (v -> c):
  (s=0, k=0, n=328, [0.25, 0.25, 0.00]) -> (s=0, k=0, n=329, [0.25, 0.25, 0.00])
No difference between direct/indirect transitions

Forces in eV/Ang:
  0 K     0.00329    0.00000   -0.00249
  1 K     0.00000    0.00158   -0.00154
  2 K     0.00000    0.00000   -0.00030
  3 K     0.00069    0.00107   -0.00960
  4 K     0.00484    0.00000    0.00753
  5 K     0.00000    0.00694   -0.01450
  6 K    -0.00000    0.00000   -4.04260
  7 K     0.01993   -0.01511    0.02194
  8 K     0.00331    0.00010   -0.00005
  9 K     0.00000    0.00000   -0.00035
 10 K     0.00000   -0.00172   -0.01177
 11 K    -0.00105    0.00000   -0.01105
 12 K    -0.00085   -0.00309    0.00951
 13 K     0.00000    0.00000    0.01293
 14 K     0.00000   -0.03180    0.01843
 15 K    -0.00270    0.00000   -0.00297
 16 K     0.00331   -0.00010   -0.00005
 17 K     0.00000   -0.00158   -0.00154
 18 K     0.00000    0.00172   -0.01177
 19 K     0.00069   -0.00107   -0.00960
 20 K    -0.00085    0.00309    0.00951
 21 K     0.00000   -0.00694   -0.01450
 22 K     0.00000    0.03180    0.01843
 23 K     0.01993    0.01511    0.02194
 24 K    -0.00329    0.00000   -0.00249
 25 K    -0.00239    0.00060    0.00087
 26 K     0.00096    0.00000   -0.00761
 27 K    -0.00069    0.00107   -0.00960
 28 K    -0.00484    0.00000    0.00753
 29 K    -0.00070    0.00042    0.00975
 30 K     0.00313    0.00000   -0.00296
 31 K    -0.01993   -0.01511    0.02194
 32 K    -0.00331    0.00010   -0.00005
 33 K    -0.00264    0.00000    0.00360
 34 K     0.00237    0.00233   -0.00707
 35 K     0.00105    0.00000   -0.01105
 36 K     0.00085   -0.00309    0.00951
 37 K     0.00328    0.00000    0.00494
 38 K    -0.00078   -0.00021   -0.00030
 39 K     0.00270    0.00000   -0.00297
 40 K    -0.00331   -0.00010   -0.00005
 41 K    -0.00239   -0.00060    0.00087
 42 K     0.00237   -0.00233   -0.00707
 43 K    -0.00069   -0.00107   -0.00960
 44 K     0.00085    0.00309    0.00951
 45 K    -0.00070   -0.00042    0.00975
 46 K    -0.00078    0.00021   -0.00030
 47 K    -0.01993    0.01511    0.02194
 48 K     0.00000    0.00000    0.00290
 49 K     0.00239    0.00060    0.00087
 50 K    -0.00096    0.00000   -0.00761
 51 K    -0.00000    0.00272   -0.00599
 52 K    -0.00000    0.00000    0.00662
 53 K     0.00070    0.00042    0.00975
 54 K    -0.00313    0.00000   -0.00296
 55 K    -0.00000   -0.00034    0.00261
 56 K    -0.00000    0.00034    0.00353
 57 K     0.00264    0.00000    0.00360
 58 K    -0.00237    0.00233   -0.00707
 59 K    -0.00000    0.00000   -0.00345
 60 K    -0.00000    0.00249    0.00286
 61 K    -0.00328    0.00000    0.00494
 62 K     0.00078   -0.00021   -0.00030
 63 K     0.00000    0.00000    0.00181
 64 K    -0.00000   -0.00034    0.00353
 65 K     0.00239   -0.00060    0.00087
 66 K    -0.00237   -0.00233   -0.00707
 67 K    -0.00000   -0.00272   -0.00599
 68 K    -0.00000   -0.00249    0.00286
 69 K     0.00070   -0.00042    0.00975
 70 K     0.00078    0.00021   -0.00030
 71 K    -0.00000    0.00034    0.00261
 72 K     0.00000    0.00000    3.94558

System changes: positions 

Initializing position-dependent things.

Density initialized from wave functions
           .------------------------------------------------------.  
          /|                                                      |  
         / |                                                      |  
        /  |                                                      |  
       /   |                                                      |  
      /    |                                                      |  
     /     |                                                      |  
    /      |                                                      |  
   /       |                                                      |  
  /        |                                                      |  
 *         |                                                      |  
 |         |                                                      |  
 |         |                                                      |  
 |         |                                                      |  
 |       K |                K                 K                   |  
 |         |                                                      |  
 |         |     K                 K                 K            |  
 |         |            K                  K                 K    |  
 |         |      K                  K                 K          |  
 |        K| K                  K                 K               |  
 |         |              K                 K                  K  |  
 | K       |         K                 K                          |  
 |         |   K             K    K            K    K             |  
 |       KK|           K    K            K    K            K      |  
 |         |                                                      |  
 |         |K    K            K    K            K    K            |  
 |    K    |            K                  K                      |  
 K         |       K                 KK                K          |  
 |         | K                  K                 K               |  
 |      K  |              K                 K                     |  
 | K       |         K                 K                          |  
 |        K|   K             K   K             K    K             |  
 |  K      |           K                 K                        |  
 |         |                                                      |  
 |         |K                 K                  K                |  
 |         |                                                      |  
 K         |       K                  K                           |  
 |         |                                                      |  
 |         .------------------------------------------------------.  
 |        /                                                      /   
 |       /                                                      /    
 |      /                                                      /     
 |     /                                                      /      
 |    /                                                      /       
 |   /                                                      /        
 |  /                                                      /         
 | /                                                      /          
 |/                                                      /           
 *------------------------------------------------------*            

Atomic positions and initial magnetic moments

Positions:
   0 K      0.000000    0.000000   10.000000    ( 0.0000,  0.0000,  0.0000)
   1 K      3.698168    2.615000   10.000000    ( 0.0000,  0.0000,  0.0000)
   2 K      3.698168    0.000000   13.698168    ( 0.0000,  0.0000,  0.0000)
   3 K      0.000000    2.615000   13.698168    ( 0.0000,  0.0000,  0.0000)
   4 K      0.000174   -0.000000   17.396582    ( 0.0000,  0.0000,  0.0000)
   5 K      3.698168    2.615103   17.396130    ( 0.0000,  0.0000,  0.0000)
   6 K      3.698168    0.000000   20.828051    ( 0.0000,  0.0000,  0.0000)
   7 K      0.000871    2.614393   21.095269    ( 0.0000,  0.0000,  0.0000)
   8 K      0.000000    5.230000   10.000000    ( 0.0000,  0.0000,  0.0000)
   9 K      3.698168    7.845000   10.000000    ( 0.0000,  0.0000,  0.0000)
  10 K      3.698168    5.230000   13.698168    ( 0.0000,  0.0000,  0.0000)
  11 K      0.000000    7.845000   13.698168    ( 0.0000,  0.0000,  0.0000)
  12 K     -0.000042    5.229977   17.396601    ( 0.0000,  0.0000,  0.0000)
  13 K      3.698168    7.845000   17.396687    ( 0.0000,  0.0000,  0.0000)
  14 K      3.698168    5.228682   21.095133    ( 0.0000,  0.0000,  0.0000)
  15 K     -0.000115    7.845000   21.094329    ( 0.0000,  0.0000,  0.0000)
  16 K      0.000000   10.460000   10.000000    ( 0.0000,  0.0000,  0.0000)
  17 K      3.698168   13.075000   10.000000    ( 0.0000,  0.0000,  0.0000)
  18 K      3.698168   10.460000   13.698168    ( 0.0000,  0.0000,  0.0000)
  19 K      0.000000   13.075000   13.698168    ( 0.0000,  0.0000,  0.0000)
  20 K     -0.000042   10.460023   17.396601    ( 0.0000,  0.0000,  0.0000)
  21 K      3.698168   13.074897   17.396130    ( 0.0000,  0.0000,  0.0000)
  22 K      3.698168   10.461318   21.095133    ( 0.0000,  0.0000,  0.0000)
  23 K      0.000871   13.075607   21.095269    ( 0.0000,  0.0000,  0.0000)
  24 K      7.396337    0.000000   10.000000    ( 0.0000,  0.0000,  0.0000)
  25 K     11.094505    2.615000   10.000000    ( 0.0000,  0.0000,  0.0000)
  26 K     11.094505    0.000000   13.698168    ( 0.0000,  0.0000,  0.0000)
  27 K      7.396337    2.615000   13.698168    ( 0.0000,  0.0000,  0.0000)
  28 K      7.396163   -0.000000   17.396582    ( 0.0000,  0.0000,  0.0000)
  29 K     11.094510    2.615010   17.396615    ( 0.0000,  0.0000,  0.0000)
  30 K     11.094629    0.000000   21.094392    ( 0.0000,  0.0000,  0.0000)
  31 K      7.395466    2.614393   21.095269    ( 0.0000,  0.0000,  0.0000)
  32 K      7.396337    5.230000   10.000000    ( 0.0000,  0.0000,  0.0000)
  33 K     11.094505    7.845000   10.000000    ( 0.0000,  0.0000,  0.0000)
  34 K     11.094505    5.230000   13.698168    ( 0.0000,  0.0000,  0.0000)
  35 K      7.396337    7.845000   13.698168    ( 0.0000,  0.0000,  0.0000)
  36 K      7.396379    5.229977   17.396601    ( 0.0000,  0.0000,  0.0000)
  37 K     11.094534    7.845000   17.396571    ( 0.0000,  0.0000,  0.0000)
  38 K     11.094530    5.230037   21.094413    ( 0.0000,  0.0000,  0.0000)
  39 K      7.396452    7.845000   21.094329    ( 0.0000,  0.0000,  0.0000)
  40 K      7.396337   10.460000   10.000000    ( 0.0000,  0.0000,  0.0000)
  41 K     11.094505   13.075000   10.000000    ( 0.0000,  0.0000,  0.0000)
  42 K     11.094505   10.460000   13.698168    ( 0.0000,  0.0000,  0.0000)
  43 K      7.396337   13.075000   13.698168    ( 0.0000,  0.0000,  0.0000)
  44 K      7.396379   10.460023   17.396601    ( 0.0000,  0.0000,  0.0000)
  45 K     11.094510   13.074990   17.396615    ( 0.0000,  0.0000,  0.0000)
  46 K     11.094530   10.459963   21.094413    ( 0.0000,  0.0000,  0.0000)
  47 K      7.395466   13.075607   21.095269    ( 0.0000,  0.0000,  0.0000)
  48 K     14.792674    0.000000   10.000000    ( 0.0000,  0.0000,  0.0000)
  49 K     18.490842    2.615000   10.000000    ( 0.0000,  0.0000,  0.0000)
  50 K     18.490842    0.000000   13.698168    ( 0.0000,  0.0000,  0.0000)
  51 K     14.792674    2.615000   13.698168    ( 0.0000,  0.0000,  0.0000)
  52 K     14.792674    0.000000   17.396626    ( 0.0000,  0.0000,  0.0000)
  53 K     18.490838    2.615010   17.396615    ( 0.0000,  0.0000,  0.0000)
  54 K     18.490719   -0.000000   21.094392    ( 0.0000,  0.0000,  0.0000)
  55 K     14.792674    2.614973   21.094489    ( 0.0000,  0.0000,  0.0000)
  56 K     14.792674    5.230000   10.000000    ( 0.0000,  0.0000,  0.0000)
  57 K     18.490842    7.845000   10.000000    ( 0.0000,  0.0000,  0.0000)
  58 K     18.490842    5.230000   13.698168    ( 0.0000,  0.0000,  0.0000)
  59 K     14.792674    7.845000   13.698168    ( 0.0000,  0.0000,  0.0000)
  60 K     14.792674    5.230032   17.396512    ( 0.0000,  0.0000,  0.0000)
  61 K     18.490814    7.845000   17.396571    ( 0.0000,  0.0000,  0.0000)
  62 K     18.490818    5.230037   21.094413    ( 0.0000,  0.0000,  0.0000)
  63 K     14.792674    7.845000   21.094510    ( 0.0000,  0.0000,  0.0000)
  64 K     14.792674   10.460000   10.000000    ( 0.0000,  0.0000,  0.0000)
  65 K     18.490842   13.075000   10.000000    ( 0.0000,  0.0000,  0.0000)
  66 K     18.490842   10.460000   13.698168    ( 0.0000,  0.0000,  0.0000)
  67 K     14.792674   13.075000   13.698168    ( 0.0000,  0.0000,  0.0000)
  68 K     14.792674   10.459968   17.396512    ( 0.0000,  0.0000,  0.0000)
  69 K     18.490838   13.074990   17.396615    ( 0.0000,  0.0000,  0.0000)
  70 K     18.490818   10.459963   21.094413    ( 0.0000,  0.0000,  0.0000)
  71 K     14.792674   13.075027   21.094489    ( 0.0000,  0.0000,  0.0000)
  72 K      3.698168    0.000000   23.357227    ( 0.0000,  0.0000,  0.0000)

Unit cell:
           periodic     x           y           z      points  spacing
  1. axis:    yes   22.189011    0.000000    0.000000    75     0.2959
  2. axis:    yes    0.000000   15.690000    0.000000    54     0.2906
  3. axis:    no     0.000000    0.000000   31.094505   105     0.2961

  Lengths:  22.189011  15.690000  31.094505
  Angles:   90.000000  90.000000  90.000000

Effective grid spacing dv^(1/3) = 0.2942

     iter     time        total  log10-change:
                         energy   eigst   dens
iter:   1 08:54:29   -36.811166   -3.44
iter:   2 08:54:56   -36.793227   -4.29  -2.69
iter:   3 08:55:22   -36.789723c  -4.70  -2.90
iter:   4 08:55:48   -36.789212c  -5.10  -3.36
iter:   5 08:56:14   -36.788838c  -5.71c -3.52
iter:   6 08:56:40   -36.788478c  -5.94c -3.67
iter:   7 08:57:06   -36.788883c  -6.09c -3.58
iter:   8 08:57:33   -36.788813c  -6.98c -3.87
iter:   9 08:57:59   -36.788643c  -7.06c -3.92
iter:  10 08:58:26   -36.788703c  -7.73c -4.18c

Converged after 10 iterations.

Dipole moment: (-0.087138, -0.000000, 0.191227) |e|*Ang

Energy contributions relative to reference atoms: (reference = -1195904.484944)

Kinetic:       +233.595955
Potential:     -227.916592
External:        +0.000000
XC:             -73.686093
Entropy (-ST):   -2.056061
Local:          +32.246057
SIC:             +0.000000
--------------------------
Free energy:    -37.816734
Extrapolated:   -36.788703

 Band  Eigenvalues  Occupancy
    0    -34.23429    2.00000
    1    -33.51614    2.00000
    2    -33.01750    2.00000
    3    -33.01733    2.00000
    4    -33.01225    2.00000
    5    -33.01216    2.00000
    6    -33.01007    2.00000
    7    -33.00998    2.00000
    8    -33.00987    2.00000
    9    -33.00939    2.00000
   10    -33.00928    2.00000
   11    -33.00923    2.00000
   12    -33.00914    2.00000
   13    -33.00891    2.00000
   14    -33.00888    2.00000
   15    -33.00872    2.00000
   16    -33.00845    2.00000
   17    -33.00833    2.00000
   18    -33.00831    2.00000
   19    -33.00789    2.00000
   20    -33.00755    2.00000
   21    -33.00707    2.00000
   22    -33.00690    2.00000
   23    -33.00654    2.00000
   24    -33.00646    2.00000
   25    -33.00602    2.00000
   26    -33.00587    2.00000
   27    -33.00433    2.00000
   28    -33.00380    2.00000
   29    -33.00246    2.00000
   30    -33.00195    2.00000
   31    -32.98524    2.00000
   32    -32.98503    2.00000
   33    -32.94111    2.00000
   34    -32.94101    2.00000
   35    -32.94097    2.00000
   36    -32.94078    2.00000
   37    -32.80428    2.00000
   38    -32.80412    2.00000
   39    -32.80215    2.00000
   40    -32.80157    2.00000
   41    -32.80139    2.00000
   42    -32.80127    2.00000
   43    -32.80091    2.00000
   44    -32.80072    2.00000
   45    -32.80049    2.00000
   46    -32.80046    2.00000
   47    -32.80009    2.00000
   48    -32.80008    2.00000
   49    -32.79990    2.00000
   50    -32.79967    2.00000
   51    -32.79941    2.00000
   52    -32.79896    2.00000
   53    -32.79878    2.00000
   54    -32.79872    2.00000
   55    -32.79855    2.00000
   56    -32.79827    2.00000
   57    -32.79824    2.00000
   58    -32.79790    2.00000
   59    -32.79775    2.00000
   60    -32.79738    2.00000
   61    -32.79734    2.00000
   62    -32.79719    2.00000
   63    -32.79598    2.00000
   64    -32.79590    2.00000
   65    -32.79561    2.00000
   66    -32.79544    2.00000
   67    -32.79536    2.00000
   68    -32.79380    2.00000
   69    -32.78360    2.00000
   70    -32.78321    2.00000
   71    -32.78046    2.00000
   72    -32.78003    2.00000
   73    -18.54028    2.00000
   74    -17.53411    2.00000
   75    -17.53295    2.00000
   76    -16.90119    2.00000
   77    -16.90081    2.00000
   78    -16.46965    2.00000
   79    -16.46839    2.00000
   80    -16.46827    2.00000
   81    -16.46756    2.00000
   82    -16.46481    2.00000
   83    -16.46468    2.00000
   84    -16.46460    2.00000
   85    -16.46404    2.00000
   86    -16.46380    2.00000
   87    -16.46335    2.00000
   88    -16.46317    2.00000
   89    -16.46316    2.00000
   90    -16.46291    2.00000
   91    -16.46282    2.00000
   92    -16.46216    2.00000
   93    -16.46202    2.00000
   94    -16.46163    2.00000
   95    -16.46143    2.00000
   96    -16.46134    2.00000
   97    -16.46086    2.00000
   98    -16.46079    2.00000
   99    -16.46044    2.00000
  100    -16.46033    2.00000
  101    -16.45989    2.00000
  102    -16.45981    2.00000
  103    -16.45956    2.00000
  104    -16.45934    2.00000
  105    -16.45901    2.00000
  106    -16.45860    2.00000
  107    -16.45832    2.00000
  108    -16.45821    2.00000
  109    -16.45799    2.00000
  110    -16.45757    2.00000
  111    -16.45705    2.00000
  112    -16.45689    2.00000
  113    -16.45667    2.00000
  114    -16.45606    2.00000
  115    -16.45592    2.00000
  116    -16.45586    2.00000
  117    -16.45544    2.00000
  118    -16.45538    2.00000
  119    -16.45428    2.00000
  120    -16.45243    2.00000
  121    -16.45234    2.00000
  122    -16.45145    2.00000
  123    -16.45113    2.00000
  124    -16.45096    2.00000
  125    -16.45007    2.00000
  126    -16.44950    2.00000
  127    -16.44865    2.00000
  128    -16.44502    2.00000
  129    -16.44129    2.00000
  130    -16.44099    2.00000
  131    -16.44034    2.00000
  132    -16.43966    2.00000
  133    -16.43908    2.00000
  134    -16.43828    2.00000
  135    -16.43818    2.00000
  136    -16.43693    2.00000
  137    -16.43672    2.00000
  138    -16.43629    2.00000
  139    -16.43554    2.00000
  140    -16.43547    2.00000
  141    -16.43507    2.00000
  142    -16.43397    2.00000
  143    -16.43296    2.00000
  144    -16.43201    2.00000
  145    -16.42900    2.00000
  146    -16.42683    2.00000
  147    -16.42628    2.00000
  148    -16.42464    2.00000
  149    -16.42380    2.00000
  150    -16.42357    2.00000
  151    -16.42313    2.00000
  152    -16.42206    2.00000
  153    -16.42175    2.00000
  154    -16.42098    2.00000
  155    -16.42073    2.00000
  156    -16.41991    2.00000
  157    -16.41865    2.00000
  158    -16.41730    2.00000
  159    -16.41653    2.00000
  160    -16.41596    2.00000
  161    -16.41558    2.00000
  162    -16.41431    2.00000
  163    -16.41325    2.00000
  164    -16.41304    2.00000
  165    -16.41283    2.00000
  166    -16.41252    2.00000
  167    -16.41116    2.00000
  168    -16.40924    2.00000
  169    -16.40642    2.00000
  170    -16.40528    2.00000
  171    -16.39319    2.00000
  172    -16.39306    2.00000
  173    -16.39233    2.00000
  174    -16.39213    2.00000
  175    -16.37704    2.00000
  176    -16.37190    2.00000
  177    -16.37058    2.00000
  178    -16.36997    2.00000
  179    -16.36892    2.00000
  180    -16.36430    2.00000
  181    -16.36387    2.00000
  182    -16.36148    2.00000
  183    -16.36121    2.00000
  184    -16.27408    2.00000
  185    -16.27105    2.00000
  186    -16.26938    2.00000
  187    -16.26881    2.00000
  188    -16.26818    2.00000
  189    -16.26764    2.00000
  190    -16.26712    2.00000
  191    -16.26643    2.00000
  192    -16.26576    2.00000
  193    -16.26469    2.00000
  194    -16.26452    2.00000
  195    -16.26344    2.00000
  196    -16.26257    2.00000
  197    -16.26213    2.00000
  198    -16.26101    2.00000
  199    -16.25948    2.00000
  200    -16.25924    2.00000
  201    -16.25846    2.00000
  202    -16.25787    2.00000
  203    -16.25704    2.00000
  204    -16.25692    2.00000
  205    -16.25649    2.00000
  206    -16.25537    2.00000
  207    -16.25495    2.00000
  208    -16.25425    2.00000
  209    -16.25367    2.00000
  210    -16.25317    2.00000
  211    -16.25247    2.00000
  212    -16.25198    2.00000
  213    -16.25083    2.00000
  214    -16.25033    2.00000
  215    -16.24937    2.00000
  216    -16.24841    2.00000
  217    -16.24777    2.00000
  218    -16.24656    2.00000
  219    -16.24572    2.00000
  220    -16.24547    2.00000
  221    -16.24524    2.00000
  222    -16.24396    2.00000
  223    -16.24355    2.00000
  224    -16.24226    2.00000
  225    -16.24106    2.00000
  226    -16.24078    2.00000
  227    -16.24013    2.00000
  228    -16.23923    2.00000
  229    -16.23872    2.00000
  230    -16.23791    2.00000
  231    -16.23722    2.00000
  232    -16.23687    2.00000
  233    -16.23584    2.00000
  234    -16.23560    2.00000
  235    -16.23544    2.00000
  236    -16.23415    2.00000
  237    -16.23347    2.00000
  238    -16.23320    2.00000
  239    -16.23288    2.00000
  240    -16.23248    2.00000
  241    -16.23191    2.00000
  242    -16.23133    2.00000
  243    -16.23070    2.00000
  244    -16.22988    2.00000
  245    -16.22946    2.00000
  246    -16.22831    2.00000
  247    -16.22801    2.00000
  248    -16.22770    2.00000
  249    -16.22695    2.00000
  250    -16.22612    2.00000
  251    -16.22587    2.00000
  252    -16.22491    2.00000
  253    -16.22442    2.00000
  254    -16.22413    2.00000
  255    -16.22373    2.00000
  256    -16.22266    2.00000
  257    -16.22232    2.00000
  258    -16.22155    2.00000
  259    -16.22128    2.00000
  260    -16.22092    2.00000
  261    -16.22034    2.00000
  262    -16.22023    2.00000
  263    -16.21999    2.00000
  264    -16.21979    2.00000
  265    -16.21942    2.00000
  266    -16.21885    2.00000
  267    -16.21855    2.00000
  268    -16.21823    2.00000
  269    -16.21759    2.00000
  270    -16.21738    2.00000
  271    -16.21733    2.00000
  272    -16.21675    2.00000
  273    -16.21655    2.00000
  274    -16.21604    2.00000
  275    -16.21592    2.00000
  276    -16.21540    2.00000
  277    -16.21507    2.00000
  278    -16.21442    2.00000
  279    -16.21426    2.00000
  280    -16.21382    2.00000
  281    -16.21316    2.00000
  282    -16.21212    2.00000
  283    -16.21107    2.00000
  284    -16.21078    2.00000
  285    -16.21009    2.00000
  286    -16.20957    2.00000
  287    -16.20887    2.00000
  288    -16.20497    2.00000
  289    -16.20291    2.00000
  290    -16.20211    2.00000
  291    -16.19906    2.00000
  292     -2.65797    2.00000
  293     -2.48401    2.00000
  294     -2.31636    2.00000
  295     -2.29283    2.00000
  296     -2.15073    2.00000
  297     -2.13881    2.00000
  298     -2.11982    2.00000
  299     -1.95707    2.00000
  300     -1.81893    1.99998
  301     -1.79726    1.99998
  302     -1.77944    1.99998
  303     -1.68298    1.99994
  304     -1.65065    1.99992
  305     -1.64763    1.99992
  306     -1.51890    1.99969
  307     -1.49113    1.99960
  308     -1.46501    1.99948
  309     -1.35543    1.99843
  310     -1.33202    1.99802
  311     -1.31086    1.99755
  312     -1.29957    1.99726
  313     -1.20418    1.99290
  314     -1.18242    1.99118
  315     -1.17287    1.99030
  316     -1.15275    1.98815
  317     -1.03319    1.96135
  318     -1.00088    1.94700
  319     -0.93427    1.89936
  320     -0.86549    1.80927
  321     -0.85535    1.79106
  322     -0.76783    1.56261
  323     -0.73947    1.45802
  324     -0.73315    1.43273
  325     -0.73116    1.42459
  326     -0.71308    1.34773
  327     -0.70709    1.32117
  328     -0.69992    1.28863
  329     -0.59861    0.79356
  330     -0.58876    0.74688
  331     -0.56998    0.66130
  332     -0.45500    0.27056
  333     -0.43506    0.22721
  334     -0.42695    0.21139
  335     -0.41752    0.19420
  336     -0.40746    0.17727
  337     -0.40098    0.16707
  338     -0.32417    0.08113
  339     -0.31141    0.07177
  340     -0.29559    0.06159
  341     -0.28400    0.05503
  342     -0.17836    0.01949
  343     -0.16588    0.01722
  344     -0.13657    0.01287
  345     -0.09132    0.00821
  346     -0.04338    0.00509
  347     -0.03688    0.00477
  348     -0.01770    0.00394
  349      0.01797    0.00276
  350      0.03064    0.00243
  351      0.08566    0.00140
  352      0.10195    0.00119
  353      0.10773    0.00113
  354      0.11967    0.00100
  355      0.13054    0.00090
  356      0.15400    0.00071
  357      0.17597    0.00057
  358      0.20582    0.00042
  359      0.23350    0.00032
  360      0.25704    0.00025
  361      0.28289    0.00020
  362      0.29025    0.00018
  363      0.30878    0.00015
  364      0.34942    0.00010

Fermi level: -0.64050

Gap: 0.101 eV
Transition (v -> c):
  (s=0, k=0, n=328, [0.25, 0.25, 0.00]) -> (s=0, k=0, n=329, [0.25, 0.25, 0.00])
No difference between direct/indirect transitions

Forces in eV/Ang:
  0 K     0.00202    0.00000   -0.00207
  1 K     0.00000   -0.00044   -0.00072
  2 K     0.00000    0.00000    0.00078
  3 K     0.00122   -0.00143   -0.00548
  4 K    -0.00327    0.00000   -0.00259
  5 K    -0.00000    0.02554   -0.03743
  6 K     0.00000    0.00000   -2.55422
  7 K     0.01559   -0.01141    0.02312
  8 K     0.00039   -0.00056   -0.00175
  9 K     0.00000    0.00000   -0.00244
 10 K    -0.00000   -0.00433   -0.00628
 11 K    -0.00113    0.00000   -0.00692
 12 K     0.00040   -0.00365    0.00873
 13 K    -0.00000    0.00000    0.01232
 14 K    -0.00000   -0.02841    0.01826
 15 K    -0.00185    0.00000   -0.00345
 16 K     0.00039    0.00056   -0.00175
 17 K     0.00000    0.00044   -0.00072
 18 K    -0.00000    0.00433   -0.00628
 19 K     0.00122    0.00143   -0.00548
 20 K     0.00040    0.00365    0.00873
 21 K    -0.00000   -0.02554   -0.03743
 22 K    -0.00000    0.02841    0.01826
 23 K     0.01559    0.01141    0.02312
 24 K    -0.00202    0.00000   -0.00207
 25 K    -0.00033    0.00128   -0.00136
 26 K    -0.00088    0.00000   -0.00555
 27 K    -0.00122   -0.00143   -0.00548
 28 K     0.00327    0.00000   -0.00259
 29 K    -0.00211   -0.00111    0.00885
 30 K     0.00164    0.00000   -0.00211
 31 K    -0.01559   -0.01141    0.02312
 32 K    -0.00039   -0.00056   -0.00175
 33 K     0.00126    0.00000    0.00034
 34 K     0.00211    0.00098   -0.00745
 35 K     0.00113    0.00000   -0.00692
 36 K    -0.00040   -0.00365    0.00873
 37 K    -0.00010    0.00000    0.00651
 38 K    -0.00089   -0.00054   -0.00042
 39 K     0.00185    0.00000   -0.00345
 40 K    -0.00039    0.00056   -0.00175
 41 K    -0.00033   -0.00128   -0.00136
 42 K     0.00211   -0.00098   -0.00745
 43 K    -0.00122    0.00143   -0.00548
 44 K    -0.00040    0.00365    0.00873
 45 K    -0.00211    0.00111    0.00885
 46 K    -0.00089    0.00054   -0.00042
 47 K    -0.01559    0.01141    0.02312
 48 K    -0.00000    0.00000   -0.00010
 49 K     0.00033    0.00128   -0.00136
 50 K     0.00088    0.00000   -0.00555
 51 K    -0.00000    0.00243   -0.00677
 52 K     0.00000    0.00000    0.00798
 53 K     0.00211   -0.00111    0.00885
 54 K    -0.00164    0.00000   -0.00211
 55 K    -0.00000   -0.00145    0.00175
 56 K    -0.00000    0.00203    0.00033
 57 K    -0.00126    0.00000    0.00034
 58 K    -0.00211    0.00098   -0.00745
 59 K    -0.00000    0.00000   -0.00755
 60 K    -0.00000   -0.00005    0.00437
 61 K     0.00010    0.00000    0.00651
 62 K     0.00089   -0.00054   -0.00042
 63 K    -0.00000    0.00000    0.00273
 64 K    -0.00000   -0.00203    0.00033
 65 K     0.00033   -0.00128   -0.00136
 66 K    -0.00211   -0.00098   -0.00745
 67 K    -0.00000   -0.00243   -0.00677
 68 K    -0.00000    0.00005    0.00437
 69 K     0.00211    0.00111    0.00885
 70 K     0.00089    0.00054   -0.00042
 71 K    -0.00000    0.00145    0.00175
 72 K    -0.00000    0.00000    2.46227

System changes: positions 

Initializing position-dependent things.

Density initialized from wave functions
           .------------------------------------------------------.  
          /|                                                      |  
         / |                                                      |  
        /  |                                                      |  
       /   |                                                      |  
      /    |                                                      |  
     /     |                                                      |  
    /      |                                                      |  
   /       |                                                      |  
  /        |                                                      |  
 *         |                                                      |  
 |         |                                                      |  
 |         |                                                      |  
 |         |                                                      |  
[...]
  Angles:   90.000000  90.000000  90.000000

Effective grid spacing dv^(1/3) = 0.2942

     iter     time        total  log10-change:
                         energy   eigst   dens
iter:   1 10:53:13   -37.949480   -3.57
iter:   2 10:53:39   -37.944793   -4.83  -2.90
iter:   3 10:54:04   -37.943070c  -5.32c -3.19
iter:   4 10:54:31   -37.942300c  -5.69c -3.26
iter:   5 10:54:58   -37.942990c  -5.70c -3.38
iter:   6 10:55:26   -37.942902c  -5.64c -3.48
iter:   7 10:55:52   -37.942369c  -6.52c -3.54
iter:   8 10:56:17   -37.942443c  -7.23c -3.89
iter:   9 10:56:42   -37.942521c  -7.29c -3.96
iter:  10 10:57:08   -37.942487c  -7.68c -4.14c

Converged after 10 iterations.

Dipole moment: (-18.875596, 0.000000, 0.361329) |e|*Ang

Energy contributions relative to reference atoms: (reference = -1195904.484944)

Kinetic:       +227.471989
Potential:     -224.534926
External:        +0.000000
XC:             -72.181539
Entropy (-ST):   -2.062025
Local:          +32.333001
SIC:             +0.000000
--------------------------
Free energy:    -38.973499
Extrapolated:   -37.942487

 Band  Eigenvalues  Occupancy
    0    -33.47519    2.00000
    1    -33.00995    2.00000
    2    -33.00968    2.00000
    3    -33.00576    2.00000
    4    -33.00555    2.00000
    5    -33.00535    2.00000
    6    -33.00512    2.00000
    7    -33.00493    2.00000
    8    -33.00395    2.00000
    9    -33.00379    2.00000
   10    -33.00345    2.00000
   11    -33.00308    2.00000
   12    -33.00223    2.00000
   13    -33.00202    2.00000
   14    -33.00129    2.00000
   15    -33.00086    2.00000
   16    -33.00070    2.00000
   17    -33.00058    2.00000
   18    -33.00042    2.00000
   19    -33.00003    2.00000
   20    -32.99962    2.00000
   21    -32.99942    2.00000
   22    -32.99934    2.00000
   23    -32.99914    2.00000
   24    -32.99833    2.00000
   25    -32.99817    2.00000
   26    -32.99782    2.00000
   27    -32.99747    2.00000
   28    -32.99562    2.00000
   29    -32.99519    2.00000
   30    -32.99309    2.00000
   31    -32.99266    2.00000
   32    -32.98111    2.00000
   33    -32.98105    2.00000
   34    -32.98103    2.00000
   35    -32.98098    2.00000
   36    -32.84944    2.00000
   37    -32.80736    2.00000
   38    -32.80722    2.00000
   39    -32.80308    2.00000
   40    -32.80296    2.00000
   41    -32.80293    2.00000
   42    -32.80270    2.00000
   43    -32.79964    2.00000
   44    -32.79956    2.00000
   45    -32.79829    2.00000
   46    -32.79818    2.00000
   47    -32.79804    2.00000
   48    -32.79775    2.00000
   49    -32.79422    2.00000
   50    -32.79408    2.00000
   51    -32.79379    2.00000
   52    -32.79357    2.00000
   53    -32.79340    2.00000
   54    -32.79274    2.00000
   55    -32.79267    2.00000
   56    -32.79197    2.00000
   57    -32.79125    2.00000
   58    -32.79116    2.00000
   59    -32.79110    2.00000
   60    -32.79078    2.00000
   61    -32.79046    2.00000
   62    -32.79016    2.00000
   63    -32.78817    2.00000
   64    -32.78806    2.00000
   65    -32.78223    2.00000
   66    -32.78207    2.00000
   67    -32.78195    2.00000
   68    -32.78187    2.00000
   69    -32.78179    2.00000
   70    -32.77812    2.00000
   71    -32.77769    2.00000
   72    -32.77756    2.00000
   73    -16.92025    2.00000
   74    -16.89680    2.00000
   75    -16.89641    2.00000
   76    -16.46405    2.00000
   77    -16.46144    2.00000
   78    -16.46134    2.00000
   79    -16.46086    2.00000
   80    -16.45981    2.00000
   81    -16.45864    2.00000
   82    -16.45761    2.00000
   83    -16.45673    2.00000
   84    -16.45651    2.00000
   85    -16.45649    2.00000
   86    -16.45627    2.00000
   87    -16.45571    2.00000
   88    -16.45531    2.00000
   89    -16.45486    2.00000
   90    -16.45473    2.00000
   91    -16.45443    2.00000
   92    -16.45427    2.00000
   93    -16.45425    2.00000
   94    -16.45414    2.00000
   95    -16.45412    2.00000
   96    -16.45404    2.00000
   97    -16.45400    2.00000
   98    -16.45302    2.00000
   99    -16.45276    2.00000
  100    -16.45222    2.00000
  101    -16.45215    2.00000
  102    -16.45201    2.00000
  103    -16.45197    2.00000
  104    -16.45114    2.00000
  105    -16.45110    2.00000
  106    -16.45095    2.00000
  107    -16.45066    2.00000
  108    -16.45062    2.00000
  109    -16.44989    2.00000
  110    -16.44983    2.00000
  111    -16.44952    2.00000
  112    -16.44913    2.00000
  113    -16.44893    2.00000
  114    -16.44873    2.00000
  115    -16.44817    2.00000
  116    -16.44795    2.00000
  117    -16.44767    2.00000
  118    -16.44748    2.00000
  119    -16.44646    2.00000
  120    -16.44628    2.00000
  121    -16.44500    2.00000
  122    -16.44388    2.00000
  123    -16.44383    2.00000
  124    -16.44284    2.00000
  125    -16.44281    2.00000
  126    -16.44264    2.00000
  127    -16.44205    2.00000
  128    -16.44166    2.00000
  129    -16.44098    2.00000
  130    -16.43696    2.00000
  131    -16.43509    2.00000
  132    -16.43395    2.00000
  133    -16.43292    2.00000
  134    -16.43247    2.00000
  135    -16.43216    2.00000
  136    -16.43166    2.00000
  137    -16.43118    2.00000
  138    -16.43010    2.00000
  139    -16.42970    2.00000
  140    -16.42957    2.00000
  141    -16.42915    2.00000
  142    -16.42851    2.00000
  143    -16.42795    2.00000
  144    -16.42769    2.00000
  145    -16.42714    2.00000
  146    -16.42679    2.00000
  147    -16.42635    2.00000
  148    -16.42427    2.00000
  149    -16.42356    2.00000
  150    -16.42213    2.00000
  151    -16.42054    2.00000
  152    -16.41831    2.00000
  153    -16.41803    2.00000
  154    -16.41780    2.00000
  155    -16.41765    2.00000
  156    -16.41622    2.00000
  157    -16.41591    2.00000
  158    -16.41513    2.00000
  159    -16.41407    2.00000
  160    -16.41340    2.00000
  161    -16.41264    2.00000
  162    -16.41244    2.00000
  163    -16.41165    2.00000
  164    -16.40913    2.00000
  165    -16.40818    2.00000
  166    -16.40777    2.00000
  167    -16.40680    2.00000
  168    -16.40453    2.00000
  169    -16.40433    2.00000
  170    -16.40409    2.00000
  171    -16.40396    2.00000
  172    -16.40371    2.00000
  173    -16.40335    2.00000
  174    -16.40251    2.00000
  175    -16.40245    2.00000
  176    -16.40187    2.00000
  177    -16.40096    2.00000
  178    -16.40053    2.00000
  179    -16.39855    2.00000
  180    -16.39722    2.00000
  181    -16.32155    2.00000
  182    -16.31035    2.00000
  183    -16.28642    2.00000
  184    -16.27111    2.00000
  185    -16.26847    2.00000
  186    -16.26699    2.00000
  187    -16.26650    2.00000
  188    -16.26530    2.00000
  189    -16.26495    2.00000
  190    -16.26401    2.00000
  191    -16.26315    2.00000
  192    -16.26198    2.00000
  193    -16.26159    2.00000
  194    -16.26106    2.00000
  195    -16.26064    2.00000
  196    -16.25983    2.00000
  197    -16.25875    2.00000
  198    -16.25794    2.00000
  199    -16.25712    2.00000
  200    -16.25609    2.00000
  201    -16.25546    2.00000
  202    -16.25493    2.00000
  203    -16.25354    2.00000
  204    -16.25336    2.00000
  205    -16.25263    2.00000
  206    -16.25172    2.00000
  207    -16.25082    2.00000
  208    -16.25036    2.00000
  209    -16.24980    2.00000
  210    -16.24932    2.00000
  211    -16.24889    2.00000
  212    -16.24843    2.00000
  213    -16.24601    2.00000
  214    -16.24512    2.00000
  215    -16.24422    2.00000
  216    -16.24382    2.00000
  217    -16.24298    2.00000
  218    -16.24197    2.00000
  219    -16.24069    2.00000
  220    -16.23983    2.00000
  221    -16.23971    2.00000
  222    -16.23899    2.00000
  223    -16.23869    2.00000
  224    -16.23823    2.00000
  225    -16.23719    2.00000
  226    -16.23627    2.00000
  227    -16.23432    2.00000
  228    -16.23389    2.00000
  229    -16.23351    2.00000
  230    -16.23225    2.00000
  231    -16.23181    2.00000
  232    -16.23139    2.00000
  233    -16.23113    2.00000
  234    -16.23064    2.00000
  235    -16.22986    2.00000
  236    -16.22939    2.00000
  237    -16.22864    2.00000
  238    -16.22821    2.00000
  239    -16.22755    2.00000
  240    -16.22675    2.00000
  241    -16.22640    2.00000
  242    -16.22614    2.00000
  243    -16.22550    2.00000
  244    -16.22512    2.00000
  245    -16.22418    2.00000
  246    -16.22337    2.00000
  247    -16.22275    2.00000
  248    -16.22215    2.00000
  249    -16.22189    2.00000
  250    -16.22146    2.00000
  251    -16.22118    2.00000
  252    -16.22020    2.00000
  253    -16.21954    2.00000
  254    -16.21895    2.00000
  255    -16.21831    2.00000
  256    -16.21782    2.00000
  257    -16.21746    2.00000
  258    -16.21713    2.00000
  259    -16.21678    2.00000
  260    -16.21609    2.00000
  261    -16.21520    2.00000
  262    -16.21481    2.00000
  263    -16.21442    2.00000
  264    -16.21374    2.00000
  265    -16.21344    2.00000
  266    -16.21307    2.00000
  267    -16.21243    2.00000
  268    -16.21180    2.00000
  269    -16.21139    2.00000
  270    -16.21116    2.00000
  271    -16.21079    2.00000
  272    -16.21066    2.00000
  273    -16.21003    2.00000
  274    -16.20975    2.00000
  275    -16.20910    2.00000
  276    -16.20851    2.00000
  277    -16.20827    2.00000
  278    -16.20767    2.00000
  279    -16.20727    2.00000
  280    -16.20679    2.00000
  281    -16.20574    2.00000
  282    -16.20518    2.00000
  283    -16.20509    2.00000
  284    -16.20421    2.00000
  285    -16.20362    2.00000
  286    -16.20321    2.00000
  287    -16.20274    2.00000
  288    -16.20139    2.00000
  289    -16.20042    2.00000
  290    -16.19981    2.00000
  291    -16.19634    2.00000
  292     -2.64565    2.00000
  293     -2.47158    2.00000
  294     -2.30093    2.00000
  295     -2.27571    2.00000
  296     -2.13563    2.00000
  297     -2.12789    2.00000
  298     -2.10389    2.00000
  299     -1.93850    2.00000
  300     -1.80285    1.99998
  301     -1.78035    1.99998
  302     -1.76453    1.99998
  303     -1.66999    1.99994
  304     -1.64148    1.99992
  305     -1.63660    1.99991
  306     -1.50448    1.99967
  307     -1.48140    1.99959
  308     -1.45033    1.99944
  309     -1.34163    1.99833
  310     -1.32235    1.99798
  311     -1.29595    1.99737
  312     -1.28478    1.99706
  313     -1.19024    1.99245
  314     -1.17118    1.99087
  315     -1.16959    1.99072
  316     -1.13833    1.98734
  317     -1.02186    1.95999
  318     -0.98556    1.94298
  319     -0.93337    1.90574
  320     -0.86068    1.81437
  321     -0.84062    1.77771
  322     -0.76625    1.58349
  323     -0.72774    1.44238
  324     -0.72228    1.42016
  325     -0.71990    1.41031
  326     -0.70624    1.35195
  327     -0.70120    1.32968
  328     -0.68653    1.26279
  329     -0.59834    0.82983
  330     -0.58207    0.75211
  331     -0.56290    0.66448
  332     -0.45888    0.29907
  333     -0.42749    0.22767
  334     -0.41027    0.19516
  335     -0.40327    0.18317
  336     -0.39824    0.17498
  337     -0.39279    0.16647
  338     -0.31300    0.07855
  339     -0.30102    0.06999
  340     -0.28876    0.06217
  341     -0.26825    0.05093
  342     -0.19914    0.02585
  343     -0.15573    0.01682
  344     -0.13728    0.01401
  345     -0.10114    0.00978
  346     -0.03009    0.00482
  347     -0.02082    0.00439
  348     -0.00240    0.00365
  349      0.01989    0.00293
  350      0.03405    0.00254
  351      0.09596    0.00137
  352      0.10081    0.00130
  353      0.11925    0.00108
  354      0.13670    0.00091
  355      0.13937    0.00089
  356      0.16043    0.00072
  357      0.18156    0.00058
  358      0.19542    0.00051
  359      0.25014    0.00029
  360      0.26865    0.00024
  361      0.29262    0.00019
  362      0.29550    0.00019
  363      0.29994    0.00018
  364      0.34511    0.00011

Fermi level: -0.63271

Gap: 0.088 eV
Transition (v -> c):
  (s=0, k=0, n=328, [0.25, 0.25, 0.00]) -> (s=0, k=0, n=329, [0.25, 0.25, 0.00])
No difference between direct/indirect transitions

Forces in eV/Ang:
  0 K     0.00114    0.00000    0.01417
  1 K     0.00000    0.00096    0.02797
  2 K     0.00000    0.00000   -0.01915
  3 K    -0.00163    0.00883   -0.03202
  4 K     0.00318    0.00000    0.00996
  5 K     0.00000   -0.01093    0.00039
  6 K     0.00000    0.00000   -0.01721
  7 K    -0.00049   -0.00135   -0.00749
  8 K     0.00187    0.00002   -0.01284
  9 K     0.00000    0.00000   -0.01188
 10 K     0.00000    0.03971   -0.07354
 11 K     0.00298    0.00000   -0.00089
 12 K    -0.00022   -0.00318    0.00669
 13 K     0.00000    0.00000    0.01020
 14 K    -0.00000    0.00151    0.00866
 15 K     0.00408    0.00000    0.02405
 16 K     0.00187   -0.00002   -0.01284
 17 K     0.00000   -0.00096    0.02797
 18 K     0.00000   -0.03971   -0.07354
 19 K    -0.00163   -0.00883   -0.03202
 20 K    -0.00022    0.00318    0.00669
 21 K     0.00000    0.01093    0.00039
 22 K    -0.00000   -0.00151    0.00866
 23 K    -0.00049    0.00135   -0.00749
 24 K    -0.00114    0.00000    0.01417
 25 K    -0.00133   -0.00112   -0.00625
 26 K     0.00154    0.00000   -0.01494
 27 K     0.00163    0.00883   -0.03202
 28 K    -0.00318    0.00000    0.00996
 29 K     0.00019   -0.00170    0.00426
 30 K     0.00107    0.00000    0.01895
 31 K     0.00049   -0.00135   -0.00749
 32 K    -0.00187    0.00002   -0.01284
 33 K    -0.00190    0.00000   -0.00381
 34 K    -0.00106    0.00101   -0.00870
 35 K    -0.00298    0.00000   -0.00089
 36 K     0.00022   -0.00318    0.00669
 37 K     0.00110    0.00000    0.00734
 38 K    -0.00242   -0.00010    0.01297
 39 K    -0.00408    0.00000    0.02405
 40 K    -0.00187   -0.00002   -0.01284
 41 K    -0.00133    0.00112   -0.00625
 42 K    -0.00106   -0.00101   -0.00870
 43 K     0.00163   -0.00883   -0.03202
 44 K     0.00022    0.00318    0.00669
 45 K     0.00019    0.00170    0.00426
 46 K    -0.00242    0.00010    0.01297
 47 K     0.00049    0.00135   -0.00749
 48 K    -0.00000    0.00000   -0.00556
 49 K     0.00133   -0.00112   -0.00625
 50 K    -0.00154    0.00000   -0.01494
 51 K    -0.00000   -0.00091   -0.01093
 52 K     0.00000    0.00000    0.00619
 53 K    -0.00019   -0.00170    0.00426
 54 K    -0.00107    0.00000    0.01895
 55 K    -0.00000    0.00042    0.01384
 56 K    -0.00000   -0.00178   -0.00613
 57 K     0.00190    0.00000   -0.00381
 58 K     0.00106    0.00101   -0.00870
 59 K    -0.00000    0.00000   -0.01153
 60 K    -0.00000    0.00080    0.00821
 61 K    -0.00110    0.00000    0.00734
 62 K     0.00242   -0.00010    0.01297
 63 K    -0.00000    0.00000    0.01579
 64 K    -0.00000    0.00178   -0.00613
 65 K     0.00133    0.00112   -0.00625
 66 K     0.00106   -0.00101   -0.00870
 67 K    -0.00000    0.00091   -0.01093
 68 K    -0.00000   -0.00080    0.00821
 69 K    -0.00019    0.00170    0.00426
 70 K     0.00242    0.00010    0.01297
 71 K    -0.00000   -0.00042    0.01384
 72 K     0.00000    0.00000   -0.00460

Timing:                                      incl.     excl.
-------------------------------------------------------------------
Density initialized from wave functions:    66.094    65.984   0.2% |
 Symmetrize density:                         0.110     0.110   0.0% |
Forces:                                    230.228   230.228   0.6% |
Hamiltonian:                               419.328     0.159   0.0% |
 Atomic:                                    21.194     0.053   0.0% |
  XC Correction:                            21.140    21.140   0.1% |
 Calculate atomic Hamiltonians:             22.899    22.899   0.1% |
 Communicate:                                0.000     0.000   0.0% |
 Initialize Hamiltonian:                     0.001     0.001   0.0% |
 Poisson:                                    0.225     0.225   0.0% |
 XC 3D grid:                               374.849   374.849   0.9% |
LCAO initialization:                        98.857     0.007   0.0% |
 LCAO eigensolver:                           0.223     0.001   0.0% |
  Calculate projections:                     0.014     0.014   0.0% |
  DenseAtomicCorrection:                     0.030     0.030   0.0% |
  Distribute overlap matrix:                 0.000     0.000   0.0% |
  Orbital Layouts:                           0.063     0.063   0.0% |
  Potential matrix:                          0.111     0.111   0.0% |
  Sum over cells:                            0.003     0.003   0.0% |
 LCAO to grid:                              98.426    98.426   0.2% |
 Set positions (LCAO WFS):                   0.202     0.058   0.0% |
  Basic WFS set positions:                   0.001     0.001   0.0% |
  Basis functions set positions:             0.000     0.000   0.0% |
  P tci:                                     0.097     0.097   0.0% |
  ST tci:                                    0.031     0.031   0.0% |
  mktci:                                     0.013     0.013   0.0% |
PWDescriptor:                                0.012     0.012   0.0% |
Redistribute:                                0.070     0.070   0.0% |
SCF-cycle:                                7506.646     0.231   0.0% |
 Davidson:                                6677.303   980.703   2.3% ||
  Apply H:                                2369.841  2363.496   5.7% |-|
   HMM T:                                    6.344     6.344   0.0% |
  Subspace diag:                           937.205     0.019   0.0% |
   calc_h_matrix:                          756.672   132.600   0.3% |
    Apply H:                               624.071   614.803   1.5% ||
     HMM T:                                  9.268     9.268   0.0% |
   diagonalize:                              6.161     6.161   0.0% |
   rotate_psi:                             174.353   174.353   0.4% |
  calc. matrices:                         2016.661   664.612   1.6% ||
   Apply H:                               1352.049  1336.901   3.2% ||
    HMM T:                                  15.148    15.148   0.0% |
  diagonalize:                              98.417    98.417   0.2% |
  rotate_psi:                              274.477   274.477   0.7% |
 Density:                                  420.867     0.002   0.0% |
  Atomic density matrices:                   0.772     0.772   0.0% |
  Mix:                                     142.489   142.489   0.3% |
  Multipole moments:                         0.080     0.080   0.0% |
  Pseudo density:                          277.523   276.784   0.7% |
   Symmetrize density:                       0.739     0.739   0.0% |
 Hamiltonian:                              362.314     0.787   0.0% |
  Atomic:                                  144.366     0.325   0.0% |
   XC Correction:                          144.041   144.041   0.3% |
  Calculate atomic Hamiltonians:           155.635   155.635   0.4% |
  Communicate:                               0.001     0.001   0.0% |
  Poisson:                                   0.765     0.765   0.0% |
  XC 3D grid:                               60.760    60.760   0.1% |
 Orthonormalize:                            45.931     0.005   0.0% |
  calc_s_matrix:                            10.053    10.053   0.0% |
  inverse-cholesky:                          0.183     0.183   0.0% |
  projections:                              23.213    23.213   0.1% |
  rotate_psi_s:                             12.477    12.477   0.0% |
Set symmetry:                                0.000     0.000   0.0% |
Other:                                   33473.244 33473.244  80.1% |-------------------------------|
-------------------------------------------------------------------
Total:                                             41794.480 100.0%

Memory usage: 5.62 GiB
Date: Mon Nov 24 20:13:44 2025
