73
Lattice="22.189010793633862 0.0 0.0 0.0 15.690000000000001 0.0 0.0 0.0 31.09450539681693" Properties=species:S:1:pos:R:3:move_mask:L:1:tags:I:1:forces:R:3:magmoms:R:1 energy=-37.942487032118756 dipole="-18.87559564627168 3.79387731674993e-13 0.3613291339454738" magmom=0.0 free_energy=-38.97349934326234 pbc="T T F"
K        0.00000000       0.00000000      10.00000000  F        4       0.00113951       0.00000000       0.01416961       0.00000000
K        3.69816847       2.61500000      10.00000000  F        4       0.00000000       0.00095548       0.02796785       0.00000000
K        3.69816847       0.00000000      13.69816847  F        3       0.00000000       0.00000000      -0.01915118       0.00000000
K        0.00000000       2.61500000      13.69816847  F        3      -0.00162901       0.00883097      -0.03201593       0.00000000
K       -0.02898273       0.00000000      17.34605308  T        2       0.00318085       0.00000000       0.00996349       0.00000000
K        3.69816847       2.83524839      17.18439350  T        2       0.00000000      -0.01093056       0.00038788       0.00000000
K        3.69816847       0.00000000      20.21599690  T        1       0.00000000       0.00000000      -0.01720821       0.00000000
K        0.10263504       2.53103289      21.27936459  T        1      -0.00048981      -0.00134982      -0.00748554       0.00000000
K        0.00000000       5.23000000      10.00000000  F        4       0.00187449       0.00002435      -0.01284246       0.00000000
K        3.69816847       7.84500000      10.00000000  F        4       0.00000000       0.00000000      -0.01188009       0.00000000
K        3.69816847       5.23000000      13.69816847  F        3       0.00000000       0.03971145      -0.07354098       0.00000000
K        0.00000000       7.84500000      13.69816847  F        3       0.00297974       0.00000000      -0.00089236       0.00000000
K       -0.03014676       5.22190466      17.45381349  T        2      -0.00022287      -0.00317616       0.00669220       0.00000000
K        3.69816847       7.84500000      17.45190617  T        2       0.00000000       0.00000000       0.01019597       0.00000000
K        3.69816847       5.14816504      21.21670558  T        1      -0.00000000       0.00151014       0.00865889       0.00000000
K        0.02030503       7.84500000      21.11913586  T        1       0.00407615       0.00000000       0.02405193       0.00000000
K        0.00000000      10.46000000      10.00000000  F        4       0.00187449      -0.00002435      -0.01284246       0.00000000
K        3.69816847      13.07500000      10.00000000  F        4       0.00000000      -0.00095548       0.02796785       0.00000000
K        3.69816847      10.46000000      13.69816847  F        3       0.00000000      -0.03971145      -0.07354098       0.00000000
K        0.00000000      13.07500000      13.69816847  F        3      -0.00162901      -0.00883097      -0.03201593       0.00000000
K       -0.03014676      10.46809534      17.45381349  T        2      -0.00022287       0.00317616       0.00669220       0.00000000
K        3.69816847      12.85475161      17.18439350  T        2       0.00000000       0.01093056       0.00038788       0.00000000
K        3.69816847      10.54183496      21.21670558  T        1      -0.00000000      -0.00151014       0.00865889       0.00000000
K        0.10263504      13.15896711      21.27936459  T        1      -0.00048981       0.00134982      -0.00748554       0.00000000
K        7.39633693       0.00000000      10.00000000  F        4      -0.00113951       0.00000000       0.01416961       0.00000000
K       11.09450540       2.61500000      10.00000000  F        4      -0.00133109      -0.00112175      -0.00625156       0.00000000
K       11.09450540       0.00000000      13.69816847  F        3       0.00153882       0.00000000      -0.01494155       0.00000000
K        7.39633693       2.61500000      13.69816847  F        3       0.00162901       0.00883097      -0.03201593       0.00000000
K        7.42531966       0.00000000      17.34605308  T        2      -0.00318085       0.00000000       0.00996349       0.00000000
K       11.11008631       2.61917708      17.41637293  T        2       0.00018975      -0.00170351       0.00426033       0.00000000
K       11.07558790       0.00000000      21.12045637  T        1       0.00107238       0.00000000       0.01894612       0.00000000
K        7.29370189       2.53103289      21.27936459  T        1       0.00048981      -0.00134982      -0.00748554       0.00000000
K        7.39633693       5.23000000      10.00000000  F        4      -0.00187449       0.00002435      -0.01284246       0.00000000
K       11.09450540       7.84500000      10.00000000  F        4      -0.00189601       0.00000000      -0.00380569       0.00000000
K       11.09450540       5.23000000      13.69816847  F        3      -0.00106383       0.00100749      -0.00869961       0.00000000
K        7.39633693       7.84500000      13.69816847  F        3      -0.00297974       0.00000000      -0.00089236       0.00000000
K        7.42648369       5.22190466      17.45381349  T        2       0.00022287      -0.00317616       0.00669220       0.00000000
K       11.10002058       7.84500000      17.41406214  T        2       0.00110414       0.00000000       0.00733747       0.00000000
K       11.07615202       5.21781082      21.11100672  T        1      -0.00242280      -0.00009749       0.01296854       0.00000000
K        7.37603190       7.84500000      21.11913586  T        1      -0.00407615       0.00000000       0.02405193       0.00000000
K        7.39633693      10.46000000      10.00000000  F        4      -0.00187449      -0.00002435      -0.01284246       0.00000000
K       11.09450540      13.07500000      10.00000000  F        4      -0.00133109       0.00112175      -0.00625156       0.00000000
K       11.09450540      10.46000000      13.69816847  F        3      -0.00106383      -0.00100749      -0.00869961       0.00000000
K        7.39633693      13.07500000      13.69816847  F        3       0.00162901      -0.00883097      -0.03201593       0.00000000
K        7.42648369      10.46809534      17.45381349  T        2       0.00022287       0.00317616       0.00669220       0.00000000
K       11.11008631      13.07082292      17.41637293  T        2       0.00018975       0.00170351       0.00426033       0.00000000
K       11.07615202      10.47218918      21.11100672  T        1      -0.00242280       0.00009749       0.01296854       0.00000000
K        7.29370189      13.15896711      21.27936459  T        1       0.00048981       0.00134982      -0.00748554       0.00000000
K       14.79267386       0.00000000      10.00000000  F        4      -0.00000000       0.00000000      -0.00555734       0.00000000
K       18.49084233       2.61500000      10.00000000  F        4       0.00133109      -0.00112175      -0.00625156       0.00000000
K       18.49084233       0.00000000      13.69816847  F        3      -0.00153882       0.00000000      -0.01494155       0.00000000
K       14.79267386       2.61500000      13.69816847  F        3      -0.00000000      -0.00090944      -0.01092951       0.00000000
K       14.79267386       0.00000000      17.41386001  T        2       0.00000000       0.00000000       0.00618831       0.00000000
K       18.47526142       2.61917708      17.41637293  T        2      -0.00018975      -0.00170351       0.00426033       0.00000000
K       18.50975983       0.00000000      21.12045637  T        1      -0.00107238       0.00000000       0.01894612       0.00000000
K       14.79267386       2.61490291      21.11440380  T        1      -0.00000000       0.00042378       0.01383899       0.00000000
K       14.79267386       5.23000000      10.00000000  F        4      -0.00000000      -0.00177678      -0.00613210       0.00000000
K       18.49084233       7.84500000      10.00000000  F        4       0.00189601       0.00000000      -0.00380569       0.00000000
K       18.49084233       5.23000000      13.69816847  F        3       0.00106383       0.00100749      -0.00869961       0.00000000
K       14.79267386       7.84500000      13.69816847  F        3      -0.00000000       0.00000000      -0.01152543       0.00000000
K       14.79267386       5.23216344      17.41228233  T        2      -0.00000000       0.00079716       0.00821383       0.00000000
K       18.48532714       7.84500000      17.41406214  T        2      -0.00110414       0.00000000       0.00733747       0.00000000
K       18.50919570       5.21781082      21.11100672  T        1       0.00242280      -0.00009749       0.01296854       0.00000000
K       14.79267386       7.84500000      21.11930175  T        1      -0.00000000       0.00000000       0.01579353       0.00000000
K       14.79267386      10.46000000      10.00000000  F        4      -0.00000000       0.00177678      -0.00613210       0.00000000
K       18.49084233      13.07500000      10.00000000  F        4       0.00133109       0.00112175      -0.00625156       0.00000000
K       18.49084233      10.46000000      13.69816847  F        3       0.00106383      -0.00100749      -0.00869961       0.00000000
K       14.79267386      13.07500000      13.69816847  F        3      -0.00000000       0.00090944      -0.01092951       0.00000000
K       14.79267386      10.45783656      17.41228233  T        2      -0.00000000      -0.00079716       0.00821383       0.00000000
K       18.47526142      13.07082292      17.41637293  T        2      -0.00018975       0.00170351       0.00426033       0.00000000
K       18.50919570      10.47218918      21.11100672  T        1       0.00242280       0.00009749       0.01296854       0.00000000
K       14.79267386      13.07509709      21.11440380  T        1      -0.00000000      -0.00042378       0.01383899       0.00000000
K        3.69816847       0.00000000      24.24309350  T        0       0.00000000       0.00000000      -0.00459688       0.00000000
