
  ___ ___ ___ _ _ _  
 |   |   |_  | | | | 
 | | | | | . | | | | 
 |__ |  _|___|_____|  25.7.0
 |___|_|             

User:   tew@Mathuss-MacBook-Air-357.local
Date:   Mon Nov 24 03:34:03 2025
Arch:   arm64
Pid:    82977
CWD:    /Users/tew/Documents/Project/GitHub/chem-com
Python: 3.13.5
gpaw:   /Users/tew/Documents/Project/GitHub/chem-com/.venv/lib/python3.13/site-packages/gpaw
_gpaw:  /Users/tew/Documents/Project/GitHub/chem-com/.venv/lib/python3.13/site-packages/
        _gpaw.cpython-313-darwin.so
ase:    /Users/tew/Documents/Project/GitHub/chem-com/.venv/lib/python3.13/site-packages/ase (version 3.26.0)
numpy:  /Users/tew/Documents/Project/GitHub/chem-com/.venv/lib/python3.13/site-packages/numpy (version 2.3.5)
scipy:  /Users/tew/Documents/Project/GitHub/chem-com/.venv/lib/python3.13/site-packages/scipy (version 1.16.3)
libxc:  2.x.y
units:  Angstrom and eV
cores: 1
OpenMP: False
OMP_NUM_THREADS: 1

Input parameters:
  convergence: {density: 0.0001,
                eigenstates: 5e-06}
  kpts: [2 2 1]
  mode: {ecut: 200.0,
         name: pw}
  xc: PBE

System changes: positions, numbers, cell, pbc, initial_charges, initial_magmoms 

Initialize ...

species:
  Li:
    name: Lithium
    id: 830b4218f175192f93f959cfc0aad614
    Z: 3.0
    valence: 1
    core: 2
    charge: 0.0
    file: /Users/tew/Documents/Project/GitHub/chem-com/.venv/lib/python3.13/site-packages/gpaw_data/setups/Li.PBE.gz
    compensation charges: {type: gauss,
                           rc: 0.33,
                           lmax: 2}
    cutoffs: {filter: 1.91,
              core: 2.55}
    projectors:
      #              energy  rcut
      - 2s(1.00)    -2.874   1.058
      - 2p(0.00)    -1.090   1.058
      -  s          24.337   1.058
  
    # Using partial waves for Li as LCAO basis

Reference energy: -14803.510878  # eV

Spin-paired calculation

Convergence criteria:
 Maximum [total energy] change in last 3 cyles: 0.0005 eV / valence electron
 Maximum integral of absolute [dens]ity change: 0.0001 electrons / valence electron
 Maximum integral of absolute [eigenst]ate change: 5e-06 eV^2 / valence electron
 Maximum number of scf [iter]ations: 333
 (Square brackets indicate name in SCF output, whereas a 'c' in
 the SCF output indicates the quantity has converged.)

Symmetries present (total): 2

  ( 1  0  0)  (-1  0  0)
  ( 0  1  0)  ( 0  1  0)
  ( 0  0  1)  ( 0  0  1)

4 k-points: 2 x 2 x 1 Monkhorst-Pack grid
1 k-point in the irreducible part of the Brillouin zone
       k-points in crystal coordinates                weights
   0:     0.25000000    0.25000000    0.00000000          4/4

Wave functions: Plane wave expansion
  Cutoff energy: 200.000 eV
  Number of coefficients (min, max): 27323, 27323
  Pulay-stress correction: 0.000000 eV/Ang^3 (de/decut=0.000000)
  Using Numpy's FFT
  ScaLapack parameters: grid=1x1, blocksize=None
  Wavefunction extrapolation:
    Improved wavefunction reuse through dual PAW basis 

Occupation numbers: Fermi-Dirac:
  width: 0.1000  # eV
 

Eigensolver
   Davidson(niter=2) 

Densities:
  Coarse grid: 49*35*90 grid
  Fine grid: 98*70*180 grid
  Total Charge: 0.000000 

Density mixing:
  Method: separate
  Backend: pulay
  Linear mixing parameter: 0.05
  old densities: 5
  Damping of long wavelength oscillations: 50 

Hamiltonian:
  XC and Coulomb potentials evaluated on a 98*70*180 grid
  Using the PBE Exchange-Correlation functional
  External potential:
    NoExternalPotential
 

XC parameters: PBE with 2 nearest neighbor stencil

Memory estimate:
  Process memory now: 1601.05 MiB
  Calculator: 142.34 MiB
    Density: 71.24 MiB
      Arrays: 30.62 MiB
      Localized functions: 28.85 MiB
      Mixer: 11.78 MiB
    Hamiltonian: 20.61 MiB
      Arrays: 20.02 MiB
      XC: 0.00 MiB
      Poisson: 0.00 MiB
      vbar: 0.59 MiB
    Wavefunctions: 50.49 MiB
      Arrays psit_nG: 20.01 MiB
      Eigensolver: 22.45 MiB
      Projections: 0.27 MiB
      Projectors: 1.46 MiB
      PW-descriptor: 6.30 MiB

Total number of cores used: 1

Number of atoms: 73
Number of atomic orbitals: 292
Number of bands in calculation: 48
Number of valence electrons: 73
Bands to converge: occupied

... initialized

Initializing position-dependent things.

Density initialized from atomic densities
Creating initial wave functions:
  48 bands from LCAO basis set

       .-----------------------------------.  
      /|                                   |  
     / |                                   |  
    /  |                                   |  
   /   |                                   |  
  /    |                                   |  
 *     |                                   |  
 |     |                                   |  
 |     |                                   |  
 |     |                                   |  
 |     |                                   |  
 |     |                                   |  
 |     |                                   |  
 |    Li          Li          Li           |  
 |     |   Li          Li          Li      |  
 |LiLi |        Li          Li             |  
 |     | Li Li       Li Li       Li Li     |  
 |Li Li|      Li Li       Li Li            |  
 |     Li Li       Li Li       Li Li       |  
 | Li  |       Li          Li              |  
 |    LiLi        LiLi        LiLi         |  
 Li    |   LiLi        LiLi        Li      |  
 |  Li |        Li          Li             |  
 |     | Li Li       Li Li       Li Li     |  
 |Li Li|      Li Li       Li Li            |  
 |     Li Li       Li Li       Li Li       |  
 | Li  |       Li          Li              |  
 |     |Li          Li          Li         |  
 Li    |     Li          Li                |  
 |     |                                   |  
 |     |                                   |  
 |     |                                   |  
 |     |                                   |  
 |     |                                   |  
 |     .-----------------------------------.  
 |    /                                   /   
 |   /                                   /    
 |  /                                   /     
 | /                                   /      
 |/                                   /       
 *-----------------------------------*        

Atomic positions and initial magnetic moments

Positions:
   0 Li     0.000000    0.000000   10.000000    ( 0.0000,  0.0000,  0.0000)
   1 Li     2.467803    1.745000   10.000000    ( 0.0000,  0.0000,  0.0000)
   2 Li     2.467803    0.000000   12.467803    ( 0.0000,  0.0000,  0.0000)
   3 Li     0.000000    1.745000   12.467803    ( 0.0000,  0.0000,  0.0000)
   4 Li     0.000000    0.000000   14.935605    ( 0.0000,  0.0000,  0.0000)
   5 Li     2.467803    1.745000   14.935605    ( 0.0000,  0.0000,  0.0000)
   6 Li     2.467803    0.000000   17.403408    ( 0.0000,  0.0000,  0.0000)
   7 Li     0.000000    1.745000   17.403408    ( 0.0000,  0.0000,  0.0000)
   8 Li     0.000000    3.490000   10.000000    ( 0.0000,  0.0000,  0.0000)
   9 Li     2.467803    5.235000   10.000000    ( 0.0000,  0.0000,  0.0000)
  10 Li     2.467803    3.490000   12.467803    ( 0.0000,  0.0000,  0.0000)
  11 Li     0.000000    5.235000   12.467803    ( 0.0000,  0.0000,  0.0000)
  12 Li     0.000000    3.490000   14.935605    ( 0.0000,  0.0000,  0.0000)
  13 Li     2.467803    5.235000   14.935605    ( 0.0000,  0.0000,  0.0000)
  14 Li     2.467803    3.490000   17.403408    ( 0.0000,  0.0000,  0.0000)
  15 Li     0.000000    5.235000   17.403408    ( 0.0000,  0.0000,  0.0000)
  16 Li     0.000000    6.980000   10.000000    ( 0.0000,  0.0000,  0.0000)
  17 Li     2.467803    8.725000   10.000000    ( 0.0000,  0.0000,  0.0000)
  18 Li     2.467803    6.980000   12.467803    ( 0.0000,  0.0000,  0.0000)
  19 Li     0.000000    8.725000   12.467803    ( 0.0000,  0.0000,  0.0000)
  20 Li     0.000000    6.980000   14.935605    ( 0.0000,  0.0000,  0.0000)
  21 Li     2.467803    8.725000   14.935605    ( 0.0000,  0.0000,  0.0000)
  22 Li     2.467803    6.980000   17.403408    ( 0.0000,  0.0000,  0.0000)
  23 Li     0.000000    8.725000   17.403408    ( 0.0000,  0.0000,  0.0000)
  24 Li     4.935605    0.000000   10.000000    ( 0.0000,  0.0000,  0.0000)
  25 Li     7.403408    1.745000   10.000000    ( 0.0000,  0.0000,  0.0000)
  26 Li     7.403408    0.000000   12.467803    ( 0.0000,  0.0000,  0.0000)
  27 Li     4.935605    1.745000   12.467803    ( 0.0000,  0.0000,  0.0000)
  28 Li     4.935605    0.000000   14.935605    ( 0.0000,  0.0000,  0.0000)
  29 Li     7.403408    1.745000   14.935605    ( 0.0000,  0.0000,  0.0000)
  30 Li     7.403408    0.000000   17.403408    ( 0.0000,  0.0000,  0.0000)
  31 Li     4.935605    1.745000   17.403408    ( 0.0000,  0.0000,  0.0000)
  32 Li     4.935605    3.490000   10.000000    ( 0.0000,  0.0000,  0.0000)
  33 Li     7.403408    5.235000   10.000000    ( 0.0000,  0.0000,  0.0000)
  34 Li     7.403408    3.490000   12.467803    ( 0.0000,  0.0000,  0.0000)
  35 Li     4.935605    5.235000   12.467803    ( 0.0000,  0.0000,  0.0000)
  36 Li     4.935605    3.490000   14.935605    ( 0.0000,  0.0000,  0.0000)
  37 Li     7.403408    5.235000   14.935605    ( 0.0000,  0.0000,  0.0000)
  38 Li     7.403408    3.490000   17.403408    ( 0.0000,  0.0000,  0.0000)
  39 Li     4.935605    5.235000   17.403408    ( 0.0000,  0.0000,  0.0000)
  40 Li     4.935605    6.980000   10.000000    ( 0.0000,  0.0000,  0.0000)
  41 Li     7.403408    8.725000   10.000000    ( 0.0000,  0.0000,  0.0000)
  42 Li     7.403408    6.980000   12.467803    ( 0.0000,  0.0000,  0.0000)
  43 Li     4.935605    8.725000   12.467803    ( 0.0000,  0.0000,  0.0000)
  44 Li     4.935605    6.980000   14.935605    ( 0.0000,  0.0000,  0.0000)
  45 Li     7.403408    8.725000   14.935605    ( 0.0000,  0.0000,  0.0000)
  46 Li     7.403408    6.980000   17.403408    ( 0.0000,  0.0000,  0.0000)
  47 Li     4.935605    8.725000   17.403408    ( 0.0000,  0.0000,  0.0000)
  48 Li     9.871211    0.000000   10.000000    ( 0.0000,  0.0000,  0.0000)
  49 Li    12.339013    1.745000   10.000000    ( 0.0000,  0.0000,  0.0000)
  50 Li    12.339013    0.000000   12.467803    ( 0.0000,  0.0000,  0.0000)
  51 Li     9.871211    1.745000   12.467803    ( 0.0000,  0.0000,  0.0000)
  52 Li     9.871211    0.000000   14.935605    ( 0.0000,  0.0000,  0.0000)
  53 Li    12.339013    1.745000   14.935605    ( 0.0000,  0.0000,  0.0000)
  54 Li    12.339013    0.000000   17.403408    ( 0.0000,  0.0000,  0.0000)
  55 Li     9.871211    1.745000   17.403408    ( 0.0000,  0.0000,  0.0000)
  56 Li     9.871211    3.490000   10.000000    ( 0.0000,  0.0000,  0.0000)
  57 Li    12.339013    5.235000   10.000000    ( 0.0000,  0.0000,  0.0000)
  58 Li    12.339013    3.490000   12.467803    ( 0.0000,  0.0000,  0.0000)
  59 Li     9.871211    5.235000   12.467803    ( 0.0000,  0.0000,  0.0000)
  60 Li     9.871211    3.490000   14.935605    ( 0.0000,  0.0000,  0.0000)
  61 Li    12.339013    5.235000   14.935605    ( 0.0000,  0.0000,  0.0000)
  62 Li    12.339013    3.490000   17.403408    ( 0.0000,  0.0000,  0.0000)
  63 Li     9.871211    5.235000   17.403408    ( 0.0000,  0.0000,  0.0000)
  64 Li     9.871211    6.980000   10.000000    ( 0.0000,  0.0000,  0.0000)
  65 Li    12.339013    8.725000   10.000000    ( 0.0000,  0.0000,  0.0000)
  66 Li    12.339013    6.980000   12.467803    ( 0.0000,  0.0000,  0.0000)
  67 Li     9.871211    8.725000   12.467803    ( 0.0000,  0.0000,  0.0000)
  68 Li     9.871211    6.980000   14.935605    ( 0.0000,  0.0000,  0.0000)
  69 Li    12.339013    8.725000   14.935605    ( 0.0000,  0.0000,  0.0000)
  70 Li    12.339013    6.980000   17.403408    ( 0.0000,  0.0000,  0.0000)
  71 Li     9.871211    8.725000   17.403408    ( 0.0000,  0.0000,  0.0000)
  72 Li     0.000000    1.745000   19.403408    ( 0.0000,  0.0000,  0.0000)

Unit cell:
           periodic     x           y           z      points  spacing
  1. axis:    yes   14.806816    0.000000    0.000000    49     0.3022
  2. axis:    yes    0.000000   10.470000    0.000000    35     0.2991
  3. axis:    no     0.000000    0.000000   27.403408    90     0.3045

  Lengths:  14.806816  10.470000  27.403408
  Angles:   90.000000  90.000000  90.000000

Effective grid spacing dv^(1/3) = 0.3019

     iter     time        total  log10-change:
                         energy   eigst   dens
iter:   1 03:34:12  -134.471211
iter:   2 03:34:14  -130.357849   -0.89  -0.57
iter:   3 03:34:17  -128.945971   -1.06  -0.73
iter:   4 03:34:19  -129.228214   -1.54  -0.89
iter:   5 03:34:21  -128.917652   -1.87  -0.90
iter:   6 03:34:23  -127.979751   -1.50  -0.94
iter:   7 03:34:25  -128.025801   -2.13  -1.30
iter:   8 03:34:28  -127.904341   -2.23  -1.27
iter:   9 03:34:30  -127.902177   -2.84  -1.51
iter:  10 03:34:32  -127.875172c  -2.91  -1.64
iter:  11 03:34:34  -127.873464c  -3.30  -1.97
iter:  12 03:34:37  -127.873577c  -3.39  -2.08
iter:  13 03:34:40  -127.872924c  -3.72  -2.23
iter:  14 03:34:42  -127.872313c  -3.87  -2.32
iter:  15 03:34:44  -127.872193c  -4.11  -2.38
iter:  16 03:34:47  -127.872490c  -4.22  -2.52
iter:  17 03:34:49  -127.872094c  -4.36  -2.77
iter:  18 03:34:51  -127.872089c  -4.61  -2.91
iter:  19 03:34:53  -127.872031c  -4.66  -3.01
iter:  20 03:34:55  -127.871856c  -4.82  -3.16
iter:  21 03:34:58  -127.871871c  -4.98  -3.28
iter:  22 03:35:00  -127.871836c  -5.24  -3.35
iter:  23 03:35:02  -127.871723c  -5.06  -3.40
iter:  24 03:35:04  -127.871698c  -5.22  -3.57
iter:  25 03:35:06  -127.871644c  -5.35c -3.65
iter:  26 03:35:09  -127.871545c  -4.98  -3.71
iter:  27 03:35:11  -127.871455c  -5.07  -3.80
iter:  28 03:35:13  -127.871370c  -5.27  -3.83
iter:  29 03:35:15  -127.871274c  -5.14  -3.96
iter:  30 03:35:17  -127.871172c  -5.17  -4.04c
iter:  31 03:35:20  -127.871082c  -5.24  -4.14c
iter:  32 03:35:22  -127.871000c  -5.28  -4.13c
iter:  33 03:35:24  -127.870885c  -5.06  -4.05c
iter:  34 03:35:26  -127.870765c  -5.05  -4.06c
iter:  35 03:35:28  -127.870632c  -5.05  -4.10c
iter:  36 03:35:31  -127.870493c  -5.08  -4.04c
iter:  37 03:35:33  -127.870305c  -4.92  -3.97
iter:  38 03:35:35  -127.870127c  -4.93  -3.86
iter:  39 03:35:37  -127.869933c  -4.81  -3.80
iter:  40 03:35:39  -127.869761c  -4.91  -3.69
iter:  41 03:35:42  -127.869589c  -4.91  -3.67
iter:  42 03:35:44  -127.869408c  -4.92  -3.64
iter:  43 03:35:46  -127.869232c  -4.96  -3.57
iter:  44 03:35:48  -127.868992c  -4.63  -3.55
iter:  45 03:35:50  -127.868764c  -4.67  -3.52
iter:  46 03:35:52  -127.868589c  -4.80  -3.45
iter:  47 03:35:55  -127.868406c  -4.78  -3.44
iter:  48 03:35:57  -127.868272c  -4.99  -3.39
iter:  49 03:35:59  -127.868140c  -4.96  -3.40
iter:  50 03:36:01  -127.868001c  -4.83  -3.39
iter:  51 03:36:03  -127.867871c  -4.95  -3.35
iter:  52 03:36:06  -127.867766c  -5.14  -3.34
iter:  53 03:36:08  -127.867689c  -5.14  -3.37
iter:  54 03:36:10  -127.867619c  -5.18  -3.32
iter:  55 03:36:12  -127.867561c  -5.12  -3.36
iter:  56 03:36:14  -127.867497c  -5.04  -3.41
iter:  57 03:36:16  -127.867444c  -5.28  -3.44
iter:  58 03:36:19  -127.867383c  -5.34c -3.48
iter:  59 03:36:21  -127.867364c  -5.55c -3.57
iter:  60 03:36:23  -127.867320c  -5.54c -3.71
iter:  61 03:36:25  -127.867276c  -5.39c -3.73
iter:  62 03:36:27  -127.867257c  -5.70c -3.79
iter:  63 03:36:30  -127.867236c  -5.75c -3.92
iter:  64 03:36:32  -127.867185c  -5.61c -4.04c

Converged after 64 iterations.

Dipole moment: (-0.000000, -0.608590, 0.223831) |e|*Ang

Energy contributions relative to reference atoms: (reference = -14803.510878)

Kinetic:       +109.021054
Potential:      -96.133447
External:        +0.000000
XC:            -139.587196
Entropy (-ST):   -1.415027
Local:           -0.460083
SIC:             +0.000000
--------------------------
Free energy:   -128.574698
Extrapolated:  -127.867185

 Band  Eigenvalues  Occupancy
    0     -5.10063    2.00000
    1     -4.84089    2.00000
    2     -4.58079    2.00000
    3     -4.52926    2.00000
    4     -4.32443    2.00000
    5     -4.32077    2.00000
    6     -4.26712    2.00000
    7     -4.01139    2.00000
    8     -3.80825    2.00000
    9     -3.75971    2.00000
   10     -3.74113    2.00000
   11     -3.54833    2.00000
   12     -3.53242    2.00000
   13     -3.49578    2.00000
   14     -3.28694    2.00000
   15     -3.25125    2.00000
   16     -3.22185    2.00000
   17     -3.03449    1.99999
   18     -2.98876    1.99998
   19     -2.96749    1.99997
   20     -2.95478    1.99997
   21     -2.79468    1.99985
   22     -2.75613    1.99978
   23     -2.72323    1.99970
   24     -2.68107    1.99954
   25     -2.55101    1.99832
   26     -2.48447    1.99673
   27     -2.33253    1.98516
   28     -2.28339    1.97585
   29     -2.20267    1.94667
   30     -2.05578    1.78727
   31     -2.01982    1.70860
   32     -1.99682    1.64656
   33     -1.95435    1.50576
   34     -1.94580    1.47327
   35     -1.92522    1.38965
   36     -1.86660    1.11774
   37     -1.78305    0.70916
   38     -1.74538    0.54752
   39     -1.71258    0.42711
   40     -1.68902    0.35329
   41     -1.56199    0.11362
   42     -1.53760    0.09014
   43     -1.50951    0.06882
   44     -1.48858    0.05619
   45     -1.47484    0.04915
   46     -1.43778    0.03419
   47     -1.38554    0.02042

Fermi level: -1.84294

Gap: 0.084 eV
Transition (v -> c):
  (s=0, k=0, n=36, [0.25, 0.25, 0.00]) -> (s=0, k=0, n=37, [0.25, 0.25, 0.00])
No difference between direct/indirect transitions

Forces in eV/Ang:
  0 Li    0.00000    0.00246    0.09658
  1 Li   -0.00246    0.00000    0.09455
  2 Li    0.00374    0.00051   -0.04352
  3 Li    0.00000    0.00000   -0.02463
  4 Li    0.00000   -0.00306   -0.01132
  5 Li    0.00521    0.00000    0.00039
  6 Li   -0.12575    0.08680    0.02380
  7 Li    0.00000   -0.00000   -1.98374
  8 Li    0.00000   -0.00246    0.09658
  9 Li    0.00088   -0.00204    0.09018
 10 Li    0.00374   -0.00052   -0.04352
 11 Li    0.00000    0.00089   -0.04638
 12 Li    0.00000    0.00306   -0.01132
 13 Li    0.00475   -0.00051    0.03063
 14 Li   -0.12575   -0.08680    0.02380
 15 Li    0.00000   -0.13271    0.00180
 16 Li    0.00000   -0.00000    0.09112
 17 Li    0.00088    0.00204    0.09018
 18 Li   -0.00187   -0.00000   -0.04373
 19 Li    0.00000   -0.00089   -0.04638
 20 Li    0.00000    0.00000    0.04660
 21 Li    0.00475    0.00051    0.03063
 22 Li    0.00411    0.00000   -0.09377
 23 Li    0.00000    0.13271    0.00180
 24 Li    0.00383    0.00008    0.08852
 25 Li    0.00000   -0.00000    0.08803
 26 Li    0.00000   -0.00204   -0.03832
 27 Li   -0.00135   -0.00000   -0.04221
 28 Li   -0.00465   -0.00214    0.04023
 29 Li    0.00000    0.00000    0.04188
 30 Li    0.00000    0.00081   -0.09099
 31 Li   -0.01882    0.00000   -0.07155
 32 Li    0.00383   -0.00008    0.08852
 33 Li    0.00000   -0.00014    0.09151
 34 Li    0.00000    0.00204   -0.03832
 35 Li    0.00225    0.00057   -0.04004
 36 Li   -0.00465    0.00214    0.04023
 37 Li    0.00000    0.00239    0.03431
 38 Li    0.00000   -0.00081   -0.09098
 39 Li    0.00691   -0.00047   -0.09485
 40 Li    0.00468   -0.00000    0.08964
 41 Li    0.00000    0.00014    0.09151
 42 Li    0.00000    0.00000   -0.03282
 43 Li    0.00225   -0.00057   -0.04004
 44 Li   -0.00448   -0.00000    0.04370
 45 Li    0.00000   -0.00239    0.03431
 46 Li    0.00000    0.00000   -0.08833
 47 Li    0.00691    0.00047   -0.09484
 48 Li   -0.00383    0.00008    0.08852
 49 Li    0.00246    0.00000    0.09455
 50 Li   -0.00374    0.00051   -0.04352
 51 Li    0.00135   -0.00000   -0.04221
 52 Li    0.00465   -0.00214    0.04023
 53 Li   -0.00521    0.00000    0.00039
 54 Li    0.12575    0.08680    0.02380
 55 Li    0.01882    0.00000   -0.07155
 56 Li   -0.00383   -0.00008    0.08852
 57 Li   -0.00088   -0.00204    0.09018
 58 Li   -0.00374   -0.00052   -0.04352
 59 Li   -0.00225    0.00057   -0.04004
 60 Li    0.00465    0.00214    0.04023
 61 Li   -0.00475   -0.00051    0.03063
 62 Li    0.12575   -0.08680    0.02380
 63 Li   -0.00691   -0.00047   -0.09485
 64 Li   -0.00468   -0.00000    0.08964
 65 Li   -0.00088    0.00204    0.09018
 66 Li    0.00187   -0.00000   -0.04373
 67 Li   -0.00225   -0.00057   -0.04004
 68 Li    0.00448   -0.00000    0.04370
 69 Li   -0.00475    0.00051    0.03063
 70 Li   -0.00411    0.00000   -0.09377
 71 Li   -0.00691    0.00047   -0.09484
 72 Li    0.00000   -0.00000    1.45722

System changes: positions 

Initializing position-dependent things.

Density initialized from wave functions
       .-----------------------------------.  
      /|                                   |  
     / |                                   |  
    /  |                                   |  
   /   |                                   |  
  /    |                                   |  
 *     |                                   |  
 |     |                                   |  
 |     |                                   |  
 |     |                                   |  
 |     |                                   |  
 |     |                                   |  
 |     |                                   |  
 |    Li          Li          Li           |  
 |     |   Li          Li          Li      |  
 |LiLi Li       Li Li       Li Li          |  
 |     | Li Li       Li Li       Li Li     |  
 |Li Li|      Li Li       Li Li            |  
 |     Li Li       Li Li       Li Li       |  
 | Li  |       Li          Li              |  
 |    LiLi        LiLi        LiLi         |  
 |     |   Li          Li          Li      |  
 |  Li |        Li          Li             |  
 |     | Li Li       Li Li       Li Li     |  
 |Li Li|      Li Li       Li Li            |  
 |     Li Li       Li Li       Li Li       |  
 | Li  |       Li          Li              |  
 |     |Li          Li          Li         |  
 Li    |     Li          Li                |  
 |     |                                   |  
 |     |                                   |  
 |     |                                   |  
 |     |                                   |  
 |     |                                   |  
 |     .-----------------------------------.  
 |    /                                   /   
 |   /                                   /    
 |  /                                   /     
 | /                                   /      
 |/                                   /       
 *-----------------------------------*        

Atomic positions and initial magnetic moments

Positions:
   0 Li     0.000000    0.000000   10.000000    ( 0.0000,  0.0000,  0.0000)
   1 Li     2.467803    1.745000   10.000000    ( 0.0000,  0.0000,  0.0000)
   2 Li     2.467803    0.000000   12.467803    ( 0.0000,  0.0000,  0.0000)
   3 Li     0.000000    1.745000   12.467803    ( 0.0000,  0.0000,  0.0000)
   4 Li     0.000000   -0.000044   14.935444    ( 0.0000,  0.0000,  0.0000)
   5 Li     2.467877    1.745000   14.935611    ( 0.0000,  0.0000,  0.0000)
   6 Li     2.466006    0.001240   17.403748    ( 0.0000,  0.0000,  0.0000)
   7 Li     0.000000    1.745000   17.375069    ( 0.0000,  0.0000,  0.0000)
   8 Li     0.000000    3.490000   10.000000    ( 0.0000,  0.0000,  0.0000)
   9 Li     2.467803    5.235000   10.000000    ( 0.0000,  0.0000,  0.0000)
  10 Li     2.467803    3.490000   12.467803    ( 0.0000,  0.0000,  0.0000)
  11 Li     0.000000    5.235000   12.467803    ( 0.0000,  0.0000,  0.0000)
  12 Li     0.000000    3.490044   14.935444    ( 0.0000,  0.0000,  0.0000)
  13 Li     2.467871    5.234993   14.936043    ( 0.0000,  0.0000,  0.0000)
  14 Li     2.466006    3.488760   17.403748    ( 0.0000,  0.0000,  0.0000)
  15 Li     0.000000    5.233104   17.403434    ( 0.0000,  0.0000,  0.0000)
  16 Li     0.000000    6.980000   10.000000    ( 0.0000,  0.0000,  0.0000)
  17 Li     2.467803    8.725000   10.000000    ( 0.0000,  0.0000,  0.0000)
  18 Li     2.467803    6.980000   12.467803    ( 0.0000,  0.0000,  0.0000)
  19 Li     0.000000    8.725000   12.467803    ( 0.0000,  0.0000,  0.0000)
  20 Li     0.000000    6.980000   14.936271    ( 0.0000,  0.0000,  0.0000)
  21 Li     2.467870    8.725007   14.936043    ( 0.0000,  0.0000,  0.0000)
  22 Li     2.467861    6.980000   17.402068    ( 0.0000,  0.0000,  0.0000)
  23 Li     0.000000    8.726896   17.403434    ( 0.0000,  0.0000,  0.0000)
  24 Li     4.935605    0.000000   10.000000    ( 0.0000,  0.0000,  0.0000)
  25 Li     7.403408    1.745000   10.000000    ( 0.0000,  0.0000,  0.0000)
  26 Li     7.403408    0.000000   12.467803    ( 0.0000,  0.0000,  0.0000)
  27 Li     4.935605    1.745000   12.467803    ( 0.0000,  0.0000,  0.0000)
  28 Li     4.935539   -0.000031   14.936180    ( 0.0000,  0.0000,  0.0000)
  29 Li     7.403408    1.745000   14.936204    ( 0.0000,  0.0000,  0.0000)
  30 Li     7.403408    0.000012   17.402108    ( 0.0000,  0.0000,  0.0000)
  31 Li     4.935336    1.745000   17.402386    ( 0.0000,  0.0000,  0.0000)
  32 Li     4.935605    3.490000   10.000000    ( 0.0000,  0.0000,  0.0000)
  33 Li     7.403408    5.235000   10.000000    ( 0.0000,  0.0000,  0.0000)
  34 Li     7.403408    3.490000   12.467803    ( 0.0000,  0.0000,  0.0000)
  35 Li     4.935605    5.235000   12.467803    ( 0.0000,  0.0000,  0.0000)
  36 Li     4.935539    3.490031   14.936180    ( 0.0000,  0.0000,  0.0000)
  37 Li     7.403408    5.235034   14.936096    ( 0.0000,  0.0000,  0.0000)
  38 Li     7.403408    3.489988   17.402108    ( 0.0000,  0.0000,  0.0000)
  39 Li     4.935704    5.234993   17.402053    ( 0.0000,  0.0000,  0.0000)
  40 Li     4.935605    6.980000   10.000000    ( 0.0000,  0.0000,  0.0000)
  41 Li     7.403408    8.725000   10.000000    ( 0.0000,  0.0000,  0.0000)
  42 Li     7.403408    6.980000   12.467803    ( 0.0000,  0.0000,  0.0000)
  43 Li     4.935605    8.725000   12.467803    ( 0.0000,  0.0000,  0.0000)
  44 Li     4.935541    6.980000   14.936230    ( 0.0000,  0.0000,  0.0000)
  45 Li     7.403408    8.724966   14.936096    ( 0.0000,  0.0000,  0.0000)
  46 Li     7.403408    6.980000   17.402146    ( 0.0000,  0.0000,  0.0000)
  47 Li     4.935704    8.725007   17.402053    ( 0.0000,  0.0000,  0.0000)
  48 Li     9.871211    0.000000   10.000000    ( 0.0000,  0.0000,  0.0000)
  49 Li    12.339013    1.745000   10.000000    ( 0.0000,  0.0000,  0.0000)
  50 Li    12.339013    0.000000   12.467803    ( 0.0000,  0.0000,  0.0000)
  51 Li     9.871211    1.745000   12.467803    ( 0.0000,  0.0000,  0.0000)
  52 Li     9.871277   -0.000031   14.936180    ( 0.0000,  0.0000,  0.0000)
  53 Li    12.338939    1.745000   14.935611    ( 0.0000,  0.0000,  0.0000)
  54 Li    12.340810    0.001240   17.403748    ( 0.0000,  0.0000,  0.0000)
  55 Li     9.871480    1.745000   17.402386    ( 0.0000,  0.0000,  0.0000)
  56 Li     9.871211    3.490000   10.000000    ( 0.0000,  0.0000,  0.0000)
  57 Li    12.339013    5.235000   10.000000    ( 0.0000,  0.0000,  0.0000)
  58 Li    12.339013    3.490000   12.467803    ( 0.0000,  0.0000,  0.0000)
  59 Li     9.871211    5.235000   12.467803    ( 0.0000,  0.0000,  0.0000)
  60 Li     9.871277    3.490031   14.936180    ( 0.0000,  0.0000,  0.0000)
  61 Li    12.338945    5.234993   14.936043    ( 0.0000,  0.0000,  0.0000)
  62 Li    12.340810    3.488760   17.403748    ( 0.0000,  0.0000,  0.0000)
  63 Li     9.871112    5.234993   17.402053    ( 0.0000,  0.0000,  0.0000)
  64 Li     9.871211    6.980000   10.000000    ( 0.0000,  0.0000,  0.0000)
  65 Li    12.339013    8.725000   10.000000    ( 0.0000,  0.0000,  0.0000)
  66 Li    12.339013    6.980000   12.467803    ( 0.0000,  0.0000,  0.0000)
  67 Li     9.871211    8.725000   12.467803    ( 0.0000,  0.0000,  0.0000)
  68 Li     9.871275    6.980000   14.936230    ( 0.0000,  0.0000,  0.0000)
  69 Li    12.338946    8.725007   14.936043    ( 0.0000,  0.0000,  0.0000)
  70 Li    12.338955    6.980000   17.402068    ( 0.0000,  0.0000,  0.0000)
  71 Li     9.871112    8.725007   17.402053    ( 0.0000,  0.0000,  0.0000)
  72 Li     0.000000    1.745000   19.424225    ( 0.0000,  0.0000,  0.0000)

Unit cell:
           periodic     x           y           z      points  spacing
  1. axis:    yes   14.806816    0.000000    0.000000    49     0.3022
  2. axis:    yes    0.000000   10.470000    0.000000    35     0.2991
  3. axis:    no     0.000000    0.000000   27.403408    90     0.3045

  Lengths:  14.806816  10.470000  27.403408
  Angles:   90.000000  90.000000  90.000000

Effective grid spacing dv^(1/3) = 0.3019

     iter     time        total  log10-change:
                         energy   eigst   dens
iter:   1 03:36:38  -127.957959   -3.59
iter:   2 03:36:40  -127.953637   -4.43  -2.18
iter:   3 03:36:42  -127.953019c  -4.54  -2.32
iter:   4 03:36:45  -127.953185c  -4.76  -2.62
iter:   5 03:36:47  -127.952693c  -5.35c -2.75
iter:   6 03:36:49  -127.952668c  -5.39c -3.07
iter:   7 03:36:51  -127.952636c  -5.98c -3.26
iter:   8 03:36:53  -127.952477c  -5.80c -3.33
iter:   9 03:36:56  -127.952526c  -6.11c -3.50
iter:  10 03:36:58  -127.952533c  -6.06c -3.59
iter:  11 03:37:00  -127.952505c  -6.28c -3.67
iter:  12 03:37:02  -127.952506c  -6.27c -3.73
iter:  13 03:37:04  -127.952524c  -6.21c -3.86
iter:  14 03:37:06  -127.952518c  -6.42c -4.01c

Converged after 14 iterations.

Dipole moment: (-0.000000, -0.654194, 0.240727) |e|*Ang

Energy contributions relative to reference atoms: (reference = -14803.510878)

Kinetic:       +108.897664
Potential:      -96.107950
External:        +0.000000
XC:            -139.565518
Entropy (-ST):   -1.415096
Local:           -0.469166
SIC:             +0.000000
--------------------------
Free energy:   -128.660066
Extrapolated:  -127.952518

 Band  Eigenvalues  Occupancy
    0     -5.09851    2.00000
    1     -4.83878    2.00000
    2     -4.57871    2.00000
    3     -4.52743    2.00000
    4     -4.32247    2.00000
    5     -4.31858    2.00000
    6     -4.26524    2.00000
    7     -4.00955    2.00000
    8     -3.80620    2.00000
    9     -3.75793    2.00000
   10     -3.73913    2.00000
   11     -3.54629    2.00000
   12     -3.53027    2.00000
   13     -3.49378    2.00000
   14     -3.28481    2.00000
   15     -3.24933    2.00000
   16     -3.21959    2.00000
   17     -3.03236    1.99999
   18     -2.98687    1.99998
   19     -2.96528    1.99997
   20     -2.95262    1.99997
   21     -2.79250    1.99985
   22     -2.75407    1.99978
   23     -2.72115    1.99970
   24     -2.67815    1.99954
   25     -2.54887    1.99833
   26     -2.48235    1.99675
   27     -2.33095    1.98529
   28     -2.28316    1.97639
   29     -2.19953    1.94634
   30     -2.05329    1.78731
   31     -2.01762    1.70939
   32     -1.99505    1.64872
   33     -1.95140    1.50415
   34     -1.94337    1.47361
   35     -1.92275    1.38981
   36     -1.86374    1.11602
   37     -1.77958    0.70481
   38     -1.74300    0.54805
   39     -1.71016    0.42741
   40     -1.68745    0.35605
   41     -1.55738    0.11139
   42     -1.53546    0.09046
   43     -1.50747    0.06914
   44     -1.48611    0.05621
   45     -1.47432    0.05012
   46     -1.43570    0.03434
   47     -1.38654    0.02115

Fermi level: -1.84043

Gap: 0.084 eV
Transition (v -> c):
  (s=0, k=0, n=36, [0.25, 0.25, 0.00]) -> (s=0, k=0, n=37, [0.25, 0.25, 0.00])
No difference between direct/indirect transitions

Forces in eV/Ang:
  0 Li    0.00000    0.00217    0.09631
  1 Li   -0.00259    0.00000    0.09403
  2 Li    0.00399    0.00019   -0.04425
  3 Li    0.00000    0.00000   -0.02382
  4 Li    0.00000   -0.00899   -0.02100
  5 Li    0.00542    0.00000   -0.00168
  6 Li   -0.12193    0.08471    0.02270
  7 Li    0.00000    0.00000   -1.77906
  8 Li    0.00000   -0.00217    0.09631
  9 Li    0.00067   -0.00222    0.08961
 10 Li    0.00399   -0.00019   -0.04425
 11 Li    0.00000    0.00101   -0.04671
 12 Li    0.00000    0.00899   -0.02100
 13 Li    0.00374   -0.00180    0.03109
 14 Li   -0.12193   -0.08471    0.02270
 15 Li    0.00000   -0.12693   -0.00025
 16 Li    0.00000    0.00000    0.08957
 17 Li    0.00067    0.00222    0.08962
 18 Li   -0.00169    0.00000   -0.04237
 19 Li    0.00000   -0.00101   -0.04671
 20 Li    0.00000    0.00000    0.04683
 21 Li    0.00374    0.00179    0.03109
 22 Li    0.00290    0.00000   -0.09249
 23 Li    0.00000    0.12693   -0.00025
 24 Li    0.00408    0.00007    0.08761
 25 Li    0.00000   -0.00000    0.08808
 26 Li    0.00000   -0.00178   -0.03820
 27 Li   -0.00127    0.00000   -0.04168
 28 Li   -0.00459   -0.00177    0.03879
 29 Li    0.00000   -0.00000    0.04052
 30 Li    0.00000    0.00092   -0.08981
 31 Li   -0.01811    0.00000   -0.07097
 32 Li    0.00407   -0.00007    0.08761
 33 Li    0.00000   -0.00012    0.09102
 34 Li    0.00000    0.00178   -0.03820
 35 Li    0.00212    0.00048   -0.03923
 36 Li   -0.00459    0.00178    0.03879
 37 Li    0.00000    0.00216    0.03334
 38 Li    0.00000   -0.00092   -0.08981
 39 Li    0.00553   -0.00093   -0.09329
 40 Li    0.00502   -0.00000    0.08937
 41 Li    0.00000    0.00012    0.09102
 42 Li    0.00000    0.00000   -0.03299
 43 Li    0.00212   -0.00048   -0.03923
 44 Li   -0.00429   -0.00000    0.04224
 45 Li    0.00000   -0.00216    0.03334
 46 Li    0.00000    0.00000   -0.08739
 47 Li    0.00553    0.00093   -0.09329
 48 Li   -0.00408    0.00007    0.08761
 49 Li    0.00259    0.00000    0.09403
 50 Li   -0.00399    0.00019   -0.04425
 51 Li    0.00127    0.00000   -0.04168
 52 Li    0.00459   -0.00177    0.03879
 53 Li   -0.00542    0.00000   -0.00168
 54 Li    0.12193    0.08471    0.02270
 55 Li    0.01811    0.00000   -0.07097
 56 Li   -0.00407   -0.00007    0.08761
 57 Li   -0.00067   -0.00222    0.08961
 58 Li   -0.00399   -0.00019   -0.04425
 59 Li   -0.00212    0.00048   -0.03923
 60 Li    0.00459    0.00178    0.03879
 61 Li   -0.00374   -0.00180    0.03109
 62 Li    0.12193   -0.08471    0.02270
 63 Li   -0.00553   -0.00093   -0.09329
 64 Li   -0.00502   -0.00000    0.08937
 65 Li   -0.00067    0.00222    0.08962
 66 Li    0.00169    0.00000   -0.04237
 67 Li   -0.00212   -0.00048   -0.03923
 68 Li    0.00429   -0.00000    0.04224
 69 Li   -0.00374    0.00179    0.03109
 70 Li   -0.00290    0.00000   -0.09249
 71 Li   -0.00553    0.00093   -0.09329
 72 Li    0.00000   -0.00000    1.28047

System changes: positions 

Initializing position-dependent things.

Density initialized from wave functions
       .-----------------------------------.  
      /|                                   |  
     / |                                   |  
    /  |                                   |  
   /   |                                   |  
  /    |                                   |  
 *     |                                   |  
 |     |                                   |  
 |     |                                   |  
 |     |                                   |  
 |     |                                   |  
 |     |                                   |  
 |     |                                   |  
 |    Li          Li          Li           |  
 |     |   Li          Li          Li      |  
 |LiLi Li       Li Li       Li Li          |  
 |     | Li Li       Li Li       Li Li     |  
 |   Li|      Li Li       Li Li            |  
 |Li   Li Li       Li Li       Li Li       |  
 | Li  |       Li          Li              |  
 |    LiLi        LiLi        LiLi         |  
 |     |   Li          Li          Li      |  
 |  Li |        Li          Li             |  
 |     | Li Li       Li Li       Li Li     |  
 |Li Li|      Li Li       Li Li            |  
 |     Li Li       Li Li       Li Li       |  
 | Li  |       Li          Li              |  
 |     |Li          Li          Li         |  
 Li    |     Li          Li                |  
 |     |                                   |  
 |     |                                   |  
 |     |                                   |  
 |     |                                   |  
 |     |                                   |  
 |     .-----------------------------------.  
 |    /                                   /   
 |   /                                   /    
 |  /                                   /     
 | /                                   /      
 |/                                   /       
 *-----------------------------------*        

Atomic positions and initial magnetic moments

Positions:
   0 Li     0.000000    0.000000   10.000000    ( 0.0000,  0.0000,  0.0000)
   1 Li     2.467803    1.745000   10.000000    ( 0.0000,  0.0000,  0.0000)
   2 Li     2.467803    0.000000   12.467803    ( 0.0000,  0.0000,  0.0000)
   3 Li     0.000000    1.745000   12.467803    ( 0.0000,  0.0000,  0.0000)
   4 Li     0.000000   -0.001051   14.933088    ( 0.0000,  0.0000,  0.0000)
   5 Li     2.468486    1.745000   14.935423    ( 0.0000,  0.0000,  0.0000)
   6 Li     2.452303    0.010760   17.406299    ( 0.0000,  0.0000,  0.0000)
   7 Li     0.000000    1.745000   17.175069    ( 0.0000,  0.0000,  0.0000)
   8 Li     0.000000    3.490000   10.000000    ( 0.0000,  0.0000,  0.0000)
   9 Li     2.467803    5.235000   10.000000    ( 0.0000,  0.0000,  0.0000)
  10 Li     2.467803    3.490000   12.467803    ( 0.0000,  0.0000,  0.0000)
  11 Li     0.000000    5.235000   12.467803    ( 0.0000,  0.0000,  0.0000)
  12 Li     0.000000    3.491051   14.933088    ( 0.0000,  0.0000,  0.0000)
  13 Li     2.468292    5.234792   14.939536    ( 0.0000,  0.0000,  0.0000)
  14 Li     2.452303    3.479240   17.406299    ( 0.0000,  0.0000,  0.0000)
  15 Li     0.000000    5.218839   17.403406    ( 0.0000,  0.0000,  0.0000)
  16 Li     0.000000    6.980000   10.000000    ( 0.0000,  0.0000,  0.0000)
  17 Li     2.467803    8.725000   10.000000    ( 0.0000,  0.0000,  0.0000)
  18 Li     2.467803    6.980000   12.467803    ( 0.0000,  0.0000,  0.0000)
  19 Li     0.000000    8.725000   12.467803    ( 0.0000,  0.0000,  0.0000)
  20 Li     0.000000    6.980000   14.941533    ( 0.0000,  0.0000,  0.0000)
  21 Li     2.468292    8.725208   14.939536    ( 0.0000,  0.0000,  0.0000)
  22 Li     2.468188    6.980000   17.391675    ( 0.0000,  0.0000,  0.0000)
  23 Li     0.000000    8.741161   17.403406    ( 0.0000,  0.0000,  0.0000)
  24 Li     4.935605    0.000000   10.000000    ( 0.0000,  0.0000,  0.0000)
  25 Li     7.403408    1.745000   10.000000    ( 0.0000,  0.0000,  0.0000)
  26 Li     7.403408    0.000000   12.467803    ( 0.0000,  0.0000,  0.0000)
  27 Li     4.935605    1.745000   12.467803    ( 0.0000,  0.0000,  0.0000)
  28 Li     4.935024   -0.000230   14.940539    ( 0.0000,  0.0000,  0.0000)
  29 Li     7.403408    1.745000   14.940757    ( 0.0000,  0.0000,  0.0000)
  30 Li     7.403408    0.000115   17.392016    ( 0.0000,  0.0000,  0.0000)
  31 Li     4.933301    1.745000   17.394411    ( 0.0000,  0.0000,  0.0000)
  32 Li     4.935605    3.490000   10.000000    ( 0.0000,  0.0000,  0.0000)
  33 Li     7.403408    5.235000   10.000000    ( 0.0000,  0.0000,  0.0000)
  34 Li     7.403408    3.490000   12.467803    ( 0.0000,  0.0000,  0.0000)
  35 Li     4.935605    5.235000   12.467803    ( 0.0000,  0.0000,  0.0000)
  36 Li     4.935023    3.490230   14.940539    ( 0.0000,  0.0000,  0.0000)
  37 Li     7.403408    5.235277   14.939843    ( 0.0000,  0.0000,  0.0000)
  38 Li     7.403408    3.489885   17.392016    ( 0.0000,  0.0000,  0.0000)
  39 Li     4.936326    5.234889   17.391570    ( 0.0000,  0.0000,  0.0000)
  40 Li     4.935605    6.980000   10.000000    ( 0.0000,  0.0000,  0.0000)
  41 Li     7.403408    8.725000   10.000000    ( 0.0000,  0.0000,  0.0000)
  42 Li     7.403408    6.980000   12.467803    ( 0.0000,  0.0000,  0.0000)
  43 Li     4.935605    8.725000   12.467803    ( 0.0000,  0.0000,  0.0000)
  44 Li     4.935059    6.980000   14.940977    ( 0.0000,  0.0000,  0.0000)
  45 Li     7.403408    8.724723   14.939842    ( 0.0000,  0.0000,  0.0000)
  46 Li     7.403408    6.980000   17.392326    ( 0.0000,  0.0000,  0.0000)
  47 Li     4.936326    8.725111   17.391570    ( 0.0000,  0.0000,  0.0000)
  48 Li     9.871211    0.000000   10.000000    ( 0.0000,  0.0000,  0.0000)
  49 Li    12.339013    1.745000   10.000000    ( 0.0000,  0.0000,  0.0000)
  50 Li    12.339013    0.000000   12.467803    ( 0.0000,  0.0000,  0.0000)
  51 Li     9.871211    1.745000   12.467803    ( 0.0000,  0.0000,  0.0000)
  52 Li     9.871792   -0.000230   14.940539    ( 0.0000,  0.0000,  0.0000)
  53 Li    12.338330    1.745000   14.935423    ( 0.0000,  0.0000,  0.0000)
  54 Li    12.354513    0.010760   17.406299    ( 0.0000,  0.0000,  0.0000)
  55 Li     9.873515    1.745000   17.394411    ( 0.0000,  0.0000,  0.0000)
  56 Li     9.871211    3.490000   10.000000    ( 0.0000,  0.0000,  0.0000)
  57 Li    12.339013    5.235000   10.000000    ( 0.0000,  0.0000,  0.0000)
  58 Li    12.339013    3.490000   12.467803    ( 0.0000,  0.0000,  0.0000)
  59 Li     9.871211    5.235000   12.467803    ( 0.0000,  0.0000,  0.0000)
  60 Li     9.871793    3.490230   14.940539    ( 0.0000,  0.0000,  0.0000)
  61 Li    12.338524    5.234792   14.939536    ( 0.0000,  0.0000,  0.0000)
  62 Li    12.354513    3.479240   17.406299    ( 0.0000,  0.0000,  0.0000)
  63 Li     9.870490    5.234889   17.391570    ( 0.0000,  0.0000,  0.0000)
  64 Li     9.871211    6.980000   10.000000    ( 0.0000,  0.0000,  0.0000)
  65 Li    12.339013    8.725000   10.000000    ( 0.0000,  0.0000,  0.0000)
  66 Li    12.339013    6.980000   12.467803    ( 0.0000,  0.0000,  0.0000)
  67 Li     9.871211    8.725000   12.467803    ( 0.0000,  0.0000,  0.0000)
  68 Li     9.871757    6.980000   14.940977    ( 0.0000,  0.0000,  0.0000)
  69 Li    12.338524    8.725208   14.939536    ( 0.0000,  0.0000,  0.0000)
  70 Li    12.338628    6.980000   17.391675    ( 0.0000,  0.0000,  0.0000)
  71 Li     9.870490    8.725111   17.391570    ( 0.0000,  0.0000,  0.0000)
  72 Li     0.000000    1.745000   19.568187    ( 0.0000,  0.0000,  0.0000)

Unit cell:
           periodic     x           y           z      points  spacing
  1. axis:    yes   14.806816    0.000000    0.000000    49     0.3022
  2. axis:    yes    0.000000   10.470000    0.000000    35     0.2991
  3. axis:    no     0.000000    0.000000   27.403408    90     0.3045

  Lengths:  14.806816  10.470000  27.403408
  Angles:   90.000000  90.000000  90.000000

Effective grid spacing dv^(1/3) = 0.3019

     iter     time        total  log10-change:
                         energy   eigst   dens
iter:   1 03:37:12  -128.803607   -1.81
iter:   2 03:37:14  -128.464143   -2.57  -1.26
iter:   3 03:37:17  -128.361657   -2.91  -1.41
iter:   4 03:37:19  -128.337361   -2.90  -1.75
iter:   5 03:37:21  -128.323323   -3.57  -1.89
iter:   6 03:37:23  -128.321972c  -3.74  -2.22
iter:   7 03:37:25  -128.322130c  -4.37  -2.39
iter:   8 03:37:28  -128.320731c  -4.85  -2.51
iter:   9 03:37:30  -128.320352c  -5.14  -2.69
iter:  10 03:37:32  -128.320685c  -5.28  -2.79
iter:  11 03:37:34  -128.320638c  -5.78c -2.87
iter:  12 03:37:36  -128.320547c  -5.61c -2.93
iter:  13 03:37:39  -128.320676c  -5.93c -3.02
iter:  14 03:37:41  -128.320753c  -6.08c -3.12
iter:  15 03:37:43  -128.320654c  -6.27c -3.23
iter:  16 03:37:45  -128.320607c  -6.31c -3.37
iter:  17 03:37:47  -128.320688c  -6.36c -3.53
iter:  18 03:37:50  -128.320651c  -6.69c -3.66
iter:  19 03:37:52  -128.320634c  -6.72c -3.76
iter:  20 03:37:54  -128.320658c  -6.87c -3.81
iter:  21 03:37:56  -128.320651c  -6.84c -3.96
iter:  22 03:37:58  -128.320630c  -6.87c -4.10c

Converged after 22 iterations.

Dipole moment: (-0.000000, -0.973668, 0.338850) |e|*Ang

Energy contributions relative to reference atoms: (reference = -14803.510878)

Kinetic:       +108.195286
Potential:      -95.894240
External:        +0.000000
XC:            -139.446012
Entropy (-ST):   -1.411913
Local:           -0.469708
SIC:             +0.000000
--------------------------
Free energy:   -129.026587
Extrapolated:  -128.320630

 Band  Eigenvalues  Occupancy
    0     -5.08209    2.00000
    1     -4.82246    2.00000
    2     -4.56258    2.00000
    3     -4.51256    2.00000
    4     -4.30717    2.00000
    5     -4.30167    2.00000
    6     -4.25008    2.00000
    7     -3.99469    2.00000
    8     -3.79030    2.00000
    9     -3.74293    2.00000
   10     -3.72379    2.00000
   11     -3.53037    2.00000
   12     -3.51357    2.00000
   13     -3.47704    2.00000
   14     -3.26841    2.00000
   15     -3.23347    2.00000
   16     -3.20199    2.00000
   17     -3.01611    1.99999
   18     -2.97048    1.99998
   19     -2.94884    1.99997
   20     -2.93662    1.99997
   21     -2.77606    1.99986
   22     -2.73764    1.99979
   23     -2.70457    1.99971
   24     -2.65665    1.99953
   25     -2.53291    1.99837
   26     -2.46642    1.99683
   27     -2.31749    1.98603
   28     -2.27670    1.97906
   29     -2.17724    1.94438
   30     -2.03538    1.78863
   31     -2.00155    1.71564
   32     -1.97972    1.65815
   33     -1.93219    1.50193
   34     -1.92601    1.47844
   35     -1.90331    1.38633
   36     -1.84268    1.10392
   37     -1.75640    0.68409
   38     -1.72545    0.55228
   39     -1.69117    0.42615
   40     -1.67462    0.37328
   41     -1.52884    0.10140
   42     -1.51944    0.09272
   43     -1.48970    0.06971
   44     -1.46604    0.05542
   45     -1.45862    0.05157
   46     -1.41991    0.03531
   47     -1.36986    0.02155

Fermi level: -1.82182

Gap: 0.086 eV
Transition (v -> c):
  (s=0, k=0, n=36, [0.25, 0.25, 0.00]) -> (s=0, k=0, n=37, [0.25, 0.25, 0.00])
No difference between direct/indirect transitions

Forces in eV/Ang:
  0 Li    0.00000    0.00189    0.09747
  1 Li   -0.00244    0.00000    0.09393
  2 Li    0.00575   -0.00244   -0.04763
  3 Li    0.00000    0.00000   -0.01581
  4 Li    0.00000   -0.05720   -0.09765
  5 Li    0.00869    0.00000   -0.01628
  6 Li   -0.09798    0.07406    0.01473
  7 Li    0.00000    0.00000   -0.62768
  8 Li    0.00000   -0.00189    0.09747
  9 Li    0.00029   -0.00300    0.09128
 10 Li    0.00574    0.00243   -0.04763
 11 Li    0.00000    0.00515   -0.04995
 12 Li    0.00000    0.05720   -0.09765
 13 Li   -0.00071   -0.01165    0.03119
 14 Li   -0.09798   -0.07406    0.01473
 15 Li    0.00000   -0.09145   -0.01139
 16 Li    0.00000    0.00000    0.08852
 17 Li    0.00029    0.00300    0.09128
 18 Li   -0.00100    0.00000   -0.03580
 19 Li    0.00000   -0.00515   -0.04995
 20 Li    0.00000    0.00000    0.04498
 21 Li   -0.00071    0.01165    0.03119
 22 Li   -0.00353    0.00000   -0.08207
 23 Li    0.00000    0.09145   -0.01139
 24 Li    0.00420    0.00008    0.08630
 25 Li    0.00000    0.00000    0.08939
 26 Li    0.00000   -0.00161   -0.03620
 27 Li   -0.00074    0.00000   -0.03873
 28 Li   -0.00393    0.00004    0.02886
 29 Li    0.00000    0.00000    0.02976
 30 Li    0.00000    0.00198   -0.08164
 31 Li   -0.01368    0.00000   -0.06689
 32 Li    0.00420   -0.00007    0.08630
 33 Li    0.00000    0.00097    0.09043
 34 Li    0.00000    0.00161   -0.03620
 35 Li    0.00081    0.00069   -0.03470
 36 Li   -0.00393   -0.00004    0.02886
 37 Li    0.00000    0.00168    0.02449
 38 Li    0.00000   -0.00198   -0.08164
 39 Li   -0.00396   -0.00553   -0.08262
 40 Li    0.00679    0.00000    0.09098
 41 Li    0.00000   -0.00097    0.09043
 42 Li    0.00000    0.00000   -0.03217
 43 Li    0.00081   -0.00069   -0.03470
 44 Li   -0.00203   -0.00000    0.02857
 45 Li    0.00000   -0.00168    0.02449
 46 Li    0.00000   -0.00000   -0.08055
 47 Li   -0.00396    0.00553   -0.08262
 48 Li   -0.00420    0.00008    0.08630
 49 Li    0.00244    0.00000    0.09393
 50 Li   -0.00575   -0.00244   -0.04763
 51 Li    0.00074    0.00000   -0.03873
 52 Li    0.00393    0.00004    0.02886
 53 Li   -0.00869    0.00000   -0.01628
 54 Li    0.09798    0.07406    0.01473
 55 Li    0.01368    0.00000   -0.06689
 56 Li   -0.00420   -0.00007    0.08630
 57 Li   -0.00029   -0.00300    0.09128
 58 Li   -0.00574    0.00243   -0.04763
 59 Li   -0.00081    0.00069   -0.03470
 60 Li    0.00393   -0.00004    0.02886
 61 Li    0.00071   -0.01165    0.03119
 62 Li    0.09798   -0.07406    0.01473
 63 Li    0.00396   -0.00553   -0.08262
 64 Li   -0.00679    0.00000    0.09098
 65 Li   -0.00029    0.00300    0.09128
 66 Li    0.00100    0.00000   -0.03580
 67 Li   -0.00081   -0.00069   -0.03470
 68 Li    0.00203   -0.00000    0.02857
 69 Li    0.00071    0.01165    0.03119
 70 Li    0.00353    0.00000   -0.08207
 71 Li    0.00396    0.00553   -0.08262
 72 Li    0.00000   -0.00000    0.33226

System changes: positions 

Initializing position-dependent things.

Density initialized from wave functions
       .-----------------------------------.  
      /|                                   |  
     / |                                   |  
    /  |                                   |  
   /   |                                   |  
  /    |                                   |  
 *     |                                   |  
 |     |                                   |  
 |     |                                   |  
 |     |                                   |  
 |     |                                   |  
 |     |                                   |  
 |     |                                   |  
 |    Li          Li          Li           |  
 |     |   Li          Li          Li      |  
 |LiLi Li       Li Li       Li Li          |  
 |     | Li Li       Li Li       Li Li     |  
 |   Li|      Li Li       Li Li            |  
 |Li   Li Li       Li Li       Li Li       |  
 | Li  |       Li          Li              |  
 |    LiLi        LiLi        LiLi         |  
 |     |   Li          Li          Li      |  
 |  Li |        Li          Li             |  
 |     | Li Li       Li Li       Li Li     |  
 |Li Li|      Li Li       Li Li            |  
 |     Li Li       Li Li       Li Li       |  
 | Li  |       Li          Li              |  
 |     |Li          Li          Li         |  
 Li    |     Li          Li                |  
 |     |                                   |  
 |     |                                   |  
 |     |                                   |  
 |     |                                   |  
 |     |                                   |  
 |     .-----------------------------------.  
 |    /                                   /   
 |   /                                   /    
 |  /                                   /     
 | /                                   /      
 |/                                   /       
 *-----------------------------------*        

Atomic positions and initial magnetic moments

Positions:
   0 Li     0.000000    0.000000   10.000000    ( 0.0000,  0.0000,  0.0000)
   1 Li     2.467803    1.745000   10.000000    ( 0.0000,  0.0000,  0.0000)
   2 Li     2.467803    0.000000   12.467803    ( 0.0000,  0.0000,  0.0000)
   3 Li     0.000000    1.745000   12.467803    ( 0.0000,  0.0000,  0.0000)
   4 Li     0.000000   -0.002765   14.929866    ( 0.0000,  0.0000,  0.0000)
   5 Li     2.468959    1.745000   14.934982    ( 0.0000,  0.0000,  0.0000)
   6 Li     2.443788    0.016806   17.407808    ( 0.0000,  0.0000,  0.0000)
   7 Li     0.000000    1.745000   17.068224    ( 0.0000,  0.0000,  0.0000)
   8 Li     0.000000    3.490000   10.000000    ( 0.0000,  0.0000,  0.0000)
   9 Li     2.467803    5.235000   10.000000    ( 0.0000,  0.0000,  0.0000)
  10 Li     2.467803    3.490000   12.467803    ( 0.0000,  0.0000,  0.0000)
  11 Li     0.000000    5.235000   12.467803    ( 0.0000,  0.0000,  0.0000)
  12 Li     0.000000    3.492765   14.929866    ( 0.0000,  0.0000,  0.0000)
  13 Li     2.468473    5.234444   14.941842    ( 0.0000,  0.0000,  0.0000)
  14 Li     2.443788    3.473194   17.407807    ( 0.0000,  0.0000,  0.0000)
  15 Li     0.000000    5.210204   17.403146    ( 0.0000,  0.0000,  0.0000)
  16 Li     0.000000    6.980000   10.000000    ( 0.0000,  0.0000,  0.0000)
  17 Li     2.467803    8.725000   10.000000    ( 0.0000,  0.0000,  0.0000)
  18 Li     2.467803    6.980000   12.467803    ( 0.0000,  0.0000,  0.0000)
  19 Li     0.000000    8.725000   12.467803    ( 0.0000,  0.0000,  0.0000)
  20 Li     0.000000    6.980000   14.944962    ( 0.0000,  0.0000,  0.0000)
  21 Li     2.468473    8.725556   14.941842    ( 0.0000,  0.0000,  0.0000)
  22 Li     2.468264    6.980000   17.385049    ( 0.0000,  0.0000,  0.0000)
  23 Li     0.000000    8.749796   17.403146    ( 0.0000,  0.0000,  0.0000)
  24 Li     4.935605    0.000000   10.000000    ( 0.0000,  0.0000,  0.0000)
  25 Li     7.403408    1.745000   10.000000    ( 0.0000,  0.0000,  0.0000)
  26 Li     7.403408    0.000000   12.467803    ( 0.0000,  0.0000,  0.0000)
  27 Li     4.935605    1.745000   12.467803    ( 0.0000,  0.0000,  0.0000)
  28 Li     4.934698   -0.000322   14.943197    ( 0.0000,  0.0000,  0.0000)
  29 Li     7.403408    1.745000   14.943525    ( 0.0000,  0.0000,  0.0000)
  30 Li     7.403408    0.000206   17.385539    ( 0.0000,  0.0000,  0.0000)
  31 Li     4.932055    1.745000   17.389241    ( 0.0000,  0.0000,  0.0000)
  32 Li     4.935605    3.490000   10.000000    ( 0.0000,  0.0000,  0.0000)
  33 Li     7.403408    5.235000   10.000000    ( 0.0000,  0.0000,  0.0000)
  34 Li     7.403408    3.490000   12.467803    ( 0.0000,  0.0000,  0.0000)
  35 Li     4.935605    5.235000   12.467803    ( 0.0000,  0.0000,  0.0000)
  36 Li     4.934698    3.490322   14.943197    ( 0.0000,  0.0000,  0.0000)
  37 Li     7.403408    5.235426   14.942121    ( 0.0000,  0.0000,  0.0000)
  38 Li     7.403408    3.489794   17.385539    ( 0.0000,  0.0000,  0.0000)
  39 Li     4.936530    5.234720   17.384889    ( 0.0000,  0.0000,  0.0000)
  40 Li     4.935605    6.980000   10.000000    ( 0.0000,  0.0000,  0.0000)
  41 Li     7.403408    8.725000   10.000000    ( 0.0000,  0.0000,  0.0000)
  42 Li     7.403408    6.980000   12.467803    ( 0.0000,  0.0000,  0.0000)
  43 Li     4.935605    8.725000   12.467803    ( 0.0000,  0.0000,  0.0000)
  44 Li     4.934790    6.980000   14.943809    ( 0.0000,  0.0000,  0.0000)
  45 Li     7.403408    8.724574   14.942121    ( 0.0000,  0.0000,  0.0000)
  46 Li     7.403408    6.980000   17.385999    ( 0.0000,  0.0000,  0.0000)
  47 Li     4.936530    8.725280   17.384889    ( 0.0000,  0.0000,  0.0000)
  48 Li     9.871211    0.000000   10.000000    ( 0.0000,  0.0000,  0.0000)
  49 Li    12.339013    1.745000   10.000000    ( 0.0000,  0.0000,  0.0000)
  50 Li    12.339013    0.000000   12.467803    ( 0.0000,  0.0000,  0.0000)
  51 Li     9.871211    1.745000   12.467803    ( 0.0000,  0.0000,  0.0000)
  52 Li     9.872118   -0.000322   14.943197    ( 0.0000,  0.0000,  0.0000)
  53 Li    12.337857    1.745000   14.934982    ( 0.0000,  0.0000,  0.0000)
  54 Li    12.363028    0.016806   17.407808    ( 0.0000,  0.0000,  0.0000)
  55 Li     9.874761    1.745000   17.389241    ( 0.0000,  0.0000,  0.0000)
  56 Li     9.871211    3.490000   10.000000    ( 0.0000,  0.0000,  0.0000)
  57 Li    12.339013    5.235000   10.000000    ( 0.0000,  0.0000,  0.0000)
  58 Li    12.339013    3.490000   12.467803    ( 0.0000,  0.0000,  0.0000)
  59 Li     9.871211    5.235000   12.467803    ( 0.0000,  0.0000,  0.0000)
  60 Li     9.872118    3.490322   14.943197    ( 0.0000,  0.0000,  0.0000)
  61 Li    12.338343    5.234444   14.941842    ( 0.0000,  0.0000,  0.0000)
  62 Li    12.363028    3.473194   17.407807    ( 0.0000,  0.0000,  0.0000)
  63 Li     9.870286    5.234720   17.384889    ( 0.0000,  0.0000,  0.0000)
  64 Li     9.871211    6.980000   10.000000    ( 0.0000,  0.0000,  0.0000)
  65 Li    12.339013    8.725000   10.000000    ( 0.0000,  0.0000,  0.0000)
  66 Li    12.339013    6.980000   12.467803    ( 0.0000,  0.0000,  0.0000)
  67 Li     9.871211    8.725000   12.467803    ( 0.0000,  0.0000,  0.0000)
  68 Li     9.872026    6.980000   14.943809    ( 0.0000,  0.0000,  0.0000)
  69 Li    12.338343    8.725556   14.941842    ( 0.0000,  0.0000,  0.0000)
  70 Li    12.338552    6.980000   17.385049    ( 0.0000,  0.0000,  0.0000)
  71 Li     9.870286    8.725280   17.384889    ( 0.0000,  0.0000,  0.0000)
  72 Li     0.000000    1.744999   19.642501    ( 0.0000,  0.0000,  0.0000)

Unit cell:
           periodic     x           y           z      points  spacing
  1. axis:    yes   14.806816    0.000000    0.000000    49     0.3022
  2. axis:    yes    0.000000   10.470000    0.000000    35     0.2991
  3. axis:    no     0.000000    0.000000   27.403408    90     0.3045

  Lengths:  14.806816  10.470000  27.403408
  Angles:   90.000000  90.000000  90.000000

Effective grid spacing dv^(1/3) = 0.3019

     iter     time        total  log10-change:
                         energy   eigst   dens
iter:   1 03:38:04  -128.547865   -2.29
iter:   2 03:38:06  -128.434506   -3.03  -1.49
iter:   3 03:38:09  -128.402245   -3.40  -1.64
iter:   4 03:38:11  -128.396140   -3.37  -1.99
iter:   5 03:38:13  -128.390680c  -4.12  -2.14
iter:   6 03:38:15  -128.390573c  -4.27  -2.49
iter:   7 03:38:17  -128.390911c  -4.81  -2.65
iter:   8 03:38:19  -128.390212c  -5.35c -2.77
iter:   9 03:38:22  -128.389948c  -5.58c -2.95
iter:  10 03:38:24  -128.390170c  -5.78c -3.05
iter:  11 03:38:26  -128.390156c  -6.25c -3.14
iter:  12 03:38:28  -128.389962c  -5.83c -3.21
iter:  13 03:38:30  -128.390128c  -6.30c -3.21
iter:  14 03:38:33  -128.390197c  -6.52c -3.42
iter:  15 03:38:35  -128.390091c  -6.57c -3.51
iter:  16 03:38:37  -128.390129c  -6.87c -3.64
iter:  17 03:38:39  -128.390209c  -6.63c -3.85
iter:  18 03:38:42  -128.390155c  -7.07c -3.79
iter:  19 03:38:44  -128.390131c  -7.18c -4.03c

Converged after 19 iterations.

Dipole moment: (-0.000000, -1.147626, 0.382522) |e|*Ang

Energy contributions relative to reference atoms: (reference = -14803.510878)

Kinetic:       +107.983801
Potential:      -95.788756
External:        +0.000000
XC:            -139.410001
Entropy (-ST):   -1.410648
Local:           -0.469851
SIC:             +0.000000
--------------------------
Free energy:   -129.095455
Extrapolated:  -128.390131

 Band  Eigenvalues  Occupancy
    0     -5.07532    2.00000
    1     -4.81578    2.00000
    2     -4.55601    2.00000
    3     -4.50608    2.00000
    4     -4.30104    2.00000
    5     -4.29471    2.00000
    6     -4.24352    2.00000
    7     -3.98828    2.00000
    8     -3.78388    2.00000
    9     -3.73621    2.00000
   10     -3.71750    2.00000
   11     -3.52394    2.00000
   12     -3.50671    2.00000
   13     -3.46886    2.00000
   14     -3.26181    2.00000
   15     -3.22636    2.00000
   16     -3.19385    2.00000
   17     -3.00965    1.99999
   18     -2.96262    1.99998
   19     -2.94200    1.99997
   20     -2.93003    1.99997
   21     -2.76956    1.99986
   22     -2.73048    1.99979
   23     -2.69685    1.99971
   24     -2.64685    1.99952
   25     -2.52682    1.99840
   26     -2.45996    1.99688
   27     -2.31086    1.98620
   28     -2.27319    1.97996
   29     -2.16726    1.94325
   30     -2.02842    1.79042
   31     -1.99556    1.72030
   32     -1.97202    1.65871
   33     -1.92506    1.50483
   34     -1.91940    1.48343
   35     -1.89414    1.38092
   36     -1.83297    1.09501
   37     -1.74670    0.67607
   38     -1.71853    0.55626
   39     -1.68206    0.42215
   40     -1.66932    0.38127
   41     -1.51893    0.09949
   42     -1.51225    0.09336
   43     -1.48179    0.06970
   44     -1.45752    0.05510
   45     -1.45156    0.05199
   46     -1.41372    0.03591
   47     -1.36217    0.02160

Fermi level: -1.81391

Gap: 0.086 eV
Transition (v -> c):
  (s=0, k=0, n=36, [0.25, 0.25, 0.00]) -> (s=0, k=0, n=37, [0.25, 0.25, 0.00])
No difference between direct/indirect transitions

Forces in eV/Ang:
  0 Li    0.00000    0.00180    0.09841
  1 Li   -0.00227    0.00000    0.09402
  2 Li    0.00644   -0.00383   -0.04890
  3 Li    0.00000    0.00000   -0.01069
  4 Li    0.00000   -0.09251   -0.14381
  5 Li    0.01285    0.00000   -0.02536
  6 Li   -0.08655    0.06972    0.01164
  7 Li    0.00000    0.00000   -0.19196
  8 Li    0.00000   -0.00180    0.09841
  9 Li    0.00021   -0.00326    0.09190
 10 Li    0.00644    0.00383   -0.04890
 11 Li    0.00000    0.00785   -0.05192
 12 Li    0.00000    0.09251   -0.14381
 13 Li   -0.00266   -0.01657    0.02997
 14 Li   -0.08655   -0.06972    0.01164
 15 Li    0.00000   -0.07396   -0.01636
 16 Li    0.00000    0.00000    0.08733
 17 Li    0.00021    0.00326    0.09190
 18 Li   -0.00089    0.00000   -0.03180
 19 Li    0.00000   -0.00785   -0.05192
 20 Li    0.00000    0.00000    0.04295
 21 Li   -0.00266    0.01657    0.02997
 22 Li   -0.00732    0.00000   -0.07503
 23 Li    0.00000    0.07396   -0.01636
 24 Li    0.00428    0.00006    0.08550
 25 Li    0.00000    0.00000    0.08954
 26 Li    0.00000   -0.00182   -0.03492
 27 Li   -0.00058    0.00000   -0.03700
 28 Li   -0.00337    0.00091    0.02227
 29 Li    0.00000    0.00000    0.02284
 30 Li    0.00000    0.00228   -0.07594
 31 Li   -0.01191    0.00000   -0.06311
 32 Li    0.00428   -0.00006    0.08550
 33 Li    0.00000    0.00148    0.09016
 34 Li    0.00000    0.00182   -0.03492
 35 Li    0.00022    0.00074   -0.03216
 36 Li   -0.00337   -0.00091    0.02227
 37 Li    0.00000    0.00163    0.01860
 38 Li    0.00000   -0.00228   -0.07594
 39 Li   -0.00926   -0.00819   -0.07565
 40 Li    0.00752    0.00000    0.09136
 41 Li    0.00000   -0.00148    0.09016
 42 Li    0.00000    0.00000   -0.03162
 43 Li    0.00022   -0.00075   -0.03216
 44 Li   -0.00117    0.00000    0.02022
 45 Li    0.00000   -0.00163    0.01860
 46 Li    0.00000   -0.00000   -0.07577
 47 Li   -0.00925    0.00819   -0.07565
 48 Li   -0.00428    0.00006    0.08550
 49 Li    0.00227    0.00000    0.09402
 50 Li   -0.00644   -0.00383   -0.04890
 51 Li    0.00058    0.00000   -0.03700
 52 Li    0.00337    0.00091    0.02227
 53 Li   -0.01285    0.00000   -0.02536
 54 Li    0.08655    0.06972    0.01164
 55 Li    0.01191    0.00000   -0.06311
 56 Li   -0.00428   -0.00006    0.08550
 57 Li   -0.00021   -0.00326    0.09190
 58 Li   -0.00644    0.00383   -0.04890
 59 Li   -0.00022    0.00074   -0.03216
 60 Li    0.00337   -0.00091    0.02227
 61 Li    0.00266   -0.01657    0.02997
 62 Li    0.08655   -0.06972    0.01164
 63 Li    0.00926   -0.00819   -0.07565
 64 Li   -0.00752    0.00000    0.09136
 65 Li   -0.00021    0.00326    0.09190
 66 Li    0.00089    0.00000   -0.03180
 67 Li   -0.00022   -0.00075   -0.03216
 68 Li    0.00117    0.00000    0.02022
 69 Li    0.00266    0.01657    0.02997
 70 Li    0.00732    0.00000   -0.07503
 71 Li    0.00925    0.00819   -0.07565
 72 Li    0.00000    0.00000    0.01493

System changes: positions 

Initializing position-dependent things.

Density initialized from wave functions
       .-----------------------------------.  
      /|                                   |  
     / |                                   |  
    /  |                                   |  
   /   |                                   |  
  /    |                                   |  
 *     |                                   |  
 |     |                                   |  
 |     |                                   |  
 |     |                                   |  
 |     |                                   |  
 |     |                                   |  
 |     |                                   |  
 |    Li          Li          Li           |  
 |     |   Li          Li          Li      |  
 |LiLi Li       Li Li       Li Li          |  
 |     | Li Li       Li Li       Li Li     |  
 |   Li|      Li Li       Li Li            |  
 |Li   Li Li       Li Li       Li Li       |  
 | Li  |       Li          Li              |  
 |    LiLi        LiLi        LiLi         |  
 |     |   Li          Li          Li      |  
 |  Li |        Li          Li             |  
 |     | Li Li       Li Li       Li Li     |  
 |Li Li|      Li Li       Li Li            |  
 |     Li Li       Li Li       Li Li       |  
 | Li  |       Li          Li              |  
 |     |Li          Li          Li         |  
 Li    |     Li          Li                |  
 |     |                                   |  
 |     |                                   |  
 |     |                                   |  
 |     |                                   |  
 |     |                                   |  
 |     .-----------------------------------.  
 |    /                                   /   
 |   /                                   /    
 |  /                                   /     
 | /                                   /      
 |/                                   /       
 *-----------------------------------*        

Atomic positions and initial magnetic moments

Positions:
   0 Li     0.000000    0.000000   10.000000    ( 0.0000,  0.0000,  0.0000)
   1 Li     2.467803    1.745000   10.000000    ( 0.0000,  0.0000,  0.0000)
   2 Li     2.467803    0.000000   12.467803    ( 0.0000,  0.0000,  0.0000)
   3 Li     0.000000    1.745000   12.467803    ( 0.0000,  0.0000,  0.0000)
   4 Li     0.000000   -0.005205   14.925852    ( 0.0000,  0.0000,  0.0000)
   5 Li     2.469412    1.745000   14.934331    ( 0.0000,  0.0000,  0.0000)
   6 Li     2.438327    0.020829   17.408715    ( 0.0000,  0.0000,  0.0000)
   7 Li     0.000000    1.745000   17.014555    ( 0.0000,  0.0000,  0.0000)
   8 Li     0.000000    3.490000   10.000000    ( 0.0000,  0.0000,  0.0000)
   9 Li     2.467803    5.235000   10.000000    ( 0.0000,  0.0000,  0.0000)
  10 Li     2.467803    3.490000   12.467803    ( 0.0000,  0.0000,  0.0000)
  11 Li     0.000000    5.235000   12.467803    ( 0.0000,  0.0000,  0.0000)
  12 Li     0.000000    3.495205   14.925852    ( 0.0000,  0.0000,  0.0000)
  13 Li     2.468512    5.233997   14.943427    ( 0.0000,  0.0000,  0.0000)
  14 Li     2.438326    3.469171   17.408715    ( 0.0000,  0.0000,  0.0000)
  15 Li     0.000000    5.204904   17.402745    ( 0.0000,  0.0000,  0.0000)
  16 Li     0.000000    6.980000   10.000000    ( 0.0000,  0.0000,  0.0000)
  17 Li     2.467803    8.725000   10.000000    ( 0.0000,  0.0000,  0.0000)
  18 Li     2.467803    6.980000   12.467803    ( 0.0000,  0.0000,  0.0000)
  19 Li     0.000000    8.725000   12.467803    ( 0.0000,  0.0000,  0.0000)
  20 Li     0.000000    6.980000   14.947296    ( 0.0000,  0.0000,  0.0000)
  21 Li     2.468512    8.726003   14.943427    ( 0.0000,  0.0000,  0.0000)
  22 Li     2.468170    6.980000   17.380675    ( 0.0000,  0.0000,  0.0000)
  23 Li     0.000000    8.755095   17.402745    ( 0.0000,  0.0000,  0.0000)
  24 Li     4.935605    0.000000   10.000000    ( 0.0000,  0.0000,  0.0000)
  25 Li     7.403408    1.745000   10.000000    ( 0.0000,  0.0000,  0.0000)
  26 Li     7.403408    0.000000   12.467803    ( 0.0000,  0.0000,  0.0000)
  27 Li     4.935605    1.745000   12.467803    ( 0.0000,  0.0000,  0.0000)
  28 Li     4.934489   -0.000350   14.944813    ( 0.0000,  0.0000,  0.0000)
  29 Li     7.403408    1.745000   14.945203    ( 0.0000,  0.0000,  0.0000)
  30 Li     7.403408    0.000287   17.381218    ( 0.0000,  0.0000,  0.0000)
  31 Li     4.931267    1.745000   17.385751    ( 0.0000,  0.0000,  0.0000)
  32 Li     4.935605    3.490000   10.000000    ( 0.0000,  0.0000,  0.0000)
  33 Li     7.403408    5.235000   10.000000    ( 0.0000,  0.0000,  0.0000)
  34 Li     7.403408    3.490000   12.467803    ( 0.0000,  0.0000,  0.0000)
  35 Li     4.935605    5.235000   12.467803    ( 0.0000,  0.0000,  0.0000)
  36 Li     4.934489    3.490350   14.944813    ( 0.0000,  0.0000,  0.0000)
  37 Li     7.403408    5.235525   14.943497    ( 0.0000,  0.0000,  0.0000)
  38 Li     7.403408    3.489713   17.381219    ( 0.0000,  0.0000,  0.0000)
  39 Li     4.936463    5.234499   17.380479    ( 0.0000,  0.0000,  0.0000)
  40 Li     4.935605    6.980000   10.000000    ( 0.0000,  0.0000,  0.0000)
  41 Li     7.403408    8.725000   10.000000    ( 0.0000,  0.0000,  0.0000)
  42 Li     7.403408    6.980000   12.467803    ( 0.0000,  0.0000,  0.0000)
  43 Li     4.935605    8.725000   12.467803    ( 0.0000,  0.0000,  0.0000)
  44 Li     4.934644    6.980000   14.945471    ( 0.0000,  0.0000,  0.0000)
  45 Li     7.403408    8.724475   14.943497    ( 0.0000,  0.0000,  0.0000)
  46 Li     7.403408    6.980000   17.381751    ( 0.0000,  0.0000,  0.0000)
  47 Li     4.936463    8.725501   17.380479    ( 0.0000,  0.0000,  0.0000)
  48 Li     9.871211    0.000000   10.000000    ( 0.0000,  0.0000,  0.0000)
  49 Li    12.339013    1.745000   10.000000    ( 0.0000,  0.0000,  0.0000)
  50 Li    12.339013    0.000000   12.467803    ( 0.0000,  0.0000,  0.0000)
  51 Li     9.871211    1.745000   12.467803    ( 0.0000,  0.0000,  0.0000)
  52 Li     9.872327   -0.000350   14.944813    ( 0.0000,  0.0000,  0.0000)
  53 Li    12.337404    1.745000   14.934331    ( 0.0000,  0.0000,  0.0000)
  54 Li    12.368489    0.020829   17.408715    ( 0.0000,  0.0000,  0.0000)
  55 Li     9.875549    1.745000   17.385751    ( 0.0000,  0.0000,  0.0000)
  56 Li     9.871211    3.490000   10.000000    ( 0.0000,  0.0000,  0.0000)
  57 Li    12.339013    5.235000   10.000000    ( 0.0000,  0.0000,  0.0000)
  58 Li    12.339013    3.490000   12.467803    ( 0.0000,  0.0000,  0.0000)
  59 Li     9.871211    5.235000   12.467803    ( 0.0000,  0.0000,  0.0000)
  60 Li     9.872327    3.490350   14.944813    ( 0.0000,  0.0000,  0.0000)
  61 Li    12.338304    5.233997   14.943427    ( 0.0000,  0.0000,  0.0000)
  62 Li    12.368490    3.469171   17.408715    ( 0.0000,  0.0000,  0.0000)
  63 Li     9.870353    5.234499   17.380479    ( 0.0000,  0.0000,  0.0000)
  64 Li     9.871211    6.980000   10.000000    ( 0.0000,  0.0000,  0.0000)
  65 Li    12.339013    8.725000   10.000000    ( 0.0000,  0.0000,  0.0000)
  66 Li    12.339013    6.980000   12.467803    ( 0.0000,  0.0000,  0.0000)
  67 Li     9.871211    8.725000   12.467803    ( 0.0000,  0.0000,  0.0000)
  68 Li     9.872172    6.980000   14.945471    ( 0.0000,  0.0000,  0.0000)
  69 Li    12.338304    8.726003   14.943427    ( 0.0000,  0.0000,  0.0000)
  70 Li    12.338646    6.980000   17.380675    ( 0.0000,  0.0000,  0.0000)
  71 Li     9.870353    8.725501   17.380479    ( 0.0000,  0.0000,  0.0000)
  72 Li     0.000000    1.744999   19.678032    ( 0.0000,  0.0000,  0.0000)

Unit cell:
           periodic     x           y           z      points  spacing
  1. axis:    yes   14.806816    0.000000    0.000000    49     0.3022
  2. axis:    yes    0.000000   10.470000    0.000000    35     0.2991
  3. axis:    no     0.000000    0.000000   27.403408    90     0.3045

  Lengths:  14.806816  10.470000  27.403408
  Angles:   90.000000  90.000000  90.000000

Effective grid spacing dv^(1/3) = 0.3019

     iter     time        total  log10-change:
                         energy   eigst   dens
iter:   1 03:38:50  -128.446341   -2.81
iter:   2 03:38:52  -128.414131   -3.60  -1.76
iter:   3 03:38:55  -128.406133   -3.87  -1.91
iter:   4 03:38:57  -128.405619c  -3.94  -2.25
iter:   5 03:38:59  -128.403626c  -4.73  -2.41
iter:   6 03:39:01  -128.403679c  -4.80  -2.76
iter:   7 03:39:03  -128.403869c  -5.36c -2.94
iter:   8 03:39:06  -128.403517c  -5.85c -3.05
iter:   9 03:39:08  -128.403435c  -6.23c -3.23
iter:  10 03:39:10  -128.403546c  -6.27c -3.32
iter:  11 03:39:12  -128.403532c  -6.80c -3.42
iter:  12 03:39:14  -128.403431c  -6.34c -3.49
iter:  13 03:39:17  -128.403522c  -6.86c -3.50
iter:  14 03:39:19  -128.403559c  -7.05c -3.71
iter:  15 03:39:21  -128.403503c  -7.02c -3.81
iter:  16 03:39:23  -128.403555c  -7.13c -3.86
iter:  17 03:39:25  -128.403558c  -7.59c -4.15c

Converged after 17 iterations.

Dipole moment: (-0.000000, -1.237572, 0.402644) |e|*Ang

Energy contributions relative to reference atoms: (reference = -14803.510878)

Kinetic:       +107.955384
Potential:      -95.772656
External:        +0.000000
XC:            -139.411348
Entropy (-ST):   -1.409947
Local:           -0.469965
SIC:             +0.000000
--------------------------
Free energy:   -129.108532
Extrapolated:  -128.403558

 Band  Eigenvalues  Occupancy
    0     -5.07248    2.00000
    1     -4.81298    2.00000
    2     -4.55328    2.00000
    3     -4.50314    2.00000
    4     -4.29850    2.00000
    5     -4.29182    2.00000
    6     -4.24058    2.00000
    7     -3.98542    2.00000
    8     -3.78123    2.00000
    9     -3.73318    2.00000
   10     -3.71478    2.00000
   11     -3.52132    2.00000
   12     -3.50389    2.00000
   13     -3.46491    2.00000
   14     -3.25912    2.00000
   15     -3.22318    2.00000
   16     -3.18996    2.00000
   17     -3.00704    1.99999
   18     -2.95898    1.99998
   19     -2.93896    1.99997
   20     -2.92709    1.99997
   21     -2.76695    1.99986
   22     -2.72732    1.99979
   23     -2.69308    1.99971
   24     -2.64225    1.99951
   25     -2.52448    1.99842
   26     -2.45720    1.99690
   27     -2.30765    1.98625
   28     -2.27145    1.98031
   29     -2.16255    1.94260
   30     -2.02564    1.79182
   31     -1.99329    1.72331
   32     -1.96824    1.65802
   33     -1.92213    1.50706
   34     -1.91682    1.48707
   35     -1.88973    1.37716
   36     -1.82829    1.08931
   37     -1.74228    0.67207
   38     -1.71578    0.55940
   39     -1.67758    0.41897
   40     -1.66707    0.38524
   41     -1.51567    0.09975
   42     -1.50838    0.09306
   43     -1.47819    0.06965
   44     -1.45400    0.05510
   45     -1.44795    0.05195
   46     -1.41112    0.03624
   47     -1.35847    0.02156

Fermi level: -1.81038

Gap: 0.086 eV
Transition (v -> c):
  (s=0, k=0, n=36, [0.25, 0.25, 0.00]) -> (s=0, k=0, n=37, [0.25, 0.25, 0.00])
No difference between direct/indirect transitions

Forces in eV/Ang:
  0 Li    0.00000    0.00156    0.09861
  1 Li   -0.00218    0.00000    0.09393
  2 Li    0.00691   -0.00466   -0.04972
  3 Li    0.00000    0.00000   -0.00837
  4 Li    0.00000   -0.11023   -0.16519
  5 Li    0.01498    0.00000   -0.02992
  6 Li   -0.07993    0.06705    0.01016
  7 Li    0.00000    0.00000   -0.01176
  8 Li    0.00000   -0.00156    0.09861
  9 Li   -0.00004   -0.00333    0.09210
 10 Li    0.00691    0.00466   -0.04972
 11 Li    0.00000    0.01028   -0.05414
 12 Li    0.00000    0.11023   -0.16519
 13 Li   -0.00332   -0.01900    0.02889
 14 Li   -0.07993   -0.06705    0.01016
 15 Li    0.00000   -0.06445   -0.01852
 16 Li    0.00000    0.00000    0.08661
 17 Li   -0.00005    0.00333    0.09210
 18 Li   -0.00101    0.00000   -0.02968
 19 Li    0.00000   -0.01028   -0.05414
 20 Li    0.00000    0.00000    0.04141
 21 Li   -0.00332    0.01900    0.02889
 22 Li   -0.00986    0.00000   -0.07004
 23 Li    0.00000    0.06445   -0.01852
 24 Li    0.00421    0.00014    0.08533
 25 Li    0.00000    0.00000    0.08975
 26 Li    0.00000   -0.00173   -0.03400
 27 Li   -0.00007    0.00000   -0.03613
 28 Li   -0.00269    0.00144    0.01798
 29 Li    0.00000    0.00000    0.01825
 30 Li    0.00000    0.00261   -0.07232
 31 Li   -0.01133    0.00000   -0.06040
 32 Li    0.00421   -0.00014    0.08533
 33 Li    0.00000    0.00154    0.09012
 34 Li    0.00000    0.00173   -0.03400
 35 Li    0.00003    0.00060   -0.03085
 36 Li   -0.00269   -0.00144    0.01798
 37 Li    0.00000    0.00137    0.01471
 38 Li    0.00000   -0.00261   -0.07232
 39 Li   -0.01248   -0.00977   -0.07113
 40 Li    0.00757    0.00000    0.09152
 41 Li    0.00000   -0.00154    0.09012
 42 Li    0.00000    0.00000   -0.03116
 43 Li    0.00003   -0.00060   -0.03085
 44 Li   -0.00080    0.00000    0.01519
 45 Li    0.00000   -0.00137    0.01471
 46 Li    0.00000   -0.00000   -0.07260
 47 Li   -0.01248    0.00977   -0.07113
 48 Li   -0.00421    0.00014    0.08533
 49 Li    0.00218    0.00000    0.09393
 50 Li   -0.00691   -0.00466   -0.04972
 51 Li    0.00007    0.00000   -0.03613
 52 Li    0.00269    0.00144    0.01798
 53 Li   -0.01498    0.00000   -0.02992
 54 Li    0.07993    0.06705    0.01016
 55 Li    0.01133    0.00000   -0.06040
 56 Li   -0.00421   -0.00014    0.08533
 57 Li    0.00004   -0.00333    0.09210
 58 Li   -0.00691    0.00466   -0.04972
 59 Li   -0.00003    0.00060   -0.03085
 60 Li    0.00269   -0.00144    0.01798
 61 Li    0.00332   -0.01900    0.02889
 62 Li    0.07993   -0.06705    0.01016
 63 Li    0.01248   -0.00977   -0.07113
 64 Li   -0.00757    0.00000    0.09152
 65 Li    0.00005    0.00333    0.09210
 66 Li    0.00101    0.00000   -0.02968
 67 Li   -0.00003   -0.00060   -0.03085
 68 Li    0.00080    0.00000    0.01519
 69 Li    0.00332    0.01900    0.02889
 70 Li    0.00986    0.00000   -0.07004
 71 Li    0.01248    0.00977   -0.07113
 72 Li    0.00000    0.00000   -0.10645

System changes: positions 

Initializing position-dependent things.

Density initialized from wave functions
       .-----------------------------------.  
      /|                                   |  
     / |                                   |  
    /  |                                   |  
   /   |                                   |  
  /    |                                   |  
 *     |                                   |  
 |     |                                   |  
 |     |                                   |  
 |     |                                   |  
 |     |                                   |  
 |     |                                   |  
 |     |                                   |  
 |    Li          Li          Li           |  
 |     |   Li          Li          Li      |  
 |LiLi Li       Li Li       Li Li          |  
 |     | Li Li       Li Li       Li Li     |  
 |   Li|      Li Li       Li Li            |  
 |Li   Li Li       Li Li       Li Li       |  
 | Li  |       Li          Li              |  
 |    LiLi        LiLi        LiLi         |  
 |     |   Li          Li          Li      |  
 |  Li |        Li          Li             |  
 |     | Li Li       Li Li       Li Li     |  
 |Li Li|      Li Li       Li Li            |  
 |     Li Li       Li Li       Li Li       |  
 | Li  |       Li          Li              |  
 |     |Li          Li          Li         |  
 Li    |     Li          Li                |  
 |     |                                   |  
 |     |                                   |  
 |     |                                   |  
 |     |                                   |  
 |     |                                   |  
 |     .-----------------------------------.  
 |    /                                   /   
 |   /                                   /    
 |  /                                   /     
 | /                                   /      
 |/                                   /       
 *-----------------------------------*        

Atomic positions and initial magnetic moments

Positions:
   0 Li     0.000000    0.000000   10.000000    ( 0.0000,  0.0000,  0.0000)
   1 Li     2.467803    1.745000   10.000000    ( 0.0000,  0.0000,  0.0000)
   2 Li     2.467803    0.000000   12.467803    ( 0.0000,  0.0000,  0.0000)
   3 Li     0.000000    1.745000   12.467803    ( 0.0000,  0.0000,  0.0000)
   4 Li     0.000000   -0.008206   14.921210    ( 0.0000,  0.0000,  0.0000)
   5 Li     2.469874    1.745000   14.933523    ( 0.0000,  0.0000,  0.0000)
   6 Li     2.434526    0.023772   17.409293    ( 0.0000,  0.0000,  0.0000)
   7 Li     0.000000    1.745000   16.990358    ( 0.0000,  0.0000,  0.0000)
   8 Li     0.000000    3.490000   10.000000    ( 0.0000,  0.0000,  0.0000)
   9 Li     2.467803    5.235000   10.000000    ( 0.0000,  0.0000,  0.0000)
  10 Li     2.467803    3.490000   12.467803    ( 0.0000,  0.0000,  0.0000)
  11 Li     0.000000    5.235000   12.467803    ( 0.0000,  0.0000,  0.0000)
  12 Li     0.000000    3.498206   14.921210    ( 0.0000,  0.0000,  0.0000)
  13 Li     2.468474    5.233469   14.944627    ( 0.0000,  0.0000,  0.0000)
  14 Li     2.434526    3.466228   17.409293    ( 0.0000,  0.0000,  0.0000)
  15 Li     0.000000    5.201444   17.402248    ( 0.0000,  0.0000,  0.0000)
  16 Li     0.000000    6.980000   10.000000    ( 0.0000,  0.0000,  0.0000)
[...]
 44 Li    0.00310    0.00000    0.01294
 45 Li    0.00000   -0.00313   -0.00782
 46 Li    0.00000    0.00000   -0.01949
 47 Li    0.00579   -0.00974   -0.01878
 48 Li   -0.00430    0.00046    0.08526
 49 Li    0.00099    0.00000    0.09405
 50 Li   -0.00941   -0.01658   -0.08342
 51 Li    0.00193    0.00000   -0.07095
 52 Li   -0.00542    0.01409   -0.00506
 53 Li   -0.04248    0.00000    0.01103
 54 Li    0.01206   -0.02209   -0.02745
 55 Li   -0.03282    0.00000   -0.02898
 56 Li   -0.00430   -0.00046    0.08526
 57 Li    0.00015   -0.00421    0.09259
 58 Li   -0.00941    0.01659   -0.08343
 59 Li   -0.00181   -0.00458   -0.05673
 60 Li   -0.00542   -0.01409   -0.00506
 61 Li    0.01773   -0.00157   -0.00781
 62 Li    0.01206    0.02209   -0.02745
 63 Li   -0.00579    0.00974   -0.01878
 64 Li   -0.00710    0.00000    0.09422
 65 Li    0.00015    0.00421    0.09259
 66 Li    0.00814    0.00000    0.01549
 67 Li   -0.00181    0.00458   -0.05673
 68 Li   -0.00310    0.00000    0.01294
 69 Li    0.01773    0.00157   -0.00781
 70 Li    0.01294   -0.00000    0.00363
 71 Li   -0.00579   -0.00974   -0.01878
 72 Li    0.00000   -0.00000    0.06076

System changes: positions 

Initializing position-dependent things.

Density initialized from wave functions
       .-----------------------------------.  
      /|                                   |  
     / |                                   |  
    /  |                                   |  
   /   |                                   |  
  /    |                                   |  
 *     |                                   |  
 |     |                                   |  
 |     |                                   |  
 |     |                                   |  
 |     |                                   |  
 |     |                                   |  
 |     |                                   |  
 |    Li                                   |  
 |     |          Li          Li           |  
 |Li   |   Li          Li          Li      |  
 |  Li LiLi Li  Li          Li   Li Li     |  
 |   Li|             Li Li                 |  
 |Li   Li Li  Li Li       Li LiLi Li       |  
 |     |           Li Li                   |  
 | Li Li       Li Li       Li Li           |  
 |     |Li Li       Li Li       Li Li      |  
 |  Li |     Li Li       Li Li             |  
 |     | Li Li       Li Li       Li Li     |  
 |Li Li|      Li Li       Li Li            |  
 |     Li Li       Li Li       Li Li       |  
 | Li  |       Li          Li              |  
 |     |Li          Li          Li         |  
 Li    |     Li          Li                |  
 |     |                                   |  
 |     |                                   |  
 |     |                                   |  
 |     |                                   |  
 |     |                                   |  
 |     .-----------------------------------.  
 |    /                                   /   
 |   /                                   /    
 |  /                                   /     
 | /                                   /      
 |/                                   /       
 *-----------------------------------*        

Atomic positions and initial magnetic moments

Positions:
   0 Li     0.000000    0.000000   10.000000    ( 0.0000,  0.0000,  0.0000)
   1 Li     2.467803    1.745000   10.000000    ( 0.0000,  0.0000,  0.0000)
   2 Li     2.467803    0.000000   12.467803    ( 0.0000,  0.0000,  0.0000)
   3 Li     0.000000    1.745000   12.467803    ( 0.0000,  0.0000,  0.0000)
   4 Li     0.000000   -0.090563   14.730325    ( 0.0000,  0.0000,  0.0000)
   5 Li     2.440779    1.745001   14.859732    ( 0.0000,  0.0000,  0.0000)
   6 Li     2.337292    0.152003   17.431667    ( 0.0000,  0.0000,  0.0000)
   7 Li     0.000000    1.745001   16.720239    ( 0.0000,  0.0000,  0.0000)
   8 Li     0.000000    3.490000   10.000000    ( 0.0000,  0.0000,  0.0000)
   9 Li     2.467803    5.235000   10.000000    ( 0.0000,  0.0000,  0.0000)
  10 Li     2.467803    3.490000   12.467803    ( 0.0000,  0.0000,  0.0000)
  11 Li     0.000000    5.235000   12.467803    ( 0.0000,  0.0000,  0.0000)
  12 Li     0.000000    3.580562   14.730326    ( 0.0000,  0.0000,  0.0000)
  13 Li     2.486162    5.172800   14.968940    ( 0.0000,  0.0000,  0.0000)
  14 Li     2.337292    3.337998   17.431669    ( 0.0000,  0.0000,  0.0000)
  15 Li     0.000000    5.090910   17.324220    ( 0.0000,  0.0000,  0.0000)
  16 Li     0.000000    6.980000   10.000000    ( 0.0000,  0.0000,  0.0000)
  17 Li     2.467803    8.725000   10.000000    ( 0.0000,  0.0000,  0.0000)
  18 Li     2.467803    6.980000   12.467803    ( 0.0000,  0.0000,  0.0000)
  19 Li     0.000000    8.725000   12.467803    ( 0.0000,  0.0000,  0.0000)
  20 Li     0.000000    6.980001   14.992817    ( 0.0000,  0.0000,  0.0000)
  21 Li     2.486162    8.787200   14.968939    ( 0.0000,  0.0000,  0.0000)
  22 Li     2.396443    6.980001   17.261286    ( 0.0000,  0.0000,  0.0000)
  23 Li     0.000000    8.869089   17.324218    ( 0.0000,  0.0000,  0.0000)
  24 Li     4.935605    0.000000   10.000000    ( 0.0000,  0.0000,  0.0000)
  25 Li     7.403408    1.745000   10.000000    ( 0.0000,  0.0000,  0.0000)
  26 Li     7.403408    0.000000   12.467803    ( 0.0000,  0.0000,  0.0000)
  27 Li     4.935605    1.745000   12.467803    ( 0.0000,  0.0000,  0.0000)
  28 Li     4.940154    0.011849   14.894130    ( 0.0000,  0.0000,  0.0000)
  29 Li     7.403408    1.745001   14.900253    ( 0.0000,  0.0000,  0.0000)
  30 Li     7.403408    0.009117   17.228799    ( 0.0000,  0.0000,  0.0000)
  31 Li     4.875282    1.745001   17.259961    ( 0.0000,  0.0000,  0.0000)
  32 Li     4.935605    3.490000   10.000000    ( 0.0000,  0.0000,  0.0000)
  33 Li     7.403408    5.235000   10.000000    ( 0.0000,  0.0000,  0.0000)
  34 Li     7.403408    3.490000   12.467803    ( 0.0000,  0.0000,  0.0000)
  35 Li     4.935605    5.235000   12.467803    ( 0.0000,  0.0000,  0.0000)
  36 Li     4.940154    3.478151   14.894130    ( 0.0000,  0.0000,  0.0000)
  37 Li     7.403408    5.230787   14.893568    ( 0.0000,  0.0000,  0.0000)
  38 Li     7.403408    3.480883   17.228801    ( 0.0000,  0.0000,  0.0000)
  39 Li     4.856955    5.190561   17.244318    ( 0.0000,  0.0000,  0.0000)
  40 Li     4.935605    6.980000   10.000000    ( 0.0000,  0.0000,  0.0000)
  41 Li     7.403408    8.725000   10.000000    ( 0.0000,  0.0000,  0.0000)
  42 Li     7.403408    6.980000   12.467803    ( 0.0000,  0.0000,  0.0000)
  43 Li     4.935605    8.725000   12.467803    ( 0.0000,  0.0000,  0.0000)
  44 Li     4.927706    6.980000   14.900324    ( 0.0000,  0.0000,  0.0000)
  45 Li     7.403408    8.729212   14.893567    ( 0.0000,  0.0000,  0.0000)
  46 Li     7.403408    6.980000   17.231532    ( 0.0000,  0.0000,  0.0000)
  47 Li     4.856955    8.769439   17.244318    ( 0.0000,  0.0000,  0.0000)
  48 Li     9.871211    0.000000   10.000000    ( 0.0000,  0.0000,  0.0000)
  49 Li    12.339013    1.745000   10.000000    ( 0.0000,  0.0000,  0.0000)
  50 Li    12.339013    0.000000   12.467803    ( 0.0000,  0.0000,  0.0000)
  51 Li     9.871211    1.745000   12.467803    ( 0.0000,  0.0000,  0.0000)
  52 Li     9.866662    0.011849   14.894130    ( 0.0000,  0.0000,  0.0000)
  53 Li    12.366037    1.745001   14.859732    ( 0.0000,  0.0000,  0.0000)
  54 Li    12.469524    0.152003   17.431667    ( 0.0000,  0.0000,  0.0000)
  55 Li     9.931534    1.745001   17.259961    ( 0.0000,  0.0000,  0.0000)
  56 Li     9.871211    3.490000   10.000000    ( 0.0000,  0.0000,  0.0000)
  57 Li    12.339013    5.235000   10.000000    ( 0.0000,  0.0000,  0.0000)
  58 Li    12.339013    3.490000   12.467803    ( 0.0000,  0.0000,  0.0000)
  59 Li     9.871211    5.235000   12.467803    ( 0.0000,  0.0000,  0.0000)
  60 Li     9.866662    3.478151   14.894130    ( 0.0000,  0.0000,  0.0000)
  61 Li    12.320654    5.172800   14.968940    ( 0.0000,  0.0000,  0.0000)
  62 Li    12.469524    3.337998   17.431669    ( 0.0000,  0.0000,  0.0000)
  63 Li     9.949861    5.190561   17.244318    ( 0.0000,  0.0000,  0.0000)
  64 Li     9.871211    6.980000   10.000000    ( 0.0000,  0.0000,  0.0000)
  65 Li    12.339013    8.725000   10.000000    ( 0.0000,  0.0000,  0.0000)
  66 Li    12.339013    6.980000   12.467803    ( 0.0000,  0.0000,  0.0000)
  67 Li     9.871211    8.725000   12.467803    ( 0.0000,  0.0000,  0.0000)
  68 Li     9.879110    6.980000   14.900324    ( 0.0000,  0.0000,  0.0000)
  69 Li    12.320654    8.787200   14.968939    ( 0.0000,  0.0000,  0.0000)
  70 Li    12.410373    6.980001   17.261286    ( 0.0000,  0.0000,  0.0000)
  71 Li     9.949861    8.769439   17.244318    ( 0.0000,  0.0000,  0.0000)
  72 Li     0.000000    1.745003   19.322724    ( 0.0000,  0.0000,  0.0000)

Unit cell:
           periodic     x           y           z      points  spacing
  1. axis:    yes   14.806816    0.000000    0.000000    49     0.3022
  2. axis:    yes    0.000000   10.470000    0.000000    35     0.2991
  3. axis:    no     0.000000    0.000000   27.403408    90     0.3045

  Lengths:  14.806816  10.470000  27.403408
  Angles:   90.000000  90.000000  90.000000

Effective grid spacing dv^(1/3) = 0.3019

     iter     time        total  log10-change:
                         energy   eigst   dens
iter:   1 03:48:02  -128.743395   -2.26
iter:   2 03:48:04  -128.620031   -3.01  -1.46
iter:   3 03:48:06  -128.592805   -3.33  -1.65
iter:   4 03:48:08  -128.591153c  -3.45  -2.03
iter:   5 03:48:11  -128.589479c  -4.43  -2.32
iter:   6 03:48:13  -128.588616c  -4.52  -2.50
iter:   7 03:48:15  -128.588987c  -5.05  -2.85
iter:   8 03:48:17  -128.588580c  -5.46c -2.99
iter:   9 03:48:19  -128.588584c  -6.06c -3.08
iter:  10 03:48:22  -128.588817c  -5.70c -3.15
iter:  11 03:48:24  -128.588660c  -6.25c -3.25
iter:  12 03:48:26  -128.588660c  -6.30c -3.41
iter:  13 03:48:28  -128.588706c  -6.50c -3.50
iter:  14 03:48:30  -128.588726c  -6.75c -3.61
iter:  15 03:48:32  -128.588660c  -6.63c -3.69
iter:  16 03:48:34  -128.588681c  -6.89c -3.79
iter:  17 03:48:37  -128.588693c  -6.73c -3.94
iter:  18 03:48:39  -128.588672c  -7.05c -4.08c

Converged after 18 iterations.

Dipole moment: (-0.000000, -3.449417, 0.352278) |e|*Ang

Energy contributions relative to reference atoms: (reference = -14803.510878)

Kinetic:       +113.868958
Potential:      -99.731737
External:        +0.000000
XC:            -141.549148
Entropy (-ST):   -1.388380
Local:           -0.482555
SIC:             +0.000000
--------------------------
Free energy:   -129.282862
Extrapolated:  -128.588672

 Band  Eigenvalues  Occupancy
    0     -5.09888    2.00000
    1     -4.84085    2.00000
    2     -4.58292    2.00000
    3     -4.51620    2.00000
    4     -4.33002    2.00000
    5     -4.32012    2.00000
    6     -4.25329    2.00000
    7     -4.00132    2.00000
    8     -3.81302    2.00000
    9     -3.75031    2.00000
   10     -3.72921    2.00000
   11     -3.55581    2.00000
   12     -3.53523    2.00000
   13     -3.47379    2.00000
   14     -3.29186    2.00000
   15     -3.23884    2.00000
   16     -3.19566    2.00000
   17     -3.04197    1.99999
   18     -2.97182    1.99998
   19     -2.95210    1.99997
   20     -2.93609    1.99997
   21     -2.80011    1.99988
   22     -2.74333    1.99980
   23     -2.69574    1.99967
   24     -2.64901    1.99948
   25     -2.56214    1.99876
   26     -2.47194    1.99694
   27     -2.32017    1.98610
   28     -2.27505    1.97826
   29     -2.16380    1.93529
   30     -2.06124    1.82942
   31     -2.03154    1.77701
   32     -1.97288    1.63182
   33     -1.95589    1.57804
   34     -1.93978    1.52190
   35     -1.89181    1.32667
   36     -1.81748    0.96749
   37     -1.76023    0.69156
   38     -1.74038    0.60471
   39     -1.68536    0.40001
   40     -1.66324    0.33388
   41     -1.56150    0.13511
   42     -1.51743    0.08910
   43     -1.47748    0.06065
   44     -1.47000    0.05639
   45     -1.44313    0.04340
   46     -1.42803    0.03743
   47     -1.37109    0.02135

Fermi level: -1.82399

Gap: 0.074 eV
Transition (v -> c):
  (s=0, k=0, n=35, [0.25, 0.25, 0.00]) -> (s=0, k=0, n=36, [0.25, 0.25, 0.00])
No difference between direct/indirect transitions

Forces in eV/Ang:
  0 Li    0.00000    0.00122    0.10701
  1 Li   -0.00089    0.00000    0.09403
  2 Li    0.00995   -0.01818   -0.08623
  3 Li    0.00000    0.00000   -0.06094
  4 Li    0.00000   -0.04043   -0.01789
  5 Li    0.04245    0.00000    0.01085
  6 Li    0.00099   -0.03169   -0.03015
  7 Li    0.00000   -0.00000   -0.01698
  8 Li    0.00000   -0.00122    0.10701
  9 Li   -0.00019   -0.00423    0.09286
 10 Li    0.00995    0.01818   -0.08623
 11 Li    0.00000    0.07531   -0.14040
 12 Li    0.00000    0.04043   -0.01789
 13 Li   -0.01776   -0.00251   -0.01343
 14 Li    0.00099    0.03169   -0.03015
 15 Li    0.00000   -0.01744   -0.01740
 16 Li    0.00000    0.00000    0.07912
 17 Li   -0.00019    0.00423    0.09286
 18 Li   -0.00919    0.00000    0.02044
 19 Li    0.00000   -0.07531   -0.14040
 20 Li    0.00000   -0.00000   -0.04787
 21 Li   -0.01776    0.00251   -0.01343
 22 Li   -0.01521   -0.00000    0.01396
 23 Li    0.00000    0.01744   -0.01740
 24 Li    0.00428    0.00044    0.08513
 25 Li    0.00000    0.00000    0.08992
 26 Li    0.00000    0.00275   -0.06612
 27 Li   -0.00171    0.00000   -0.07210
 28 Li    0.00696    0.01467   -0.01314
 29 Li    0.00000    0.00000   -0.02327
 30 Li    0.00000   -0.00172   -0.00741
 31 Li    0.03231    0.00000   -0.02246
 32 Li    0.00428   -0.00044    0.08512
 33 Li    0.00000    0.00109    0.08842
 34 Li    0.00000   -0.00275   -0.06612
 35 Li    0.00190   -0.00505   -0.05688
 36 Li    0.00696   -0.01467   -0.01314
 37 Li    0.00000    0.00267   -0.01463
 38 Li    0.00000    0.00172   -0.00741
 39 Li    0.00465    0.00974   -0.00921
 40 Li    0.00703    0.00000    0.09455
 41 Li    0.00000   -0.00109    0.08842
 42 Li    0.00000   -0.00000   -0.06100
 43 Li    0.00190    0.00505   -0.05688
 44 Li    0.00278    0.00000    0.00707
 45 Li    0.00000   -0.00267   -0.01463
 46 Li    0.00000    0.00000   -0.01092
 47 Li    0.00465   -0.00974   -0.00921
 48 Li   -0.00428    0.00044    0.08513
 49 Li    0.00089    0.00000    0.09403
 50 Li   -0.00995   -0.01818   -0.08623
 51 Li    0.00171    0.00000   -0.07210
 52 Li   -0.00696    0.01467   -0.01314
 53 Li   -0.04245    0.00000    0.01085
 54 Li   -0.00099   -0.03169   -0.03015
 55 Li   -0.03231    0.00000   -0.02246
 56 Li   -0.00428   -0.00044    0.08512
 57 Li    0.00019   -0.00423    0.09286
 58 Li   -0.00995    0.01818   -0.08623
 59 Li   -0.00190   -0.00505   -0.05688
 60 Li   -0.00696   -0.01467   -0.01314
 61 Li    0.01776   -0.00251   -0.01343
 62 Li   -0.00099    0.03169   -0.03015
 63 Li   -0.00465    0.00974   -0.00921
 64 Li   -0.00703    0.00000    0.09455
 65 Li    0.00019    0.00423    0.09286
 66 Li    0.00919    0.00000    0.02044
 67 Li   -0.00190    0.00505   -0.05688
 68 Li   -0.00278    0.00000    0.00707
 69 Li    0.01776    0.00251   -0.01343
 70 Li    0.01521   -0.00000    0.01396
 71 Li   -0.00465   -0.00974   -0.00921
 72 Li    0.00000   -0.00000    0.02370

Timing:                                      incl.     excl.
-------------------------------------------------------------------
Density initialized from wave functions:     7.190     7.163   0.8% |
 Symmetrize density:                         0.027     0.027   0.0% |
Forces:                                     49.426    49.426   5.6% |-|
Hamiltonian:                                18.365     0.033   0.0% |
 Atomic:                                     8.816     0.032   0.0% |
  XC Correction:                             8.785     8.785   1.0% |
 Calculate atomic Hamiltonians:              6.998     6.998   0.8% |
 Communicate:                                0.000     0.000   0.0% |
 Initialize Hamiltonian:                     0.000     0.000   0.0% |
 Poisson:                                    0.024     0.024   0.0% |
 XC 3D grid:                                 2.494     2.494   0.3% |
LCAO initialization:                         5.232     0.004   0.0% |
 LCAO eigensolver:                           0.231     0.000   0.0% |
  Calculate projections:                     0.001     0.001   0.0% |
  DenseAtomicCorrection:                     0.016     0.016   0.0% |
  Distribute overlap matrix:                 0.000     0.000   0.0% |
  Orbital Layouts:                           0.028     0.028   0.0% |
  Potential matrix:                          0.184     0.184   0.0% |
  Sum over cells:                            0.001     0.001   0.0% |
 LCAO to grid:                               4.637     4.637   0.5% |
 Set positions (LCAO WFS):                   0.361     0.103   0.0% |
  Basic WFS set positions:                   0.001     0.001   0.0% |
  Basis functions set positions:             0.000     0.000   0.0% |
  P tci:                                     0.156     0.156   0.0% |
  ST tci:                                    0.084     0.084   0.0% |
  mktci:                                     0.016     0.016   0.0% |
PWDescriptor:                                0.005     0.005   0.0% |
Redistribute:                                0.010     0.010   0.0% |
SCF-cycle:                                 782.666     0.128   0.0% |
 Davidson:                                 301.835    62.832   7.2% |--|
  Apply H:                                  50.846    50.309   5.7% |-|
   HMM T:                                    0.536     0.536   0.1% |
  Subspace diag:                            57.155     0.064   0.0% |
   calc_h_matrix:                           52.335     3.690   0.4% |
    Apply H:                                48.645    48.123   5.5% |-|
     HMM T:                                  0.522     0.522   0.1% |
   diagonalize:                              0.194     0.194   0.0% |
   rotate_psi:                               4.562     4.562   0.5% |
  calc. matrices:                          119.899    17.760   2.0% ||
   Apply H:                                102.139   101.054  11.5% |----|
    HMM T:                                   1.085     1.085   0.1% |
  diagonalize:                               1.563     1.563   0.2% |
  rotate_psi:                                9.540     9.540   1.1% |
 Density:                                  135.547     0.002   0.0% |
  Atomic density matrices:                   0.569     0.569   0.1% |
  Mix:                                     108.704   108.704  12.4% |----|
  Multipole moments:                         0.142     0.142   0.0% |
  Pseudo density:                           26.130    25.560   2.9% ||
   Symmetrize density:                       0.569     0.569   0.1% |
 Hamiltonian:                              344.181     0.559   0.1% |
  Atomic:                                  165.496     0.600   0.1% |
   XC Correction:                          164.896   164.896  18.8% |-------|
  Calculate atomic Hamiltonians:           130.991   130.991  14.9% |-----|
  Communicate:                               0.001     0.001   0.0% |
  Poisson:                                   0.360     0.360   0.0% |
  XC 3D grid:                               46.774    46.774   5.3% |-|
 Orthonormalize:                             0.976     0.002   0.0% |
  calc_s_matrix:                             0.103     0.103   0.0% |
  inverse-cholesky:                          0.004     0.004   0.0% |
  projections:                               0.732     0.732   0.1% |
  rotate_psi_s:                              0.135     0.135   0.0% |
Set symmetry:                                0.001     0.001   0.0% |
Other:                                      15.108    15.108   1.7% ||
-------------------------------------------------------------------
Total:                                               878.003 100.0%

Memory usage: 1.97 GiB
Date: Mon Nov 24 03:48:42 2025
