73
Lattice="14.806815998046307 0.0 0.0 0.0 10.47 0.0 0.0 0.0 27.403407999023152" Properties=species:S:1:pos:R:3:move_mask:L:1:tags:I:1:forces:R:3:magmoms:R:1 energy=-128.58867161096282 dipole="-4.4288688875251454e-13 -3.449416634618728 0.35227752808439344" magmom=0.0 free_energy=-129.2828615016961 pbc="T T F"
Li       0.00000000       0.00000000      10.00000000  F        4       0.00000000       0.00121546       0.10700664       0.00000000
Li       2.46780267       1.74500000      10.00000000  F        4      -0.00088590       0.00000076       0.09402683       0.00000000
Li       2.46780267       0.00000000      12.46780267  F        3       0.00994774      -0.01818342      -0.08623043       0.00000000
Li       0.00000000       1.74500000      12.46780267  F        3       0.00000000       0.00000137      -0.06093615       0.00000000
Li       0.00000000      -0.09056266      14.73032542  T        2       0.00000000      -0.04042547      -0.01788881       0.00000000
Li       2.44077851       1.74500097      14.85973155  T        2       0.04245317       0.00000013       0.01085316       0.00000000
Li       2.33729245       0.15200316      17.43166692  T        1       0.00098688      -0.03169146      -0.03015241       0.00000000
Li       0.00000000       1.74500143      16.72023901  T        1       0.00000000      -0.00000195      -0.01697785       0.00000000
Li       0.00000000       3.49000000      10.00000000  F        4       0.00000000      -0.00121597       0.10700706       0.00000000
Li       2.46780267       5.23500000      10.00000000  F        4      -0.00019149      -0.00422953       0.09285784       0.00000000
Li       2.46780267       3.49000000      12.46780267  F        3       0.00994768       0.01818464      -0.08623061       0.00000000
Li       0.00000000       5.23500000      12.46780267  F        3       0.00000000       0.07530532      -0.14039676       0.00000000
Li       0.00000000       3.58056231      14.73032618  T        2       0.00000000       0.04042839      -0.01789160       0.00000000
Li       2.48616194       5.17280019      14.96893997  T        2      -0.01775781      -0.00251422      -0.01342623       0.00000000
Li       2.33729166       3.33799837      17.43166882  T        1       0.00098810       0.03169122      -0.03015309       0.00000000
Li       0.00000000       5.09090975      17.32421978  T        1       0.00000000      -0.01744275      -0.01739539       0.00000000
Li       0.00000000       6.98000000      10.00000000  F        4       0.00000000       0.00000022       0.07911756       0.00000000
Li       2.46780267       8.72500000      10.00000000  F        4      -0.00019167       0.00422877       0.09285838       0.00000000
Li       2.46780267       6.98000000      12.46780267  F        3      -0.00919235       0.00000031       0.02044352       0.00000000
Li       0.00000000       8.72500000      12.46780267  F        3       0.00000000      -0.07530574      -0.14039656       0.00000000
Li       0.00000000       6.98000053      14.99281679  T        2       0.00000000      -0.00000069      -0.04787230       0.00000000
Li       2.48616170       8.78719993      14.96893891  T        2      -0.01775728       0.00251399      -0.01342569       0.00000000
Li       2.39644260       6.98000051      17.26128591  T        1      -0.01520614      -0.00000013       0.01396403       0.00000000
Li       0.00000000       8.86908937      17.32421832  T        1       0.00000000       0.01744450      -0.01739523       0.00000000
Li       4.93560533       0.00000000      10.00000000  F        4       0.00428469       0.00043579       0.08512573       0.00000000
Li       7.40340800       1.74500000      10.00000000  F        4       0.00000000       0.00000044       0.08992200       0.00000000
Li       7.40340800       0.00000000      12.46780267  F        3       0.00000000       0.00274640      -0.06612004       0.00000000
Li       4.93560533       1.74500000      12.46780267  F        3      -0.00171087       0.00000061      -0.07209527       0.00000000
Li       4.94015373       0.01184893      14.89413025  T        2       0.00695935       0.01466987      -0.01314497       0.00000000
Li       7.40340800       1.74500104      14.90025316  T        2       0.00000000       0.00000022      -0.02327380       0.00000000
Li       7.40340800       0.00911673      17.22879883  T        1       0.00000000      -0.00171617      -0.00740653       0.00000000
Li       4.87528215       1.74500097      17.25996084  T        1       0.03231408       0.00000037      -0.02246275       0.00000000
Li       4.93560533       3.49000000      10.00000000  F        4       0.00428489      -0.00043589       0.08512494       0.00000000
Li       7.40340800       5.23500000      10.00000000  F        4       0.00000000       0.00108599       0.08841976       0.00000000
Li       7.40340800       3.49000000      12.46780267  F        3       0.00000000      -0.00274611      -0.06612109       0.00000000
Li       4.93560533       5.23500000      12.46780267  F        3       0.00189760      -0.00505390      -0.05687956       0.00000000
Li       4.94015429       3.47815125      14.89412981  T        2       0.00695883      -0.01467079      -0.01314429       0.00000000
Li       7.40340800       5.23078740      14.89356771  T        2       0.00000000       0.00266984      -0.01462678       0.00000000
Li       7.40340800       3.48088312      17.22880132  T        1       0.00000000       0.00171635      -0.00740836       0.00000000
Li       4.85695484       5.19056125      17.24431822  T        1       0.00464695       0.00974051      -0.00920894       0.00000000
Li       4.93560533       6.98000000      10.00000000  F        4       0.00703109       0.00000034       0.09455030       0.00000000
Li       7.40340800       8.72500000      10.00000000  F        4       0.00000000      -0.00108741       0.08842079       0.00000000
Li       7.40340800       6.98000000      12.46780267  F        3       0.00000000      -0.00000006      -0.06099970       0.00000000
Li       4.93560533       8.72500000      12.46780267  F        3       0.00189737       0.00505293      -0.05687874       0.00000000
Li       4.92770614       6.97999971      14.90032388  T        2       0.00278081       0.00000062       0.00707280       0.00000000
Li       7.40340800       8.72921161      14.89356714  T        2       0.00000000      -0.00267004      -0.01462789       0.00000000
Li       7.40340800       6.98000017      17.23153171  T        1       0.00000000       0.00000028      -0.01091608       0.00000000
Li       4.85695541       8.76943857      17.24431843  T        1       0.00464694      -0.00973964      -0.00920970       0.00000000
Li       9.87121067       0.00000000      10.00000000  F        4      -0.00428469       0.00043579       0.08512573       0.00000000
Li      12.33901333       1.74500000      10.00000000  F        4       0.00088590       0.00000076       0.09402683       0.00000000
Li      12.33901333       0.00000000      12.46780267  F        3      -0.00994774      -0.01818342      -0.08623043       0.00000000
Li       9.87121067       1.74500000      12.46780267  F        3       0.00171087       0.00000061      -0.07209527       0.00000000
Li       9.86666227       0.01184893      14.89413025  T        2      -0.00695935       0.01466987      -0.01314497       0.00000000
Li      12.36603749       1.74500097      14.85973155  T        2      -0.04245317       0.00000013       0.01085316       0.00000000
Li      12.46952354       0.15200316      17.43166692  T        1      -0.00098688      -0.03169146      -0.03015241       0.00000000
Li       9.93153384       1.74500097      17.25996084  T        1      -0.03231408       0.00000037      -0.02246275       0.00000000
Li       9.87121067       3.49000000      10.00000000  F        4      -0.00428489      -0.00043589       0.08512494       0.00000000
Li      12.33901333       5.23500000      10.00000000  F        4       0.00019149      -0.00422953       0.09285784       0.00000000
Li      12.33901333       3.49000000      12.46780267  F        3      -0.00994768       0.01818464      -0.08623061       0.00000000
Li       9.87121067       5.23500000      12.46780267  F        3      -0.00189760      -0.00505390      -0.05687956       0.00000000
Li       9.86666171       3.47815125      14.89412981  T        2      -0.00695883      -0.01467079      -0.01314429       0.00000000
Li      12.32065406       5.17280019      14.96893997  T        2       0.01775781      -0.00251422      -0.01342623       0.00000000
Li      12.46952434       3.33799837      17.43166882  T        1      -0.00098810       0.03169122      -0.03015309       0.00000000
Li       9.94986116       5.19056125      17.24431822  T        1      -0.00464695       0.00974051      -0.00920894       0.00000000
Li       9.87121067       6.98000000      10.00000000  F        4      -0.00703109       0.00000034       0.09455030       0.00000000
Li      12.33901333       8.72500000      10.00000000  F        4       0.00019167       0.00422877       0.09285838       0.00000000
Li      12.33901333       6.98000000      12.46780267  F        3       0.00919235       0.00000031       0.02044352       0.00000000
Li       9.87121067       8.72500000      12.46780267  F        3      -0.00189737       0.00505293      -0.05687874       0.00000000
Li       9.87910986       6.97999971      14.90032388  T        2      -0.00278081       0.00000062       0.00707280       0.00000000
Li      12.32065430       8.78719993      14.96893891  T        2       0.01775728       0.00251399      -0.01342569       0.00000000
Li      12.41037340       6.98000051      17.26128591  T        1       0.01520614      -0.00000013       0.01396403       0.00000000
Li       9.94986058       8.76943857      17.24431843  T        1      -0.00464694      -0.00973964      -0.00920970       0.00000000
Li       0.00000000       1.74500332      19.32272382  T        0       0.00000000      -0.00000245       0.02370070       0.00000000
