
  ___ ___ ___ _ _ _  
 |   |   |_  | | | | 
 | | | | | . | | | | 
 |__ |  _|___|_____|  25.7.0
 |___|_|             

User:   tew@Mathuss-MacBook-Air-357.local
Date:   Mon Nov 24 03:48:42 2025
Arch:   arm64
Pid:    82977
CWD:    /Users/tew/Documents/Project/GitHub/chem-com
Python: 3.13.5
gpaw:   /Users/tew/Documents/Project/GitHub/chem-com/.venv/lib/python3.13/site-packages/gpaw
_gpaw:  /Users/tew/Documents/Project/GitHub/chem-com/.venv/lib/python3.13/site-packages/
        _gpaw.cpython-313-darwin.so
ase:    /Users/tew/Documents/Project/GitHub/chem-com/.venv/lib/python3.13/site-packages/ase (version 3.26.0)
numpy:  /Users/tew/Documents/Project/GitHub/chem-com/.venv/lib/python3.13/site-packages/numpy (version 2.3.5)
scipy:  /Users/tew/Documents/Project/GitHub/chem-com/.venv/lib/python3.13/site-packages/scipy (version 1.16.3)
libxc:  2.x.y
units:  Angstrom and eV
cores: 1
OpenMP: False
OMP_NUM_THREADS: 1

Input parameters:
  convergence: {density: 0.0001,
                eigenstates: 5e-06}
  kpts: [2 2 1]
  mode: {ecut: 200.0,
         name: pw}
  xc: PBE

System changes: positions, numbers, cell, pbc, initial_charges, initial_magmoms 

Initialize ...

species:
  Li:
    name: Lithium
    id: 830b4218f175192f93f959cfc0aad614
    Z: 3.0
    valence: 1
    core: 2
    charge: 0.0
    file: /Users/tew/Documents/Project/GitHub/chem-com/.venv/lib/python3.13/site-packages/gpaw_data/setups/Li.PBE.gz
    compensation charges: {type: gauss,
                           rc: 0.33,
                           lmax: 2}
    cutoffs: {filter: 1.91,
              core: 2.55}
    projectors:
      #              energy  rcut
      - 2s(1.00)    -2.874   1.058
      - 2p(0.00)    -1.090   1.058
      -  s          24.337   1.058
  
    # Using partial waves for Li as LCAO basis

Reference energy: -14803.510878  # eV

Spin-paired calculation

Convergence criteria:
 Maximum [total energy] change in last 3 cyles: 0.0005 eV / valence electron
 Maximum integral of absolute [dens]ity change: 0.0001 electrons / valence electron
 Maximum integral of absolute [eigenst]ate change: 5e-06 eV^2 / valence electron
 Maximum number of scf [iter]ations: 333
 (Square brackets indicate name in SCF output, whereas a 'c' in
 the SCF output indicates the quantity has converged.)

Symmetries present (total): 1

  ( 1  0  0)
  ( 0  1  0)
  ( 0  0  1)

4 k-points: 2 x 2 x 1 Monkhorst-Pack grid
2 k-points in the irreducible part of the Brillouin zone
       k-points in crystal coordinates                weights
   0:     0.25000000   -0.25000000    0.00000000          2/4
   1:     0.25000000    0.25000000    0.00000000          2/4

Wave functions: Plane wave expansion
  Cutoff energy: 200.000 eV
  Number of coefficients (min, max): 27323, 27323
  Pulay-stress correction: 0.000000 eV/Ang^3 (de/decut=0.000000)
  Using Numpy's FFT
  ScaLapack parameters: grid=1x1, blocksize=None
  Wavefunction extrapolation:
    Improved wavefunction reuse through dual PAW basis 

Occupation numbers: Fermi-Dirac:
  width: 0.1000  # eV
 

Eigensolver
   Davidson(niter=2) 

Densities:
  Coarse grid: 49*35*90 grid
  Fine grid: 98*70*180 grid
  Total Charge: 0.000000 

Density mixing:
  Method: separate
  Backend: pulay
  Linear mixing parameter: 0.05
  old densities: 5
  Damping of long wavelength oscillations: 50 

Hamiltonian:
  XC and Coulomb potentials evaluated on a 98*70*180 grid
  Using the PBE Exchange-Correlation functional
  External potential:
    NoExternalPotential
 

XC parameters: PBE with 2 nearest neighbor stencil

Memory estimate:
  Process memory now: 2312.47 MiB
  Calculator: 164.50 MiB
    Density: 71.24 MiB
      Arrays: 30.62 MiB
      Localized functions: 28.85 MiB
      Mixer: 11.78 MiB
    Hamiltonian: 20.61 MiB
      Arrays: 20.02 MiB
      XC: 0.00 MiB
      Poisson: 0.00 MiB
      vbar: 0.59 MiB
    Wavefunctions: 72.65 MiB
      Arrays psit_nG: 40.02 MiB
      Eigensolver: 22.45 MiB
      Projections: 0.53 MiB
      Projectors: 2.92 MiB
      PW-descriptor: 6.72 MiB

Total number of cores used: 1

Number of atoms: 73
Number of atomic orbitals: 292
Number of bands in calculation: 48
Number of valence electrons: 73
Bands to converge: occupied

... initialized

Initializing position-dependent things.

Density initialized from atomic densities
Creating initial wave functions:
  48 bands from LCAO basis set

       .-----------------------------------.  
      /|                                   |  
     / |                                   |  
    /  |                                   |  
   /   |                                   |  
  /    |                                   |  
 *     |                                   |  
 |     |                                   |  
 |     |                                   |  
 |     |                                   |  
 |     |                                   |  
 |     |                                   |  
 |     |                                   |  
 |    Li          Li                       |  
 |     |                      Li           |  
 |     |   Li          Li          Li      |  
 |  LLiLi       Li          Li      Li     |  
 |     | Li Li   Li  Li Li       Li      Li|  
 |Li   |  Li  Li          Li LiLi Li       |  
 |     Li      Li  Li Li                   |  
 |    Li          Li       Li Li       Li  |  
 |     |Li Li       Li Li       Li Li      |  
 |  Li |     Li Li       Li Li             |  
 |     | Li Li       Li Li       Li Li     |  
 |Li Li|      Li Li       Li Li            |  
 |     Li Li       Li Li       Li Li       |  
 | Li  |       Li          Li              |  
 |     |Li          Li          Li         |  
 Li    |     Li          Li                |  
 |     |                                   |  
 |     |                                   |  
 |     |                                   |  
 |     |                                   |  
 |     |                                   |  
 |     .-----------------------------------.  
 |    /                                   /   
 |   /                                   /    
 |  /                                   /     
 | /                                   /      
 |/                                   /       
 *-----------------------------------*        

Atomic positions and initial magnetic moments

Positions:
   0 Li     0.000000    0.000000   10.000000    ( 0.0000,  0.0000,  0.0000)
   1 Li     2.467803    1.745000   10.000000    ( 0.0000,  0.0000,  0.0000)
   2 Li     2.467803    0.000000   12.467803    ( 0.0000,  0.0000,  0.0000)
   3 Li     0.000000    1.745000   12.467803    ( 0.0000,  0.0000,  0.0000)
   4 Li     0.013513   -0.045281   14.795029    ( 0.0000,  0.0000,  0.0000)
   5 Li     2.454290    1.790277   14.795031    ( 0.0000,  0.0000,  0.0000)
   6 Li     2.402546    0.076002   17.075957    ( 0.0000,  0.0000,  0.0000)
   7 Li     0.065258    1.668998   17.075955    ( 0.0000,  0.0000,  0.0000)
   8 Li     0.000000    3.490000   10.000000    ( 0.0000,  0.0000,  0.0000)
   9 Li     2.467803    5.235000   10.000000    ( 0.0000,  0.0000,  0.0000)
  10 Li     2.467803    3.490000   12.467803    ( 0.0000,  0.0000,  0.0000)
  11 Li     0.000000    5.235000   12.467803    ( 0.0000,  0.0000,  0.0000)
  12 Li    -0.009180    3.504184   14.849635    ( 0.0000,  0.0000,  0.0000)
  13 Li     2.476981    5.203900   14.980871    ( 0.0000,  0.0000,  0.0000)
  14 Li     2.402546    3.341955   17.377944    ( 0.0000,  0.0000,  0.0000)
  15 Li     0.035677    5.162955   17.292760    ( 0.0000,  0.0000,  0.0000)
  16 Li     0.000000    6.980000   10.000000    ( 0.0000,  0.0000,  0.0000)
  17 Li     2.467803    8.725000   10.000000    ( 0.0000,  0.0000,  0.0000)
  18 Li     2.467803    6.980000   12.467803    ( 0.0000,  0.0000,  0.0000)
  19 Li     0.000000    8.725000   12.467803    ( 0.0000,  0.0000,  0.0000)
  20 Li    -0.009180    7.011097   14.980880    ( 0.0000,  0.0000,  0.0000)
  21 Li     2.476982    8.710824   14.849635    ( 0.0000,  0.0000,  0.0000)
  22 Li     2.432121    7.052044   17.292753    ( 0.0000,  0.0000,  0.0000)
  23 Li     0.065258    8.873047   17.377944    ( 0.0000,  0.0000,  0.0000)
  24 Li     4.935605    0.000000   10.000000    ( 0.0000,  0.0000,  0.0000)
  25 Li     7.403408    1.745000   10.000000    ( 0.0000,  0.0000,  0.0000)
  26 Li     7.403408    0.000000   12.467803    ( 0.0000,  0.0000,  0.0000)
  27 Li     4.935605    1.745000   12.467803    ( 0.0000,  0.0000,  0.0000)
  28 Li     4.924367    0.005924   14.876932    ( 0.0000,  0.0000,  0.0000)
  29 Li     7.405680    1.739078   14.897199    ( 0.0000,  0.0000,  0.0000)
  30 Li     7.373243    0.004558   17.244383    ( 0.0000,  0.0000,  0.0000)
  31 Li     4.840185    1.668999   17.345816    ( 0.0000,  0.0000,  0.0000)
  32 Li     4.935605    3.490000   10.000000    ( 0.0000,  0.0000,  0.0000)
  33 Li     7.403408    5.235000   10.000000    ( 0.0000,  0.0000,  0.0000)
  34 Li     7.403408    3.490000   12.467803    ( 0.0000,  0.0000,  0.0000)
  35 Li     4.935605    5.235000   12.467803    ( 0.0000,  0.0000,  0.0000)
  36 Li     4.947059    3.452978   14.931536    ( 0.0000,  0.0000,  0.0000)
  37 Li     7.399460    5.232894   14.896953    ( 0.0000,  0.0000,  0.0000)
  38 Li     7.364088    3.463220   17.236566    ( 0.0000,  0.0000,  0.0000)
  39 Li     4.860601    5.212781   17.252810    ( 0.0000,  0.0000,  0.0000)
  40 Li     4.935605    6.980000   10.000000    ( 0.0000,  0.0000,  0.0000)
  41 Li     7.403408    8.725000   10.000000    ( 0.0000,  0.0000,  0.0000)
  42 Li     7.403408    6.980000   12.467803    ( 0.0000,  0.0000,  0.0000)
  43 Li     4.935605    8.725000   12.467803    ( 0.0000,  0.0000,  0.0000)
  44 Li     4.940835    7.011097   14.934633    ( 0.0000,  0.0000,  0.0000)
  45 Li     7.405680    8.733028   14.893856    ( 0.0000,  0.0000,  0.0000)
  46 Li     7.364088    7.002222   17.237931    ( 0.0000,  0.0000,  0.0000)
  47 Li     4.831021    8.823221   17.337994    ( 0.0000,  0.0000,  0.0000)
  48 Li     9.871211    0.000000   10.000000    ( 0.0000,  0.0000,  0.0000)
  49 Li    12.339013    1.745000   10.000000    ( 0.0000,  0.0000,  0.0000)
  50 Li    12.339013    0.000000   12.467803    ( 0.0000,  0.0000,  0.0000)
  51 Li     9.871211    1.745000   12.467803    ( 0.0000,  0.0000,  0.0000)
  52 Li     9.868937    0.005924   14.897194    ( 0.0000,  0.0000,  0.0000)
  53 Li    12.350255    1.739078   14.876938    ( 0.0000,  0.0000,  0.0000)
  54 Li    12.434434    0.076002   17.345817    ( 0.0000,  0.0000,  0.0000)
  55 Li     9.901373    1.740441   17.244386    ( 0.0000,  0.0000,  0.0000)
  56 Li     9.871211    3.490000   10.000000    ( 0.0000,  0.0000,  0.0000)
  57 Li    12.339013    5.235000   10.000000    ( 0.0000,  0.0000,  0.0000)
  58 Li    12.339013    3.490000   12.467803    ( 0.0000,  0.0000,  0.0000)
  59 Li     9.871211    5.235000   12.467803    ( 0.0000,  0.0000,  0.0000)
  60 Li     9.868937    3.481971   14.893852    ( 0.0000,  0.0000,  0.0000)
  61 Li    12.333783    5.203900   14.934638    ( 0.0000,  0.0000,  0.0000)
  62 Li    12.443590    3.391777   17.338000    ( 0.0000,  0.0000,  0.0000)
  63 Li     9.910537    5.212781   17.237936    ( 0.0000,  0.0000,  0.0000)
  64 Li     9.871211    6.980000   10.000000    ( 0.0000,  0.0000,  0.0000)
  65 Li    12.339013    8.725000   10.000000    ( 0.0000,  0.0000,  0.0000)
  66 Li    12.339013    6.980000   12.467803    ( 0.0000,  0.0000,  0.0000)
  67 Li     9.871211    8.725000   12.467803    ( 0.0000,  0.0000,  0.0000)
  68 Li     9.875161    6.982104   14.896949    ( 0.0000,  0.0000,  0.0000)
  69 Li    12.327563    8.762023   14.931542    ( 0.0000,  0.0000,  0.0000)
  70 Li    12.414014    7.002222   17.252809    ( 0.0000,  0.0000,  0.0000)
  71 Li     9.910536    8.751778   17.236565    ( 0.0000,  0.0000,  0.0000)
  72 Li     1.233902    0.872502   19.322724    ( 0.0000,  0.0000,  0.0000)

Unit cell:
           periodic     x           y           z      points  spacing
  1. axis:    yes   14.806816    0.000000    0.000000    49     0.3022
  2. axis:    yes    0.000000   10.470000    0.000000    35     0.2991
  3. axis:    no     0.000000    0.000000   27.403408    90     0.3045

  Lengths:  14.806816  10.470000  27.403408
  Angles:   90.000000  90.000000  90.000000

Effective grid spacing dv^(1/3) = 0.3019

     iter     time        total  log10-change:
                         energy   eigst   dens
iter:   1 03:52:24  -135.891959
iter:   2 03:52:27  -131.398961   -0.87  -0.55
iter:   3 03:52:30  -129.639999   -0.96  -0.71
iter:   4 03:52:32  -129.990624   -1.49  -0.89
iter:   5 03:52:36  -129.232104   -1.96  -0.88
iter:   6 03:52:39  -128.613697   -1.94  -0.99
iter:   7 03:52:42  -128.771559   -1.77  -1.27
iter:   8 03:52:45  -128.596225   -2.00  -1.20
iter:   9 03:52:48  -128.565033   -2.77  -1.41
iter:  10 03:52:51  -128.597189c  -2.26  -1.54
iter:  11 03:52:54  -128.513529   -2.79  -1.50
iter:  12 03:52:57  -128.513550   -3.47  -2.01
iter:  13 03:53:00  -128.513316c  -3.72  -2.15
iter:  14 03:53:03  -128.513401c  -3.92  -2.25
iter:  15 03:53:06  -128.512566c  -4.26  -2.37
iter:  16 03:53:09  -128.512142c  -4.12  -2.45
iter:  17 03:53:12  -128.511917c  -4.32  -2.43
iter:  18 03:53:15  -128.512584c  -4.58  -2.74
iter:  19 03:53:18  -128.511550c  -4.59  -2.78
iter:  20 03:53:22  -128.511777c  -5.02  -2.86
iter:  21 03:53:25  -128.511965c  -5.01  -3.14
iter:  22 03:53:28  -128.511750c  -5.26  -3.26
iter:  23 03:53:31  -128.511689c  -5.33c -3.35
iter:  24 03:53:34  -128.511883c  -5.15  -3.50
iter:  25 03:53:37  -128.511738c  -5.39c -3.40
iter:  26 03:53:40  -128.511585c  -5.19  -3.57
iter:  27 03:53:43  -128.511583c  -5.48c -3.74
iter:  28 03:53:46  -128.511561c  -5.29  -3.80
iter:  29 03:53:50  -128.511430c  -5.15  -3.83
iter:  30 03:53:53  -128.511390c  -5.56c -3.87
iter:  31 03:53:56  -128.511350c  -5.08  -3.88
iter:  32 03:53:59  -128.511307c  -5.41c -3.99
iter:  33 03:54:02  -128.511268c  -5.67c -3.99
iter:  34 03:54:05  -128.511233c  -5.69c -3.97
iter:  35 03:54:08  -128.511198c  -5.71c -3.95
iter:  36 03:54:11  -128.511128c  -5.15  -3.94
iter:  37 03:54:14  -128.511062c  -5.25  -3.94
iter:  38 03:54:17  -128.511002c  -5.23  -3.91
iter:  39 03:54:20  -128.510906c  -5.08  -3.84
iter:  40 03:54:23  -128.510871c  -5.62c -3.79
iter:  41 03:54:26  -128.510822c  -5.25  -3.77
iter:  42 03:54:29  -128.510757c  -5.21  -3.79
iter:  43 03:54:32  -128.510727c  -5.40c -3.73
iter:  44 03:54:35  -128.510687c  -5.58c -3.76
iter:  45 03:54:38  -128.510643c  -5.23  -3.73
iter:  46 03:54:42  -128.510615c  -5.39c -3.74
iter:  47 03:54:45  -128.510593c  -5.68c -3.82
iter:  48 03:54:48  -128.510563c  -5.59c -3.82
iter:  49 03:54:51  -128.510539c  -5.68c -3.81
iter:  50 03:54:55  -128.510519c  -5.69c -3.84
iter:  51 03:54:58  -128.510472c  -5.67c -3.79
iter:  52 03:55:01  -128.510455c  -5.93c -3.84
iter:  53 03:55:04  -128.510436c  -5.95c -3.83
iter:  54 03:55:07  -128.510414c  -5.84c -3.82
iter:  55 03:55:10  -128.510389c  -5.89c -3.80
iter:  56 03:55:13  -128.510378c  -5.93c -3.80
iter:  57 03:55:16  -128.510370c  -5.82c -3.79
iter:  58 03:55:19  -128.510357c  -6.00c -3.80
iter:  59 03:55:22  -128.510349c  -6.04c -3.81
iter:  60 03:55:25  -128.510342c  -6.14c -3.82
iter:  61 03:55:28  -128.510340c  -5.96c -3.85
iter:  62 03:55:31  -128.510331c  -6.17c -3.97
iter:  63 03:55:34  -128.510320c  -6.25c -4.22c

Converged after 63 iterations.

Dipole moment: (-5.676268, -4.020654, 0.350229) |e|*Ang

Energy contributions relative to reference atoms: (reference = -14803.510878)

Kinetic:       +114.744139
Potential:     -100.330819
External:        +0.000000
XC:            -141.738842
Entropy (-ST):   -1.393881
Local:           -0.487858
SIC:             +0.000000
--------------------------
Free energy:   -129.207261
Extrapolated:  -128.510320

Showing all kpts
 Kpt  Band  Eigenvalues  Occupancy
  0    34     -1.93986    1.51846
  0    35     -1.89395    1.33166
  0    36     -1.82113    0.98060
  0    37     -1.75541    0.66538

  1    34     -1.93745    1.50961
  1    35     -1.89431    1.33325
  1    36     -1.82149    0.98240
  1    37     -1.75536    0.66517


Fermi level: -1.82501

Gap: 0.072 eV
Transition (v -> c):
  (s=0, k=0, n=35, [0.25, -0.25, 0.00]) -> (s=0, k=1, n=36, [0.25, 0.25, 0.00])
Direct/indirect transitions are different
Direct gap: 0.073 eV
Transition at: (s=0, k=1, n=35, [0.25, 0.25, 0.00])

Forces in eV/Ang:
  0 Li    0.00102    0.00096    0.10129
  1 Li   -0.00102   -0.00096    0.10129
  2 Li    0.00548   -0.01043   -0.08151
  3 Li   -0.00549    0.01043   -0.08151
  4 Li   -0.01445   -0.00926    0.00197
  5 Li    0.01445    0.00926    0.00196
  6 Li    0.13399   -0.11091   -0.21249
  7 Li   -0.13399    0.11091   -0.21248
  8 Li    0.00169   -0.00405    0.09987
  9 Li    0.00015   -0.00310    0.08617
 10 Li    0.00380    0.04425   -0.10971
 11 Li    0.00517    0.02689   -0.05053
 12 Li   -0.00229    0.00497   -0.01156
 13 Li   -0.00892    0.00323   -0.02919
 14 Li    0.00665   -0.00477   -0.01906
 15 Li    0.01716    0.00688   -0.01191
 16 Li   -0.00016    0.00310    0.08617
 17 Li   -0.00170    0.00405    0.09987
 18 Li   -0.00517   -0.02689   -0.05053
 19 Li   -0.00380   -0.04425   -0.10971
 20 Li    0.00892   -0.00323   -0.02920
 21 Li    0.00229   -0.00498   -0.01156
 22 Li   -0.01716   -0.00689   -0.01191
 23 Li   -0.00665    0.00477   -0.01905
 24 Li    0.00105    0.00076    0.08819
 25 Li    0.00406    0.00058    0.08727
 26 Li   -0.00199    0.00141   -0.06698
 27 Li    0.00474    0.00857   -0.08245
 28 Li   -0.00013    0.00309    0.02318
 29 Li    0.00071   -0.00780   -0.01523
 30 Li    0.02657   -0.00082   -0.02448
 31 Li   -0.00961    0.03270    0.00366
 32 Li    0.00235   -0.00223    0.08861
 33 Li    0.00460    0.00100    0.09147
 34 Li    0.00104   -0.00332   -0.06083
 35 Li   -0.00137   -0.00385   -0.01588
 36 Li   -0.00529   -0.00685   -0.01472
 37 Li    0.00311    0.00040   -0.00598
 38 Li    0.00471    0.00645   -0.01051
 39 Li   -0.00418    0.00546    0.00026
 40 Li    0.00536    0.00125    0.09201
 41 Li    0.00381   -0.00093    0.08626
 42 Li    0.00043    0.00218   -0.05755
 43 Li    0.00565   -0.00625   -0.07503
 44 Li   -0.00766   -0.00102    0.00629
 45 Li    0.00384    0.00657   -0.01146
 46 Li    0.00280   -0.00580   -0.01104
 47 Li    0.01916   -0.03002   -0.02977
 48 Li   -0.00406   -0.00058    0.08727
 49 Li   -0.00105   -0.00076    0.08819
 50 Li   -0.00474   -0.00857   -0.08244
 51 Li    0.00199   -0.00141   -0.06698
 52 Li   -0.00071    0.00780   -0.01522
 53 Li    0.00013   -0.00310    0.02318
 54 Li    0.00961   -0.03270    0.00367
 55 Li   -0.02656    0.00082   -0.02449
 56 Li   -0.00381    0.00092    0.08626
 57 Li   -0.00535   -0.00125    0.09201
 58 Li   -0.00565    0.00624   -0.07503
 59 Li   -0.00043   -0.00218   -0.05755
 60 Li   -0.00383   -0.00657   -0.01145
 61 Li    0.00766    0.00102    0.00629
 62 Li   -0.01915    0.03002   -0.02977
 63 Li   -0.00280    0.00579   -0.01104
 64 Li   -0.00460   -0.00100    0.09147
 65 Li   -0.00235    0.00223    0.08861
 66 Li    0.00138    0.00385   -0.01588
 67 Li   -0.00104    0.00332   -0.06084
 68 Li   -0.00311   -0.00040   -0.00597
 69 Li    0.00529    0.00685   -0.01473
 70 Li    0.00418   -0.00546    0.00027
 71 Li   -0.00471   -0.00645   -0.01052
 72 Li    0.00000    0.00000    0.30343

System changes: positions 

Initializing position-dependent things.

Density initialized from wave functions
       .-----------------------------------.  
      /|                                   |  
     / |                                   |  
    /  |                                   |  
   /   |                                   |  
  /    |                                   |  
 *     |                                   |  
 |     |                                   |  
 |     |                                   |  
 |     |                                   |  
 |     |                                   |  
 |     |                                   |  
 |     |                                   |  
 |    Li          Li                       |  
 |     |                      Li           |  
 |     |   Li          Li          Li      |  
 |  LLiLi       Li          Li      Li     |  
 |     | Li Li   Li  Li Li       Li      Li|  
 |Li   |  Li  Li          Li LiLi Li       |  
 |     Li      Li  Li Li                   |  
 |    Li          Li       Li Li       Li  |  
 |     |Li Li       Li Li       Li Li      |  
 |  Li |     Li Li       Li Li             |  
 |     | Li Li       Li Li       Li Li     |  
 |Li Li|      Li Li       Li Li            |  
 |     Li Li       Li Li       Li Li       |  
 | Li  |       Li          Li              |  
 |     |Li          Li          Li         |  
 Li    |     Li          Li                |  
 |     |                                   |  
 |     |                                   |  
 |     |                                   |  
 |     |                                   |  
 |     |                                   |  
 |     .-----------------------------------.  
 |    /                                   /   
 |   /                                   /    
 |  /                                   /     
 | /                                   /      
 |/                                   /       
 *-----------------------------------*        

Atomic positions and initial magnetic moments

Positions:
   0 Li     0.000000    0.000000   10.000000    ( 0.0000,  0.0000,  0.0000)
   1 Li     2.467803    1.745000   10.000000    ( 0.0000,  0.0000,  0.0000)
   2 Li     2.467803    0.000000   12.467803    ( 0.0000,  0.0000,  0.0000)
   3 Li     0.000000    1.745000   12.467803    ( 0.0000,  0.0000,  0.0000)
   4 Li     0.013368   -0.045374   14.795049    ( 0.0000,  0.0000,  0.0000)
   5 Li     2.454435    1.790369   14.795051    ( 0.0000,  0.0000,  0.0000)
   6 Li     2.403886    0.074892   17.073833    ( 0.0000,  0.0000,  0.0000)
   7 Li     0.063918    1.670108   17.073830    ( 0.0000,  0.0000,  0.0000)
   8 Li     0.000000    3.490000   10.000000    ( 0.0000,  0.0000,  0.0000)
   9 Li     2.467803    5.235000   10.000000    ( 0.0000,  0.0000,  0.0000)
  10 Li     2.467803    3.490000   12.467803    ( 0.0000,  0.0000,  0.0000)
  11 Li     0.000000    5.235000   12.467803    ( 0.0000,  0.0000,  0.0000)
  12 Li    -0.009203    3.504234   14.849519    ( 0.0000,  0.0000,  0.0000)
  13 Li     2.476892    5.203932   14.980579    ( 0.0000,  0.0000,  0.0000)
  14 Li     2.402612    3.341908   17.377754    ( 0.0000,  0.0000,  0.0000)
  15 Li     0.035848    5.163024   17.292641    ( 0.0000,  0.0000,  0.0000)
  16 Li     0.000000    6.980000   10.000000    ( 0.0000,  0.0000,  0.0000)
  17 Li     2.467803    8.725000   10.000000    ( 0.0000,  0.0000,  0.0000)
  18 Li     2.467803    6.980000   12.467803    ( 0.0000,  0.0000,  0.0000)
  19 Li     0.000000    8.725000   12.467803    ( 0.0000,  0.0000,  0.0000)
  20 Li    -0.009091    7.011065   14.980588    ( 0.0000,  0.0000,  0.0000)
  21 Li     2.477005    8.710774   14.849519    ( 0.0000,  0.0000,  0.0000)
  22 Li     2.431950    7.051975   17.292634    ( 0.0000,  0.0000,  0.0000)
  23 Li     0.065191    8.873095   17.377754    ( 0.0000,  0.0000,  0.0000)
  24 Li     4.935605    0.000000   10.000000    ( 0.0000,  0.0000,  0.0000)
  25 Li     7.403408    1.745000   10.000000    ( 0.0000,  0.0000,  0.0000)
  26 Li     7.403408    0.000000   12.467803    ( 0.0000,  0.0000,  0.0000)
  27 Li     4.935605    1.745000   12.467803    ( 0.0000,  0.0000,  0.0000)
  28 Li     4.924366    0.005955   14.877164    ( 0.0000,  0.0000,  0.0000)
  29 Li     7.405687    1.739000   14.897047    ( 0.0000,  0.0000,  0.0000)
  30 Li     7.373508    0.004550   17.244139    ( 0.0000,  0.0000,  0.0000)
  31 Li     4.840088    1.669326   17.345852    ( 0.0000,  0.0000,  0.0000)
  32 Li     4.935605    3.490000   10.000000    ( 0.0000,  0.0000,  0.0000)
  33 Li     7.403408    5.235000   10.000000    ( 0.0000,  0.0000,  0.0000)
  34 Li     7.403408    3.490000   12.467803    ( 0.0000,  0.0000,  0.0000)
  35 Li     4.935605    5.235000   12.467803    ( 0.0000,  0.0000,  0.0000)
  36 Li     4.947007    3.452910   14.931389    ( 0.0000,  0.0000,  0.0000)
  37 Li     7.399491    5.232898   14.896894    ( 0.0000,  0.0000,  0.0000)
  38 Li     7.364135    3.463285   17.236461    ( 0.0000,  0.0000,  0.0000)
  39 Li     4.860560    5.212835   17.252812    ( 0.0000,  0.0000,  0.0000)
  40 Li     4.935605    6.980000   10.000000    ( 0.0000,  0.0000,  0.0000)
  41 Li     7.403408    8.725000   10.000000    ( 0.0000,  0.0000,  0.0000)
  42 Li     7.403408    6.980000   12.467803    ( 0.0000,  0.0000,  0.0000)
  43 Li     4.935605    8.725000   12.467803    ( 0.0000,  0.0000,  0.0000)
  44 Li     4.940759    7.011087   14.934696    ( 0.0000,  0.0000,  0.0000)
  45 Li     7.405718    8.733094   14.893742    ( 0.0000,  0.0000,  0.0000)
  46 Li     7.364116    7.002164   17.237821    ( 0.0000,  0.0000,  0.0000)
  47 Li     4.831213    8.822921   17.337697    ( 0.0000,  0.0000,  0.0000)
  48 Li     9.871211    0.000000   10.000000    ( 0.0000,  0.0000,  0.0000)
  49 Li    12.339013    1.745000   10.000000    ( 0.0000,  0.0000,  0.0000)
  50 Li    12.339013    0.000000   12.467803    ( 0.0000,  0.0000,  0.0000)
  51 Li     9.871211    1.745000   12.467803    ( 0.0000,  0.0000,  0.0000)
  52 Li     9.868930    0.006002   14.897042    ( 0.0000,  0.0000,  0.0000)
  53 Li    12.350256    1.739047   14.877170    ( 0.0000,  0.0000,  0.0000)
  54 Li    12.434530    0.075675   17.345854    ( 0.0000,  0.0000,  0.0000)
  55 Li     9.901107    1.740450   17.244141    ( 0.0000,  0.0000,  0.0000)
  56 Li     9.871211    3.490000   10.000000    ( 0.0000,  0.0000,  0.0000)
  57 Li    12.339013    5.235000   10.000000    ( 0.0000,  0.0000,  0.0000)
  58 Li    12.339013    3.490000   12.467803    ( 0.0000,  0.0000,  0.0000)
  59 Li     9.871211    5.235000   12.467803    ( 0.0000,  0.0000,  0.0000)
  60 Li     9.868898    3.481906   14.893737    ( 0.0000,  0.0000,  0.0000)
  61 Li    12.333859    5.203910   14.934701    ( 0.0000,  0.0000,  0.0000)
  62 Li    12.443398    3.392078   17.337703    ( 0.0000,  0.0000,  0.0000)
  63 Li     9.910509    5.212839   17.237826    ( 0.0000,  0.0000,  0.0000)
  64 Li     9.871211    6.980000   10.000000    ( 0.0000,  0.0000,  0.0000)
  65 Li    12.339013    8.725000   10.000000    ( 0.0000,  0.0000,  0.0000)
  66 Li    12.339013    6.980000   12.467803    ( 0.0000,  0.0000,  0.0000)
  67 Li     9.871211    8.725000   12.467803    ( 0.0000,  0.0000,  0.0000)
  68 Li     9.875130    6.982100   14.896889    ( 0.0000,  0.0000,  0.0000)
  69 Li    12.327616    8.762091   14.931395    ( 0.0000,  0.0000,  0.0000)
  70 Li    12.414056    7.002168   17.252812    ( 0.0000,  0.0000,  0.0000)
  71 Li     9.910489    8.751714   17.236460    ( 0.0000,  0.0000,  0.0000)
  72 Li     1.233902    0.872502   19.325759    ( 0.0000,  0.0000,  0.0000)

Unit cell:
           periodic     x           y           z      points  spacing
  1. axis:    yes   14.806816    0.000000    0.000000    49     0.3022
  2. axis:    yes    0.000000   10.470000    0.000000    35     0.2991
  3. axis:    no     0.000000    0.000000   27.403408    90     0.3045

  Lengths:  14.806816  10.470000  27.403408
  Angles:   90.000000  90.000000  90.000000

Effective grid spacing dv^(1/3) = 0.3019

     iter     time        total  log10-change:
                         energy   eigst   dens
iter:   1 04:02:36  -128.513119   -4.66
iter:   2 04:02:39  -128.512681   -4.91  -2.61
iter:   3 04:02:42  -128.512743c  -5.71c -2.81
iter:   4 04:02:45  -128.512952c  -5.59c -3.21
iter:   5 04:02:48  -128.512827c  -6.13c -3.45
iter:   6 04:02:51  -128.512802c  -6.12c -3.59
iter:   7 04:02:54  -128.512841c  -6.36c -3.90
iter:   8 04:02:58  -128.512830c  -6.37c -3.99
iter:   9 04:03:01  -128.512797c  -6.28c -4.16c

Converged after 9 iterations.

Dipole moment: (-5.652840, -4.000070, 0.351916) |e|*Ang

Energy contributions relative to reference atoms: (reference = -14803.510878)

Kinetic:       +114.728771
Potential:     -100.326598
External:        +0.000000
XC:            -141.734713
Entropy (-ST):   -1.394218
Local:           -0.483148
SIC:             +0.000000
--------------------------
Free energy:   -129.209907
Extrapolated:  -128.512797

Showing all kpts
 Kpt  Band  Eigenvalues  Occupancy
  0    34     -1.93952    1.51840
  0    35     -1.89364    1.33171
  0    36     -1.82077    0.98039
  0    37     -1.75501    0.66503

  1    34     -1.93711    1.50952
  1    35     -1.89396    1.33310
  1    36     -1.82113    0.98220
  1    37     -1.75500    0.66499


Fermi level: -1.82469

Gap: 0.073 eV
Transition (v -> c):
  (s=0, k=0, n=35, [0.25, -0.25, 0.00]) -> (s=0, k=1, n=36, [0.25, 0.25, 0.00])
Direct/indirect transitions are different
Direct gap: 0.073 eV
Transition at: (s=0, k=1, n=35, [0.25, 0.25, 0.00])

Forces in eV/Ang:
  0 Li    0.00104    0.00095    0.10146
  1 Li   -0.00104   -0.00095    0.10146
  2 Li    0.00546   -0.01049   -0.08139
  3 Li   -0.00546    0.01049   -0.08139
  4 Li   -0.01420   -0.00955    0.00097
  5 Li    0.01420    0.00956    0.00097
  6 Li    0.12857   -0.10714   -0.20500
  7 Li   -0.12857    0.10714   -0.20500
  8 Li    0.00165   -0.00391    0.10011
  9 Li    0.00011   -0.00303    0.08634
 10 Li    0.00374    0.04436   -0.10989
 11 Li    0.00527    0.02701   -0.05072
 12 Li   -0.00228    0.00599   -0.01252
 13 Li   -0.00885    0.00297   -0.02888
 14 Li    0.00632   -0.00505   -0.01905
 15 Li    0.01679    0.00676   -0.01229
 16 Li   -0.00011    0.00303    0.08634
 17 Li   -0.00165    0.00391    0.10011
 18 Li   -0.00527   -0.02701   -0.05072
 19 Li   -0.00374   -0.04436   -0.10989
 20 Li    0.00885   -0.00297   -0.02889
 21 Li    0.00228   -0.00600   -0.01252
 22 Li   -0.01679   -0.00676   -0.01229
 23 Li   -0.00632    0.00505   -0.01904
 24 Li    0.00115    0.00065    0.08832
 25 Li    0.00417    0.00042    0.08729
 26 Li   -0.00193    0.00134   -0.06731
 27 Li    0.00475    0.00856   -0.08269
 28 Li   -0.00010    0.00311    0.02291
 29 Li    0.00092   -0.00765   -0.01492
 30 Li    0.02611   -0.00070   -0.02448
 31 Li   -0.00860    0.03227    0.00366
 32 Li    0.00231   -0.00222    0.08868
 33 Li    0.00451    0.00094    0.09174
 34 Li    0.00103   -0.00332   -0.06103
 35 Li   -0.00143   -0.00375   -0.01591
 36 Li   -0.00531   -0.00666   -0.01432
 37 Li    0.00301    0.00053   -0.00592
 38 Li    0.00464    0.00636   -0.01066
 39 Li   -0.00415    0.00501    0.00008
 40 Li    0.00527    0.00132    0.09223
 41 Li    0.00373   -0.00080    0.08651
 42 Li    0.00041    0.00216   -0.05760
 43 Li    0.00568   -0.00632   -0.07518
 44 Li   -0.00756   -0.00103    0.00618
 45 Li    0.00393    0.00635   -0.01125
 46 Li    0.00298   -0.00582   -0.01133
 47 Li    0.01958   -0.02997   -0.02962
 48 Li   -0.00417   -0.00042    0.08729
 49 Li   -0.00115   -0.00065    0.08831
 50 Li   -0.00475   -0.00855   -0.08268
 51 Li    0.00193   -0.00134   -0.06731
 52 Li   -0.00091    0.00765   -0.01491
 53 Li    0.00010   -0.00311    0.02290
 54 Li    0.00860   -0.03227    0.00366
 55 Li   -0.02611    0.00070   -0.02448
 56 Li   -0.00373    0.00080    0.08650
 57 Li   -0.00527   -0.00132    0.09223
 58 Li   -0.00568    0.00632   -0.07518
 59 Li   -0.00041   -0.00216   -0.05760
 60 Li   -0.00393   -0.00635   -0.01124
 61 Li    0.00756    0.00104    0.00618
 62 Li   -0.01958    0.02997   -0.02962
 63 Li   -0.00299    0.00582   -0.01134
 64 Li   -0.00451   -0.00094    0.09174
 65 Li   -0.00231    0.00222    0.08868
 66 Li    0.00144    0.00375   -0.01590
 67 Li   -0.00103    0.00332   -0.06103
 68 Li   -0.00301   -0.00052   -0.00591
 69 Li    0.00531    0.00666   -0.01433
 70 Li    0.00415   -0.00501    0.00008
 71 Li   -0.00464   -0.00635   -0.01066
 72 Li    0.00000    0.00000    0.29195

System changes: positions 

Initializing position-dependent things.

Density initialized from wave functions
       .-----------------------------------.  
      /|                                   |  
     / |                                   |  
    /  |                                   |  
   /   |                                   |  
  /    |                                   |  
 *     |                                   |  
 |     |                                   |  
 |     |                                   |  
 |     |                                   |  
 |     |                                   |  
 |     |                                   |  
 |     |                                   |  
 |    Li          Li                       |  
 |     |                      Li           |  
 |     |   Li          Li          Li      |  
 |  LLiLi       Li          Li      Li     |  
 |     | Li Li   Li  Li Li       Li      Li|  
 |Li   |  Li  Li          Li LiLi Li       |  
 |     Li      Li  Li Li                   |  
 |    Li          Li       Li Li       Li  |  
 |     |Li Li       Li Li       Li Li      |  
 |  Li |     Li Li       Li Li             |  
 |     | Li Li       Li Li       Li Li     |  
 |Li Li|      Li Li       Li Li            |  
 |     Li Li       Li Li       Li Li       |  
 | Li  |       Li          Li              |  
 |     |Li          Li          Li         |  
 Li    |     Li          Li                |  
 |     |                                   |  
 |     |                                   |  
 |     |                                   |  
 |     |                                   |  
 |     |                                   |  
 |     .-----------------------------------.  
 |    /                                   /   
 |   /                                   /    
 |  /                                   /     
 | /                                   /      
 |/                                   /       
 *-----------------------------------*        

Atomic positions and initial magnetic moments

Positions:
   0 Li     0.000000    0.000000   10.000000    ( 0.0000,  0.0000,  0.0000)
   1 Li     2.467803    1.745000   10.000000    ( 0.0000,  0.0000,  0.0000)
   2 Li     2.467803    0.000000   12.467803    ( 0.0000,  0.0000,  0.0000)
   3 Li     0.000000    1.745000   12.467803    ( 0.0000,  0.0000,  0.0000)
   4 Li     0.013082   -0.045563   14.795077    ( 0.0000,  0.0000,  0.0000)
   5 Li     2.454721    1.790558   14.795079    ( 0.0000,  0.0000,  0.0000)
   6 Li     2.406511    0.072712   17.069657    ( 0.0000,  0.0000,  0.0000)
   7 Li     0.061293    1.672288   17.069655    ( 0.0000,  0.0000,  0.0000)
   8 Li     0.000000    3.490000   10.000000    ( 0.0000,  0.0000,  0.0000)
   9 Li     2.467803    5.235000   10.000000    ( 0.0000,  0.0000,  0.0000)
  10 Li     2.467803    3.490000   12.467803    ( 0.0000,  0.0000,  0.0000)
  11 Li     0.000000    5.235000   12.467803    ( 0.0000,  0.0000,  0.0000)
  12 Li    -0.009249    3.504345   14.849277    ( 0.0000,  0.0000,  0.0000)
  13 Li     2.476714    5.203994   14.979998    ( 0.0000,  0.0000,  0.0000)
  14 Li     2.402742    3.341809   17.377372    ( 0.0000,  0.0000,  0.0000)
  15 Li     0.036188    5.163160   17.292398    ( 0.0000,  0.0000,  0.0000)
  16 Li     0.000000    6.980000   10.000000    ( 0.0000,  0.0000,  0.0000)
  17 Li     2.467803    8.725000   10.000000    ( 0.0000,  0.0000,  0.0000)
  18 Li     2.467803    6.980000   12.467803    ( 0.0000,  0.0000,  0.0000)
  19 Li     0.000000    8.725000   12.467803    ( 0.0000,  0.0000,  0.0000)
  20 Li    -0.008913    7.011003   14.980006    ( 0.0000,  0.0000,  0.0000)
  21 Li     2.477050    8.710663   14.849277    ( 0.0000,  0.0000,  0.0000)
  22 Li     2.431610    7.051838   17.292391    ( 0.0000,  0.0000,  0.0000)
  23 Li     0.065061    8.873193   17.377372    ( 0.0000,  0.0000,  0.0000)
  24 Li     4.935605    0.000000   10.000000    ( 0.0000,  0.0000,  0.0000)
  25 Li     7.403408    1.745000   10.000000    ( 0.0000,  0.0000,  0.0000)
  26 Li     7.403408    0.000000   12.467803    ( 0.0000,  0.0000,  0.0000)
  27 Li     4.935605    1.745000   12.467803    ( 0.0000,  0.0000,  0.0000)
  28 Li     4.924364    0.006018   14.877625    ( 0.0000,  0.0000,  0.0000)
  29 Li     7.405704    1.738846   14.896745    ( 0.0000,  0.0000,  0.0000)
  30 Li     7.374036    0.004535   17.243648    ( 0.0000,  0.0000,  0.0000)
  31 Li     4.839907    1.669976   17.345926    ( 0.0000,  0.0000,  0.0000)
  32 Li     4.935605    3.490000   10.000000    ( 0.0000,  0.0000,  0.0000)
  33 Li     7.403408    5.235000   10.000000    ( 0.0000,  0.0000,  0.0000)
  34 Li     7.403408    3.490000   12.467803    ( 0.0000,  0.0000,  0.0000)
  35 Li     4.935605    5.235000   12.467803    ( 0.0000,  0.0000,  0.0000)
  36 Li     4.946900    3.452775   14.931099    ( 0.0000,  0.0000,  0.0000)
  37 Li     7.399553    5.232907   14.896774    ( 0.0000,  0.0000,  0.0000)
  38 Li     7.364229    3.463413   17.236249    ( 0.0000,  0.0000,  0.0000)
  39 Li     4.860476    5.212940   17.252816    ( 0.0000,  0.0000,  0.0000)
  40 Li     4.935605    6.980000   10.000000    ( 0.0000,  0.0000,  0.0000)
  41 Li     7.403408    8.725000   10.000000    ( 0.0000,  0.0000,  0.0000)
  42 Li     7.403408    6.980000   12.467803    ( 0.0000,  0.0000,  0.0000)
  43 Li     4.935605    8.725000   12.467803    ( 0.0000,  0.0000,  0.0000)
  44 Li     4.940607    7.011066   14.934821    ( 0.0000,  0.0000,  0.0000)
  45 Li     7.405796    8.733223   14.893514    ( 0.0000,  0.0000,  0.0000)
  46 Li     7.364174    7.002047   17.237597    ( 0.0000,  0.0000,  0.0000)
  47 Li     4.831601    8.822320   17.337102    ( 0.0000,  0.0000,  0.0000)
  48 Li     9.871211    0.000000   10.000000    ( 0.0000,  0.0000,  0.0000)
  49 Li    12.339013    1.745000   10.000000    ( 0.0000,  0.0000,  0.0000)
  50 Li    12.339013    0.000000   12.467803    ( 0.0000,  0.0000,  0.0000)
  51 Li     9.871211    1.745000   12.467803    ( 0.0000,  0.0000,  0.0000)
  52 Li     9.868913    0.006157   14.896740    ( 0.0000,  0.0000,  0.0000)
  53 Li    12.350259    1.738984   14.877631    ( 0.0000,  0.0000,  0.0000)
  54 Li    12.434711    0.075024   17.345927    ( 0.0000,  0.0000,  0.0000)
  55 Li     9.900580    1.740465   17.243650    ( 0.0000,  0.0000,  0.0000)
  56 Li     9.871211    3.490000   10.000000    ( 0.0000,  0.0000,  0.0000)
  57 Li    12.339013    5.235000   10.000000    ( 0.0000,  0.0000,  0.0000)
  58 Li    12.339013    3.490000   12.467803    ( 0.0000,  0.0000,  0.0000)
  59 Li     9.871211    5.235000   12.467803    ( 0.0000,  0.0000,  0.0000)
  60 Li     9.868821    3.481776   14.893510    ( 0.0000,  0.0000,  0.0000)
  61 Li    12.334012    5.203931   14.934826    ( 0.0000,  0.0000,  0.0000)
  62 Li    12.443010    3.392679   17.337108    ( 0.0000,  0.0000,  0.0000)
  63 Li     9.910451    5.212955   17.237601    ( 0.0000,  0.0000,  0.0000)
  64 Li     9.871211    6.980000   10.000000    ( 0.0000,  0.0000,  0.0000)
  65 Li    12.339013    8.725000   10.000000    ( 0.0000,  0.0000,  0.0000)
  66 Li    12.339013    6.980000   12.467803    ( 0.0000,  0.0000,  0.0000)
  67 Li     9.871211    8.725000   12.467803    ( 0.0000,  0.0000,  0.0000)
  68 Li     9.875068    6.982091   14.896770    ( 0.0000,  0.0000,  0.0000)
  69 Li    12.327723    8.762227   14.931104    ( 0.0000,  0.0000,  0.0000)
  70 Li    12.414139    7.002063   17.252815    ( 0.0000,  0.0000,  0.0000)
  71 Li     9.910395    8.751586   17.236247    ( 0.0000,  0.0000,  0.0000)
  72 Li     1.233902    0.872502   19.331712    ( 0.0000,  0.0000,  0.0000)

Unit cell:
           periodic     x           y           z      points  spacing
  1. axis:    yes   14.806816    0.000000    0.000000    49     0.3022
  2. axis:    yes    0.000000   10.470000    0.000000    35     0.2991
  3. axis:    no     0.000000    0.000000   27.403408    90     0.3045

  Lengths:  14.806816  10.470000  27.403408
  Angles:   90.000000  90.000000  90.000000

Effective grid spacing dv^(1/3) = 0.3019

     iter     time        total  log10-change:
                         energy   eigst   dens
iter:   1 04:05:06  -128.519185   -4.19
iter:   2 04:05:09  -128.517626   -4.52  -2.37
iter:   3 04:05:12  -128.517509c  -5.51c -2.55
iter:   4 04:05:15  -128.517829c  -5.20  -2.95
iter:   5 04:05:18  -128.517578c  -5.92c -3.17
iter:   6 04:05:21  -128.517553c  -6.12c -3.31
iter:   7 04:05:24  -128.517626c  -6.43c -3.64
iter:   8 04:05:27  -128.517606c  -6.70c -3.71
iter:   9 04:05:30  -128.517557c  -6.60c -3.92
iter:  10 04:05:33  -128.517570c  -7.05c -4.08c

Converged after 10 iterations.

Dipole moment: (-5.606321, -3.959558, 0.354782) |e|*Ang

Energy contributions relative to reference atoms: (reference = -14803.510878)

Kinetic:       +114.695979
Potential:     -100.306569
External:        +0.000000
XC:            -141.726771
Entropy (-ST):   -1.394295
Local:           -0.483062
SIC:             +0.000000
--------------------------
Free energy:   -129.214718
Extrapolated:  -128.517570

Showing all kpts
 Kpt  Band  Eigenvalues  Occupancy
  0    34     -1.93910    1.51844
  0    35     -1.89318    1.33159
  0    36     -1.82025    0.97999
  0    37     -1.75452    0.66480

  1    34     -1.93666    1.50948
  1    35     -1.89343    1.33268
  1    36     -1.82061    0.98179
  1    37     -1.75460    0.66513


Fermi level: -1.82426

Gap: 0.073 eV
Transition (v -> c):
  (s=0, k=0, n=35, [0.25, -0.25, 0.00]) -> (s=0, k=1, n=36, [0.25, 0.25, 0.00])
Direct/indirect transitions are different
Direct gap: 0.073 eV
Transition at: (s=0, k=1, n=35, [0.25, 0.25, 0.00])

Forces in eV/Ang:
  0 Li    0.00104    0.00099    0.10138
  1 Li   -0.00105   -0.00099    0.10138
  2 Li    0.00550   -0.01048   -0.08111
  3 Li   -0.00551    0.01048   -0.08110
  4 Li   -0.01353   -0.01004   -0.00050
  5 Li    0.01353    0.01005   -0.00050
  6 Li    0.11817   -0.10020   -0.19098
  7 Li   -0.11818    0.10020   -0.19098
  8 Li    0.00161   -0.00398    0.10021
  9 Li    0.00012   -0.00308    0.08634
 10 Li    0.00378    0.04449   -0.11023
 11 Li    0.00525    0.02717   -0.05101
 12 Li   -0.00214    0.00770   -0.01420
 13 Li   -0.00866    0.00238   -0.02817
 14 Li    0.00529   -0.00547   -0.01884
 15 Li    0.01632    0.00659   -0.01233
 16 Li   -0.00012    0.00308    0.08634
 17 Li   -0.00161    0.00398    0.10021
 18 Li   -0.00526   -0.02717   -0.05101
 19 Li   -0.00378   -0.04449   -0.11023
 20 Li    0.00866   -0.00237   -0.02819
 21 Li    0.00214   -0.00771   -0.01421
 22 Li   -0.01632   -0.00659   -0.01233
 23 Li   -0.00529    0.00547   -0.01884
 24 Li    0.00120    0.00068    0.08824
 25 Li    0.00419    0.00032    0.08720
 26 Li   -0.00193    0.00138   -0.06766
 27 Li    0.00485    0.00845   -0.08288
 28 Li    0.00011    0.00312    0.02210
 29 Li    0.00102   -0.00727   -0.01471
 30 Li    0.02510   -0.00070   -0.02407
 31 Li   -0.00715    0.03157    0.00386
 32 Li    0.00230   -0.00229    0.08867
 33 Li    0.00457    0.00097    0.09162
 34 Li    0.00094   -0.00340   -0.06111
 35 Li   -0.00157   -0.00361   -0.01587
 36 Li   -0.00528   -0.00629   -0.01365
 37 Li    0.00275    0.00057   -0.00584
 38 Li    0.00450    0.00641   -0.01064
 39 Li   -0.00425    0.00454    0.00010
 40 Li    0.00532    0.00138    0.09227
 41 Li    0.00374   -0.00076    0.08636
 42 Li    0.00034    0.00219   -0.05770
 43 Li    0.00573   -0.00633   -0.07511
 44 Li   -0.00734   -0.00100    0.00570
 45 Li    0.00395    0.00595   -0.01112
 46 Li    0.00312   -0.00584   -0.01131
 47 Li    0.02029   -0.03010   -0.02885
 48 Li   -0.00419   -0.00032    0.08720
 49 Li   -0.00120   -0.00068    0.08824
 50 Li   -0.00485   -0.00845   -0.08288
 51 Li    0.00193   -0.00137   -0.06766
 52 Li   -0.00102    0.00727   -0.01470
 53 Li   -0.00011   -0.00313    0.02209
 54 Li    0.00715   -0.03157    0.00386
 55 Li   -0.02509    0.00069   -0.02408
 56 Li   -0.00374    0.00076    0.08636
 57 Li   -0.00532   -0.00138    0.09226
 58 Li   -0.00573    0.00633   -0.07510
 59 Li   -0.00034   -0.00219   -0.05770
 60 Li   -0.00395   -0.00595   -0.01111
 61 Li    0.00734    0.00100    0.00570
 62 Li   -0.02028    0.03010   -0.02885
 63 Li   -0.00313    0.00584   -0.01132
 64 Li   -0.00457   -0.00097    0.09162
 65 Li   -0.00230    0.00229    0.08868
 66 Li    0.00157    0.00361   -0.01586
 67 Li   -0.00094    0.00340   -0.06111
 68 Li   -0.00275   -0.00056   -0.00584
 69 Li    0.00527    0.00629   -0.01365
 70 Li    0.00426   -0.00455    0.00011
 71 Li   -0.00451   -0.00640   -0.01065
 72 Li    0.00000    0.00000    0.27034

System changes: positions 

Initializing position-dependent things.

Density initialized from wave functions
       .-----------------------------------.  
      /|                                   |  
     / |                                   |  
    /  |                                   |  
   /   |                                   |  
  /    |                                   |  
 *     |                                   |  
 |     |                                   |  
 |     |                                   |  
 |     |                                   |  
 |     |                                   |  
 |     |                                   |  
 |     |                                   |  
 |    Li          Li                       |  
 |     |                      Li           |  
 |     |   Li          Li          Li      |  
 |  LLiLi       Li          Li      Li     |  
 |     | Li Li   Li  Li Li       Li      Li|  
 |Li   |  Li  Li          Li LiLi Li       |  
 |     Li      Li  Li Li                   |  
 |    Li          Li       Li Li       Li  |  
 |     |Li Li       Li Li       Li Li      |  
 |  Li |     Li Li       Li Li             |  
 |     | Li Li       Li Li       Li Li     |  
 |Li Li|      Li Li       Li Li            |  
 |     Li Li       Li Li       Li Li       |  
 | Li  |       Li          Li              |  
 |     |Li          Li          Li         |  
 Li    |     Li          Li                |  
 |     |                                   |  
 |     |                                   |  
 |     |                                   |  
 |     |                                   |  
 |     |                                   |  
 |     .-----------------------------------.  
 |    /                                   /   
 |   /                                   /    
 |  /                                   /     
 | /                                   /      
 |/                                   /       
 *-----------------------------------*        

Atomic positions and initial magnetic moments

Positions:
   0 Li     0.000000    0.000000   10.000000    ( 0.0000,  0.0000,  0.0000)
   1 Li     2.467803    1.745000   10.000000    ( 0.0000,  0.0000,  0.0000)
   2 Li     2.467803    0.000000   12.467803    ( 0.0000,  0.0000,  0.0000)
   3 Li     0.000000    1.745000   12.467803    ( 0.0000,  0.0000,  0.0000)
   4 Li     0.012659   -0.045855   14.795097    ( 0.0000,  0.0000,  0.0000)
   5 Li     2.455144    1.790851   14.795098    ( 0.0000,  0.0000,  0.0000)
   6 Li     2.410313    0.069528   17.063573    ( 0.0000,  0.0000,  0.0000)
   7 Li     0.057490    1.675472   17.063571    ( 0.0000,  0.0000,  0.0000)
   8 Li     0.000000    3.490000   10.000000    ( 0.0000,  0.0000,  0.0000)
   9 Li     2.467803    5.235000   10.000000    ( 0.0000,  0.0000,  0.0000)
  10 Li     2.467803    3.490000   12.467803    ( 0.0000,  0.0000,  0.0000)
  11 Li     0.000000    5.235000   12.467803    ( 0.0000,  0.0000,  0.0000)
  12 Li    -0.009316    3.504538   14.848886    ( 0.0000,  0.0000,  0.0000)
  13 Li     2.476449    5.204079   14.979131    ( 0.0000,  0.0000,  0.0000)
  14 Li     2.402923    3.341654   17.376799    ( 0.0000,  0.0000,  0.0000)
  15 Li     0.036693    5.163363   17.292029    ( 0.0000,  0.0000,  0.0000)
  16 Li     0.000000    6.980000   10.000000    ( 0.0000,  0.0000,  0.0000)
  17 Li     2.467803    8.725000   10.000000    ( 0.0000,  0.0000,  0.0000)
  18 Li     2.467803    6.980000   12.467803    ( 0.0000,  0.0000,  0.0000)
  19 Li     0.000000    8.725000   12.467803    ( 0.0000,  0.0000,  0.0000)
  20 Li    -0.008647    7.010918   14.979139    ( 0.0000,  0.0000,  0.0000)
  21 Li     2.477118    8.710469   14.848886    ( 0.0000,  0.0000,  0.0000)
  22 Li     2.431105    7.051635   17.292022    ( 0.0000,  0.0000,  0.0000)
  23 Li     0.064880    8.873349   17.376799    ( 0.0000,  0.0000,  0.0000)
  24 Li     4.935605    0.000000   10.000000    ( 0.0000,  0.0000,  0.0000)
  25 Li     7.403408    1.745000   10.000000    ( 0.0000,  0.0000,  0.0000)
  26 Li     7.403408    0.000000   12.467803    ( 0.0000,  0.0000,  0.0000)
  27 Li     4.935605    1.745000   12.467803    ( 0.0000,  0.0000,  0.0000)
  28 Li     4.924363    0.006112   14.878310    ( 0.0000,  0.0000,  0.0000)
  29 Li     7.405731    1.738618   14.896295    ( 0.0000,  0.0000,  0.0000)
  30 Li     7.374816    0.004513   17.242913    ( 0.0000,  0.0000,  0.0000)
  31 Li     4.839657    1.670946   17.346039    ( 0.0000,  0.0000,  0.0000)
  32 Li     4.935605    3.490000   10.000000    ( 0.0000,  0.0000,  0.0000)
  33 Li     7.403408    5.235000   10.000000    ( 0.0000,  0.0000,  0.0000)
  34 Li     7.403408    3.490000   12.467803    ( 0.0000,  0.0000,  0.0000)
  35 Li     4.935605    5.235000   12.467803    ( 0.0000,  0.0000,  0.0000)
  36 Li     4.946740    3.452576   14.930671    ( 0.0000,  0.0000,  0.0000)
  37 Li     7.399641    5.232923   14.896596    ( 0.0000,  0.0000,  0.0000)
  38 Li     7.364368    3.463606   17.235928    ( 0.0000,  0.0000,  0.0000)
  39 Li     4.860349    5.213089   17.252820    ( 0.0000,  0.0000,  0.0000)
  40 Li     4.935605    6.980000   10.000000    ( 0.0000,  0.0000,  0.0000)
  41 Li     7.403408    8.725000   10.000000    ( 0.0000,  0.0000,  0.0000)
  42 Li     7.403408    6.980000   12.467803    ( 0.0000,  0.0000,  0.0000)
  43 Li     4.935605    8.725000   12.467803    ( 0.0000,  0.0000,  0.0000)
  44 Li     4.940380    7.011035   14.935003    ( 0.0000,  0.0000,  0.0000)
  45 Li     7.405914    8.733412   14.893174    ( 0.0000,  0.0000,  0.0000)
  46 Li     7.364265    7.001871   17.237257    ( 0.0000,  0.0000,  0.0000)
  47 Li     4.832198    8.821412   17.336215    ( 0.0000,  0.0000,  0.0000)
  48 Li     9.871211    0.000000   10.000000    ( 0.0000,  0.0000,  0.0000)
  49 Li    12.339013    1.745000   10.000000    ( 0.0000,  0.0000,  0.0000)
  50 Li    12.339013    0.000000   12.467803    ( 0.0000,  0.0000,  0.0000)
  51 Li     9.871211    1.745000   12.467803    ( 0.0000,  0.0000,  0.0000)
  52 Li     9.868886    0.006385   14.896290    ( 0.0000,  0.0000,  0.0000)
  53 Li    12.350259    1.738890   14.878316    ( 0.0000,  0.0000,  0.0000)
  54 Li    12.434962    0.074054   17.346041    ( 0.0000,  0.0000,  0.0000)
  55 Li     9.899800    1.740487   17.242916    ( 0.0000,  0.0000,  0.0000)
  56 Li     9.871211    3.490000   10.000000    ( 0.0000,  0.0000,  0.0000)
  57 Li    12.339013    5.235000   10.000000    ( 0.0000,  0.0000,  0.0000)
  58 Li    12.339013    3.490000   12.467803    ( 0.0000,  0.0000,  0.0000)
  59 Li     9.871211    5.235000   12.467803    ( 0.0000,  0.0000,  0.0000)
  60 Li     9.868702    3.481587   14.893170    ( 0.0000,  0.0000,  0.0000)
  61 Li    12.334238    5.203962   14.935008    ( 0.0000,  0.0000,  0.0000)
  62 Li    12.442413    3.393586   17.336221    ( 0.0000,  0.0000,  0.0000)
  63 Li     9.910360    5.213131   17.237261    ( 0.0000,  0.0000,  0.0000)
  64 Li     9.871211    6.980000   10.000000    ( 0.0000,  0.0000,  0.0000)
  65 Li    12.339013    8.725000   10.000000    ( 0.0000,  0.0000,  0.0000)
  66 Li    12.339013    6.980000   12.467803    ( 0.0000,  0.0000,  0.0000)
  67 Li     9.871211    8.725000   12.467803    ( 0.0000,  0.0000,  0.0000)
  68 Li     9.874980    6.982075   14.896592    ( 0.0000,  0.0000,  0.0000)
  69 Li    12.327882    8.762425   14.930676    ( 0.0000,  0.0000,  0.0000)
  70 Li    12.414266    7.001914   17.252819    ( 0.0000,  0.0000,  0.0000)
  71 Li     9.910256    8.751392   17.235926    ( 0.0000,  0.0000,  0.0000)
  72 Li     1.233902    0.872502   19.340364    ( 0.0000,  0.0000,  0.0000)

Unit cell:
           periodic     x           y           z      points  spacing
  1. axis:    yes   14.806816    0.000000    0.000000    49     0.3022
  2. axis:    yes    0.000000   10.470000    0.000000    35     0.2991
  3. axis:    no     0.000000    0.000000   27.403408    90     0.3045

  Lengths:  14.806816  10.470000  27.403408
  Angles:   90.000000  90.000000  90.000000

Effective grid spacing dv^(1/3) = 0.3019

     iter     time        total  log10-change:
                         energy   eigst   dens
iter:   1 04:07:55  -128.528696   -3.81
iter:   2 04:07:58  -128.524626   -4.13  -2.18
iter:   3 04:08:01  -128.523970c  -5.16  -2.36
iter:   4 04:08:04  -128.524365c  -4.85  -2.77
iter:   5 04:08:07  -128.523996c  -5.63c -2.99
iter:   6 04:08:10  -128.523926c  -5.88c -3.14
iter:   7 04:08:13  -128.524042c  -6.20c -3.46
iter:   8 04:08:16  -128.524014c  -6.79c -3.54
iter:   9 04:08:19  -128.523938c  -6.70c -3.74
iter:  10 04:08:22  -128.523961c  -7.28c -3.89
iter:  11 04:08:25  -128.523976c  -6.99c -4.01c

Converged after 11 iterations.

Dipole moment: (-5.538461, -3.899413, 0.358714) |e|*Ang

Energy contributions relative to reference atoms: (reference = -14803.510878)

Kinetic:       +114.647548
Potential:     -100.275771
External:        +0.000000
XC:            -141.715618
Entropy (-ST):   -1.394280
Local:           -0.482995
SIC:             +0.000000
--------------------------
Free energy:   -129.221116
Extrapolated:  -128.523976

Showing all kpts
 Kpt  Band  Eigenvalues  Occupancy
  0    34     -1.93844    1.51852
  0    35     -1.89244    1.33135
  0    36     -1.81947    0.97947
  0    37     -1.75381    0.66465

  1    34     -1.93597    1.50943
  1    35     -1.89260    1.33204
  1    36     -1.81982    0.98126
  1    37     -1.75398    0.66543


Fermi level: -1.82357

Gap: 0.073 eV
Transition (v -> c):
  (s=0, k=0, n=35, [0.25, -0.25, 0.00]) -> (s=0, k=1, n=36, [0.25, 0.25, 0.00])
Direct/indirect transitions are different
Direct gap: 0.073 eV
Transition at: (s=0, k=1, n=35, [0.25, 0.25, 0.00])

Forces in eV/Ang:
  0 Li    0.00105    0.00097    0.10132
  1 Li   -0.00105   -0.00097    0.10132
  2 Li    0.00554   -0.01039   -0.08069
  3 Li   -0.00554    0.01039   -0.08069
  4 Li   -0.01259   -0.01064   -0.00228
  5 Li    0.01259    0.01065   -0.00228
  6 Li    0.10331   -0.09007   -0.17089
  7 Li   -0.10331    0.09007   -0.17088
  8 Li    0.00161   -0.00402    0.10027
  9 Li    0.00017   -0.00315    0.08618
 10 Li    0.00388    0.04448   -0.11074
 11 Li    0.00517    0.02732   -0.05156
 12 Li   -0.00189    0.01002   -0.01665
 13 Li   -0.00833    0.00157   -0.02708
 14 Li    0.00369   -0.00655   -0.01838
 15 Li    0.01572    0.00631   -0.01225
 16 Li   -0.00018    0.00315    0.08618
 17 Li   -0.00161    0.00402    0.10027
 18 Li   -0.00517   -0.02732   -0.05156
 19 Li   -0.00388   -0.04448   -0.11074
 20 Li    0.00834   -0.00157   -0.02709
 21 Li    0.00189   -0.01002   -0.01665
 22 Li   -0.01572   -0.00631   -0.01225
 23 Li   -0.00369    0.00655   -0.01838
 24 Li    0.00124    0.00071    0.08816
 25 Li    0.00422    0.00033    0.08710
 26 Li   -0.00196    0.00138   -0.06803
 27 Li    0.00499    0.00829   -0.08298
 28 Li    0.00063    0.00330    0.02080
 29 Li    0.00098   -0.00679   -0.01450
 30 Li    0.02353   -0.00060   -0.02346
 31 Li   -0.00550    0.03048    0.00418
 32 Li    0.00232   -0.00229    0.08866
 33 Li    0.00466    0.00101    0.09154
 34 Li    0.00084   -0.00339   -0.06127
 35 Li   -0.00154   -0.00350   -0.01586
 36 Li   -0.00511   -0.00588   -0.01280
 37 Li    0.00233    0.00058   -0.00593
 38 Li    0.00416    0.00637   -0.01058
 39 Li   -0.00444    0.00392    0.00018
 40 Li    0.00544    0.00138    0.09224
 41 Li    0.00383   -0.00083    0.08624
 42 Li    0.00037    0.00216   -0.05792
 43 Li    0.00589   -0.00624   -0.07493
 44 Li   -0.00696   -0.00103    0.00505
 45 Li    0.00389    0.00547   -0.01105
 46 Li    0.00317   -0.00583   -0.01122
 47 Li    0.02126   -0.03017   -0.02760
 48 Li   -0.00422   -0.00033    0.08710
 49 Li   -0.00123   -0.00071    0.08816
 50 Li   -0.00499   -0.00829   -0.08298
 51 Li    0.00196   -0.00138   -0.06803
 52 Li   -0.00098    0.00679   -0.01449
 53 Li   -0.00063   -0.00330    0.02080
 54 Li    0.00550   -0.03048    0.00419
 55 Li   -0.02352    0.00060   -0.02346
 56 Li   -0.00383    0.00083    0.08624
 57 Li   -0.00544   -0.00138    0.09224
 58 Li   -0.00589    0.00624   -0.07493
 59 Li   -0.00037   -0.00216   -0.05792
 60 Li   -0.00389   -0.00547   -0.01104
 61 Li    0.00696    0.00103    0.00505
 62 Li   -0.02126    0.03017   -0.02760
 63 Li   -0.00317    0.00583   -0.01123
 64 Li   -0.00466   -0.00101    0.09154
 65 Li   -0.00232    0.00229    0.08867
 66 Li    0.00154    0.00350   -0.01586
 67 Li   -0.00084    0.00339   -0.06127
 68 Li   -0.00234   -0.00058   -0.00593
 69 Li    0.00511    0.00588   -0.01280
 70 Li    0.00444   -0.00392    0.00019
 71 Li   -0.00417   -0.00637   -0.01059
 72 Li    0.00000    0.00000    0.23949

System changes: positions 

Initializing position-dependent things.

Density initialized from wave functions
       .-----------------------------------.  
      /|                                   |  
     / |                                   |  
    /  |                                   |  
   /   |                                   |  
  /    |                                   |  
 *     |                                   |  
 |     |                                   |  
 |     |                                   |  
 |     |                                   |  
 |     |                                   |  
 |     |                                   |  
 |     |                                   |  
 |    Li          Li                       |  
 |     |                      Li           |  
 |   Li|   Li          Li          Li      |  
 |  Li Li       Li          Li      Li     |  
 |     | Li Li   Li  Li Li       Li      Li|  
 |Li   |  Li  Li          Li LiLi Li       |  
 |     Li      Li  Li Li                   |  
 |    Li          Li       Li Li       Li  |  
 |     |Li Li       Li Li       Li Li      |  
 |  Li |     Li Li       Li Li             |  
 |     | Li Li       Li Li       Li Li     |  
 |Li Li|      Li Li       Li Li            |  
 |     Li Li       Li Li       Li Li       |  
 | Li  |       Li          Li              |  
 |     |Li          Li          Li         |  
 Li    |     Li          Li                |  
 |     |                                   |  
 |     |                                   |  
 |     |                                   |  
 |     |                                   |  
 |     |                                   |  
 |     .-----------------------------------.  
 |    /                                   /   
 |   /                                   /    
 |  /                                   /     
 | /                                   /      
 |/                                   /       
 *-----------------------------------*        

Atomic positions and initial magnetic moments

Positions:
   0 Li     0.000000    0.000000   10.000000    ( 0.0000,  0.0000,  0.0000)
   1 Li     2.467803    1.745000   10.000000    ( 0.0000,  0.0000,  0.0000)
   2 Li     2.467803    0.000000   12.467803    ( 0.0000,  0.0000,  0.0000)
   3 Li     0.000000    1.745000   12.467803    ( 0.0000,  0.0000,  0.0000)
   4 Li     0.012107   -0.046262   14.795083    ( 0.0000,  0.0000,  0.0000)
   5 Li     2.455695    1.791258   14.795085    ( 0.0000,  0.0000,  0.0000)
   6 Li     2.415134    0.065443   17.055783    ( 0.0000,  0.0000,  0.0000)
   7 Li     0.052669    1.679557   17.055781    ( 0.0000,  0.0000,  0.0000)
   8 Li     0.000000    3.490000   10.000000    ( 0.0000,  0.0000,  0.0000)
   9 Li     2.467803    5.235000   10.000000    ( 0.0000,  0.0000,  0.0000)
  10 Li     2.467803    3.490000   12.467803    ( 0.0000,  0.0000,  0.0000)
  11 Li     0.000000    5.235000   12.467803    ( 0.0000,  0.0000,  0.0000)
  12 Li    -0.009402    3.504848   14.848308    ( 0.0000,  0.0000,  0.0000)
  13 Li     2.476097    5.204177   14.977985    ( 0.0000,  0.0000,  0.0000)
  14 Li     2.403136    3.341425   17.376034    ( 0.0000,  0.0000,  0.0000)
  15 Li     0.037360    5.163632   17.291531    ( 0.0000,  0.0000,  0.0000)
  16 Li     0.000000    6.980000   10.000000    ( 0.0000,  0.0000,  0.0000)
  17 Li     2.467803    8.725000   10.000000    ( 0.0000,  0.0000,  0.0000)
  18 Li     2.467803    6.980000   12.467803    ( 0.0000,  0.0000,  0.0000)
  19 Li     0.000000    8.725000   12.467803    ( 0.0000,  0.0000,  0.0000)
  20 Li    -0.008295    7.010821   14.977992    ( 0.0000,  0.0000,  0.0000)
  21 Li     2.477204    8.710159   14.848308    ( 0.0000,  0.0000,  0.0000)
  22 Li     2.430438    7.051367   17.291524    ( 0.0000,  0.0000,  0.0000)
  23 Li     0.064668    8.873577   17.376035    ( 0.0000,  0.0000,  0.0000)
  24 Li     4.935605    0.000000   10.000000    ( 0.0000,  0.0000,  0.0000)
  25 Li     7.403408    1.745000   10.000000    ( 0.0000,  0.0000,  0.0000)
  26 Li     7.403408    0.000000   12.467803    ( 0.0000,  0.0000,  0.0000)
  27 Li     4.935605    1.745000   12.467803    ( 0.0000,  0.0000,  0.0000)
  28 Li     4.924371    0.006241   14.879208    ( 0.0000,  0.0000,  0.0000)
  29 Li     7.405769    1.738321   14.895693    ( 0.0000,  0.0000,  0.0000)
  30 Li     7.375837    0.004485   17.241935    ( 0.0000,  0.0000,  0.0000)
  31 Li     4.839357    1.672232   17.346197    ( 0.0000,  0.0000,  0.0000)
  32 Li     4.935605    3.490000   10.000000    ( 0.0000,  0.0000,  0.0000)
  33 Li     7.403408    5.235000   10.000000    ( 0.0000,  0.0000,  0.0000)
  34 Li     7.403408    3.490000   12.467803    ( 0.0000,  0.0000,  0.0000)
  35 Li     4.935605    5.235000   12.467803    ( 0.0000,  0.0000,  0.0000)
  36 Li     4.946527    3.452318   14.930112    ( 0.0000,  0.0000,  0.0000)
  37 Li     7.399753    5.232944   14.896355    ( 0.0000,  0.0000,  0.0000)
  38 Li     7.364549    3.463867   17.235496    ( 0.0000,  0.0000,  0.0000)
  39 Li     4.860175    5.213276   17.252826    ( 0.0000,  0.0000,  0.0000)
  40 Li     4.935605    6.980000   10.000000    ( 0.0000,  0.0000,  0.0000)
  41 Li     7.403408    8.725000   10.000000    ( 0.0000,  0.0000,  0.0000)
  42 Li     7.403408    6.980000   12.467803    ( 0.0000,  0.0000,  0.0000)
  43 Li     4.935605    8.725000   12.467803    ( 0.0000,  0.0000,  0.0000)
  44 Li     4.940082    7.010994   14.935235    ( 0.0000,  0.0000,  0.0000)
  45 Li     7.406074    8.733656   14.892719    ( 0.0000,  0.0000,  0.0000)
  46 Li     7.364389    7.001634   17.236799    ( 0.0000,  0.0000,  0.0000)
  47 Li     4.833023    8.820187   17.335043    ( 0.0000,  0.0000,  0.0000)
  48 Li     9.871211    0.000000   10.000000    ( 0.0000,  0.0000,  0.0000)
  49 Li    12.339013    1.745000   10.000000    ( 0.0000,  0.0000,  0.0000)
  50 Li    12.339013    0.000000   12.467803    ( 0.0000,  0.0000,  0.0000)
  51 Li     9.871211    1.745000   12.467803    ( 0.0000,  0.0000,  0.0000)
  52 Li     9.868848    0.006682   14.895688    ( 0.0000,  0.0000,  0.0000)
  53 Li    12.350251    1.738761   14.879213    ( 0.0000,  0.0000,  0.0000)
  54 Li    12.435262    0.072768   17.346199    ( 0.0000,  0.0000,  0.0000)
  55 Li     9.898779    1.740515   17.241936    ( 0.0000,  0.0000,  0.0000)
  56 Li     9.871211    3.490000   10.000000    ( 0.0000,  0.0000,  0.0000)
  57 Li    12.339013    5.235000   10.000000    ( 0.0000,  0.0000,  0.0000)
  58 Li    12.339013    3.490000   12.467803    ( 0.0000,  0.0000,  0.0000)
  59 Li     9.871211    5.235000   12.467803    ( 0.0000,  0.0000,  0.0000)
  60 Li     9.868543    3.481343   14.892715    ( 0.0000,  0.0000,  0.0000)
  61 Li    12.334536    5.204003   14.935239    ( 0.0000,  0.0000,  0.0000)
  62 Li    12.441588    3.394812   17.335049    ( 0.0000,  0.0000,  0.0000)
  63 Li     9.910236    5.213368   17.236803    ( 0.0000,  0.0000,  0.0000)
  64 Li     9.871211    6.980000   10.000000    ( 0.0000,  0.0000,  0.0000)
  65 Li    12.339013    8.725000   10.000000    ( 0.0000,  0.0000,  0.0000)
  66 Li    12.339013    6.980000   12.467803    ( 0.0000,  0.0000,  0.0000)
  67 Li     9.871211    8.725000   12.467803    ( 0.0000,  0.0000,  0.0000)
  68 Li     9.874868    6.982054   14.896351    ( 0.0000,  0.0000,  0.0000)
  69 Li    12.328095    8.762683   14.930117    ( 0.0000,  0.0000,  0.0000)
  70 Li    12.414441    7.001726   17.252825    ( 0.0000,  0.0000,  0.0000)
  71 Li     9.910074    8.751132   17.235494    ( 0.0000,  0.0000,  0.0000)
  72 Li     1.233902    0.872502   19.351393    ( 0.0000,  0.0000,  0.0000)

Unit cell:
           periodic     x           y           z      points  spacing
  1. axis:    yes   14.806816    0.000000    0.000000    49     0.3022
  2. axis:    yes    0.000000   10.470000    0.000000    35     0.2991
  3. axis:    no     0.000000    0.000000   27.403408    90     0.3045

  Lengths:  14.806816  10.470000  27.403408
  Angles:   90.000000  90.000000  90.000000

Effective grid spacing dv^(1/3) = 0.3019

     iter     time        total  log10-change:
                         energy   eigst   dens
iter:   1 04:11:05  -128.542401   -3.48
iter:   2 04:11:08  -128.533300   -3.77  -2.01
iter:   3 04:11:11  -128.531388c  -4.84  -2.20
iter:   4 04:11:14  -128.531783c  -4.54  -2.61
iter:   5 04:11:17  -128.531270c  -5.35c -2.86
iter:   6 04:11:20  -128.531122c  -5.62c -3.00
iter:   7 04:11:23  -128.531278c  -5.97c -3.32
iter:   8 04:11:26  -128.531261c  -6.60c -3.43
iter:   9 04:11:29  -128.531151c  -6.59c -3.60
iter:  10 04:11:32  -128.531184c  -7.24c -3.75
iter:  11 04:11:35  -128.531206c  -6.92c -3.89
iter:  12 04:11:38  -128.531166c  -7.21c -3.96
iter:  13 04:11:41  -128.531178c  -7.49c -4.08c

Converged after 13 iterations.

Dipole moment: (-5.453433, -3.821728, 0.364901) |e|*Ang

Energy contributions relative to reference atoms: (reference = -14803.510878)

Kinetic:       +114.586404
Potential:     -100.235503
External:        +0.000000
XC:            -141.701912
Entropy (-ST):   -1.394300
Local:           -0.483017
SIC:             +0.000000
--------------------------
Free energy:   -129.228328
Extrapolated:  -128.531178

Showing all kpts
 Kpt  Band  Eigenvalues  Occupancy
  0    34     -1.93739    1.51871
  0    35     -1.89133    1.33128
  0    36     -1.81822    0.97874
  0    37     -1.75262    0.66427

  1    34     -1.93488    1.50949
  1    35     -1.89138    1.33152
  1    36     -1.81858    0.98052
  1    37     -1.75287    0.66539


Fermi level: -1.82247

Gap: 0.073 eV
Transition (v -> c):
  (s=0, k=0, n=35, [0.25, -0.25, 0.00]) -> (s=0, k=1, n=36, [0.25, 0.25, 0.00])
Direct/indirect transitions are different
Direct gap: 0.073 eV
Transition at: (s=0, k=1, n=35, [0.25, 0.25, 0.00])

Forces in eV/Ang:
  0 Li    0.00110    0.00082    0.10137
  1 Li   -0.00110   -0.00082    0.10137
  2 Li    0.00556   -0.01038   -0.08005
  3 Li   -0.00556    0.01039   -0.08005
  4 Li   -0.01157   -0.01148   -0.00535
  5 Li    0.01157    0.01148   -0.00535
  6 Li    0.08567   -0.07794   -0.14689
  7 Li   -0.08567    0.07794   -0.14689
  8 Li    0.00173   -0.00392    0.10033
  9 Li    0.00014   -0.00320    0.08599
 10 Li    0.00383    0.04449   -0.11124
 11 Li    0.00519    0.02746   -0.05206
 12 Li   -0.00177    0.01319   -0.02028
 13 Li   -0.00804    0.00095   -0.02596
 14 Li    0.00194   -0.00702   -0.01865
 15 Li    0.01465    0.00636   -0.01301
 16 Li   -0.00015    0.00320    0.08599
 17 Li   -0.00173    0.00391    0.10033
 18 Li   -0.00520   -0.02746   -0.05205
 19 Li   -0.00383   -0.04450   -0.11124
 20 Li    0.00804   -0.00095   -0.02597
 21 Li    0.00177   -0.01319   -0.02028
 22 Li   -0.01465   -0.00636   -0.01301
 23 Li   -0.00195    0.00702   -0.01864
 24 Li    0.00119    0.00072    0.08808
 25 Li    0.00419    0.00041    0.08706
 26 Li   -0.00210    0.00136   -0.06821
 27 Li    0.00501    0.00804   -0.08278
 28 Li    0.00156    0.00335    0.01881
 29 Li    0.00078   -0.00622   -0.01434
 30 Li    0.02154   -0.00061   -0.02295
 31 Li   -0.00284    0.02903    0.00390
 32 Li    0.00221   -0.00219    0.08867
 33 Li    0.00474    0.00108    0.09154
 34 Li    0.00069   -0.00331   -0.06132
 35 Li   -0.00165   -0.00338   -0.01568
 36 Li   -0.00473   -0.00528   -0.01202
 37 Li    0.00174    0.00059   -0.00607
 38 Li    0.00384    0.00642   -0.01079
 39 Li   -0.00441    0.00363   -0.00018
 40 Li    0.00541    0.00130    0.09222
 41 Li    0.00390   -0.00101    0.08618
 42 Li    0.00041    0.00209   -0.05803
 43 Li    0.00585   -0.00606   -0.07425
 44 Li   -0.00664   -0.00106    0.00423
 45 Li    0.00359    0.00492   -0.01099
 46 Li    0.00308   -0.00581   -0.01129
 47 Li    0.02299   -0.03070   -0.02663
 48 Li   -0.00419   -0.00041    0.08706
 49 Li   -0.00119   -0.00072    0.08808
 50 Li   -0.00501   -0.00803   -0.08278
 51 Li    0.00210   -0.00136   -0.06821
 52 Li   -0.00078    0.00622   -0.01433
 53 Li   -0.00157   -0.00335    0.01881
 54 Li    0.00283   -0.02903    0.00391
 55 Li   -0.02153    0.00061   -0.02295
 56 Li   -0.00390    0.00101    0.08618
 57 Li   -0.00541   -0.00130    0.09222
 58 Li   -0.00585    0.00606   -0.07424
 59 Li   -0.00041   -0.00209   -0.05803
 60 Li   -0.00359   -0.00492   -0.01098
 61 Li    0.00664    0.00106    0.00423
 62 Li   -0.02298    0.03070   -0.02663
 63 Li   -0.00308    0.00580   -0.01130
 64 Li   -0.00474   -0.00108    0.09154
 65 Li   -0.00221    0.00219    0.08867
 66 Li    0.00166    0.00338   -0.01568
 67 Li   -0.00069    0.00331   -0.06132
 68 Li   -0.00174   -0.00059   -0.00606
 69 Li    0.00473    0.00528   -0.01202
 70 Li    0.00441   -0.00363   -0.00018
 71 Li   -0.00384   -0.00642   -0.01079
 72 Li    0.00000    0.00000    0.20291

System changes: positions 

Initializing position-dependent things.

Density initialized from wave functions
       .-----------------------------------.  
      /|                                   |  
     / |                                   |  
    /  |                                   |  
   /   |                                   |  
  /    |                                   |  
 *     |                                   |  
 |     |                                   |  
 |     |                                   |  
 |     |                                   |  
 |     |                                   |  
 |     |                                   |  
 |     |                                   |  
 |    Li          Li                       |  
 |     |                      Li           |  
 |   Li|   Li          Li          Li      |  
 |  Li Li       Li          Li      Li     |  
 |     | Li Li   Li  Li Li       Li      Li|  
 |Li   |  Li  Li          Li LiLi Li       |  
 |     Li      Li  Li Li                   |  
 |    Li          Li       Li Li       Li  |  
 |     |Li Li       Li Li       Li Li      |  
 |  Li |     Li Li       Li Li             |  
 |     | Li Li       Li Li       Li Li     |  
 |Li Li|      Li Li       Li Li            |  
 |     Li Li       Li Li       Li Li       |  
 | Li  |       Li          Li              |  
 |     |Li          Li          Li         |  
 Li    |     Li          Li                |  
 |     |                                   |  
 |     |                                   |  
 |     |                                   |  
 |     |                                   |  
 |     |                                   |  
 |     .-----------------------------------.  
 |    /                                   /   
 |   /                                   /    
 |  /                                   /     
 | /                                   /      
 |/                                   /       
 *-----------------------------------*        

Atomic positions and initial magnetic moments

Positions:
   0 Li     0.000000    0.000000   10.000000    ( 0.0000,  0.0000,  0.0000)
   1 Li     2.467803    1.745000   10.000000    ( 0.0000,  0.0000,  0.0000)
   2 Li     2.467803    0.000000   12.467803    ( 0.0000,  0.0000,  0.0000)
   3 Li     0.000000    1.745000   12.467803    ( 0.0000,  0.0000,  0.0000)
   4 Li     0.011435   -0.046803   14.794990    ( 0.0000,  0.0000,  0.0000)
   5 Li     2.456368    1.791800   14.794991    ( 0.0000,  0.0000,  0.0000)
   6 Li     2.420779    0.060579   17.046534    ( 0.0000,  0.0000,  0.0000)
   7 Li     0.047024    1.684421   17.046531    ( 0.0000,  0.0000,  0.0000)
   8 Li     0.000000    3.490000   10.000000    ( 0.0000,  0.0000,  0.0000)
   9 Li     2.467803    5.235000   10.000000    ( 0.0000,  0.0000,  0.0000)
  10 Li     2.467803    3.490000   12.467803    ( 0.0000,  0.0000,  0.0000)
  11 Li     0.000000    5.235000   12.467803    ( 0.0000,  0.0000,  0.0000)
  12 Li    -0.009506    3.505328   14.847480    ( 0.0000,  0.0000,  0.0000)
  13 Li     2.475658    5.204279   14.976557    ( 0.0000,  0.0000,  0.0000)
  14 Li     2.403357    3.341112   17.375062    ( 0.0000,  0.0000,  0.0000)
  15 Li     0.038183    5.163970   17.290885    ( 0.0000,  0.0000,  0.0000)
  16 Li     0.000000    6.980000   10.000000    ( 0.0000,  0.0000,  0.0000)
  17 Li     2.467803    8.725000   10.000000    ( 0.0000,  0.0000,  0.0000)
  18 Li     2.467803    6.980000   12.467803    ( 0.0000,  0.0000,  0.0000)
  19 Li     0.000000    8.725000   12.467803    ( 0.0000,  0.0000,  0.0000)
  20 Li    -0.007856    7.010719   14.976564    ( 0.0000,  0.0000,  0.0000)
  21 Li     2.477308    8.709679   14.847479    ( 0.0000,  0.0000,  0.0000)
  22 Li     2.429614    7.051028   17.290878    ( 0.0000,  0.0000,  0.0000)
  23 Li     0.064446    8.873890   17.375063    ( 0.0000,  0.0000,  0.0000)
  24 Li     4.935605    0.000000   10.000000    ( 0.0000,  0.0000,  0.0000)
  25 Li     7.403408    1.745000   10.000000    ( 0.0000,  0.0000,  0.0000)
  26 Li     7.403408    0.000000   12.467803    ( 0.0000,  0.0000,  0.0000)
  27 Li     4.935605    1.745000   12.467803    ( 0.0000,  0.0000,  0.0000)
  28 Li     4.924402    0.006408   14.880302    ( 0.0000,  0.0000,  0.0000)
  29 Li     7.405815    1.737959   14.894932    ( 0.0000,  0.0000,  0.0000)
  30 Li     7.377084    0.004450   17.240704    ( 0.0000,  0.0000,  0.0000)
  31 Li     4.839044    1.673832   17.346399    ( 0.0000,  0.0000,  0.0000)
  32 Li     4.935605    3.490000   10.000000    ( 0.0000,  0.0000,  0.0000)
  33 Li     7.403408    5.235000   10.000000    ( 0.0000,  0.0000,  0.0000)
  34 Li     7.403408    3.490000   12.467803    ( 0.0000,  0.0000,  0.0000)
  35 Li     4.935605    5.235000   12.467803    ( 0.0000,  0.0000,  0.0000)
  36 Li     4.946263    3.452005   14.929427    ( 0.0000,  0.0000,  0.0000)
  37 Li     7.399880    5.232973   14.896046    ( 0.0000,  0.0000,  0.0000)
  38 Li     7.364771    3.464199   17.234943    ( 0.0000,  0.0000,  0.0000)
  39 Li     4.859951    5.213500   17.252829    ( 0.0000,  0.0000,  0.0000)
  40 Li     4.935605    6.980000   10.000000    ( 0.0000,  0.0000,  0.0000)
  41 Li     7.403408    8.725000   10.000000    ( 0.0000,  0.0000,  0.0000)
  42 Li     7.403408    6.980000   12.467803    ( 0.0000,  0.0000,  0.0000)
  43 Li     4.935605    8.725000   12.467803    ( 0.0000,  0.0000,  0.0000)
  44 Li     4.939712    7.010940   14.935508    ( 0.0000,  0.0000,  0.0000)
  45 Li     7.406272    8.733951   14.892141    ( 0.0000,  0.0000,  0.0000)
  46 Li     7.364547    7.001332   17.236215    ( 0.0000,  0.0000,  0.0000)
  47 Li     4.834116    8.818616   17.333582    ( 0.0000,  0.0000,  0.0000)
  48 Li     9.871211    0.000000   10.000000    ( 0.0000,  0.0000,  0.0000)
  49 Li    12.339013    1.745000   10.000000    ( 0.0000,  0.0000,  0.0000)
  50 Li    12.339013    0.000000   12.467803    ( 0.0000,  0.0000,  0.0000)
  51 Li     9.871211    1.745000   12.467803    ( 0.0000,  0.0000,  0.0000)
  52 Li     9.868803    0.007044   14.894928    ( 0.0000,  0.0000,  0.0000)
  53 Li    12.350220    1.738593   14.880308    ( 0.0000,  0.0000,  0.0000)
  54 Li    12.435575    0.071169   17.346401    ( 0.0000,  0.0000,  0.0000)
  55 Li     9.897532    1.740549   17.240706    ( 0.0000,  0.0000,  0.0000)
  56 Li     9.871211    3.490000   10.000000    ( 0.0000,  0.0000,  0.0000)
  57 Li    12.339013    5.235000   10.000000    ( 0.0000,  0.0000,  0.0000)
  58 Li    12.339013    3.490000   12.467803    ( 0.0000,  0.0000,  0.0000)
  59 Li     9.871211    5.235000   12.467803    ( 0.0000,  0.0000,  0.0000)
  60 Li     9.868345    3.481049   14.892138    ( 0.0000,  0.0000,  0.0000)
  61 Li    12.334906    5.204057   14.935513    ( 0.0000,  0.0000,  0.0000)
  62 Li    12.440495    3.396383   17.333588    ( 0.0000,  0.0000,  0.0000)
  63 Li     9.910077    5.213670   17.236219    ( 0.0000,  0.0000,  0.0000)
  64 Li     9.871211    6.980000   10.000000    ( 0.0000,  0.0000,  0.0000)
  65 Li    12.339013    8.725000   10.000000    ( 0.0000,  0.0000,  0.0000)
  66 Li    12.339013    6.980000   12.467803    ( 0.0000,  0.0000,  0.0000)
  67 Li     9.871211    8.725000   12.467803    ( 0.0000,  0.0000,  0.0000)
  68 Li     9.874742    6.982025   14.896043    ( 0.0000,  0.0000,  0.0000)
  69 Li    12.328359    8.762996   14.929431    ( 0.0000,  0.0000,  0.0000)
  70 Li    12.414665    7.001502   17.252828    ( 0.0000,  0.0000,  0.0000)
  71 Li     9.909852    8.750800   17.234941    ( 0.0000,  0.0000,  0.0000)
  72 Li     1.233902    0.872502   19.364412    ( 0.0000,  0.0000,  0.0000)

Unit cell:
           periodic     x           y           z      points  spacing
  1. axis:    yes   14.806816    0.000000    0.000000    49     0.3022
  2. axis:    yes    0.000000   10.470000    0.000000    35     0.2991
  3. axis:    no     0.000000    0.000000   27.403408    90     0.3045

  Lengths:  14.806816  10.470000  27.403408
  Angles:   90.000000  90.000000  90.000000

Effective grid spacing dv^(1/3) = 0.3019

     iter     time        total  log10-change:
                         energy   eigst   dens
iter:   1 04:14:38  -128.553468   -3.36
iter:   2 04:14:41  -128.541441   -3.65  -1.95
iter:   3 04:14:44  -128.538779c  -4.73  -2.14
iter:   4 04:14:47  -128.539131c  -4.43  -2.55
iter:   5 04:14:50  -128.538530c  -5.23  -2.80
iter:   6 04:14:53  -128.538353c  -5.51c -2.94
iter:   7 04:14:56  -128.538531c  -5.84c -3.25
iter:   8 04:14:59  -128.538505c  -6.50c -3.35
iter:   9 04:15:02  -128.538378c  -6.50c -3.53
iter:  10 04:15:05  -128.538417c  -7.19c -3.68
iter:  11 04:15:08  -128.538443c  -6.87c -3.82
iter:  12 04:15:11  -128.538397c  -7.23c -3.89
iter:  13 04:15:14  -128.538410c  -7.56c -4.01c

Converged after 13 iterations.

Dipole moment: (-5.354258, -3.727119, 0.371385) |e|*Ang

Energy contributions relative to reference atoms: (reference = -14803.510878)

Kinetic:       +114.524804
Potential:     -100.195435
External:        +0.000000
XC:            -141.687732
Entropy (-ST):   -1.394267
Local:           -0.482914
SIC:             +0.000000
--------------------------
Free energy:   -129.235543
Extrapolated:  -128.538410

Showing all kpts
 Kpt  Band  Eigenvalues  Occupancy
  0    34     -1.93623    1.51882
  0    35     -1.89008    1.33103
  0    36     -1.81687    0.97792
  0    37     -1.75145    0.66438

  1    34     -1.93367    1.50943
  1    35     -1.89002    1.33075
  1    36     -1.81722    0.97967
  1    37     -1.75176    0.66572


Fermi level: -1.82128

Gap: 0.073 eV
Transition (v -> c):
  (s=0, k=1, n=35, [0.25, 0.25, 0.00]) -> (s=0, k=1, n=36, [0.25, 0.25, 0.00])
No difference between direct/indirect transitions

Forces in eV/Ang:
  0 Li    0.00113    0.00077    0.10139
  1 Li   -0.00113   -0.00077    0.10139
  2 Li    0.00560   -0.01034   -0.07939
  3 Li   -0.00560    0.01034   -0.07939
  4 Li   -0.01014   -0.01232   -0.00847
  5 Li    0.01014    0.01233   -0.00847
  6 Li    0.06550   -0.06382   -0.11877
  7 Li   -0.06550    0.06382   -0.11877
  8 Li    0.00176   -0.00393    0.10050
  9 Li    0.00014   -0.00326    0.08594
 10 Li    0.00386    0.04465   -0.11204
[...]
 11 Li    0.00524    0.02820   -0.05416
 12 Li   -0.00142    0.02054   -0.02844
 13 Li   -0.00701   -0.00098   -0.02265
 14 Li   -0.00221   -0.00847   -0.01832
 15 Li    0.01182    0.00589   -0.01412
 16 Li   -0.00012    0.00332    0.08570
 17 Li   -0.00186    0.00384    0.10048
 18 Li   -0.00524   -0.02819   -0.05416
 19 Li   -0.00387   -0.04478   -0.11303
 20 Li    0.00701    0.00098   -0.02266
 21 Li    0.00142   -0.02055   -0.02844
 22 Li   -0.01182   -0.00589   -0.01412
 23 Li    0.00221    0.00847   -0.01832
 24 Li    0.00116    0.00075    0.08779
 25 Li    0.00419    0.00043    0.08694
 26 Li   -0.00207    0.00131   -0.06925
 27 Li    0.00524    0.00747   -0.08284
 28 Li    0.00335    0.00352    0.01408
 29 Li    0.00057   -0.00451   -0.01368
 30 Li    0.01617   -0.00045   -0.02123
 31 Li    0.00321    0.02497    0.00384
 32 Li    0.00202   -0.00214    0.08877
 33 Li    0.00487    0.00114    0.09157
 34 Li    0.00047   -0.00314   -0.06174
 35 Li   -0.00180   -0.00301   -0.01556
 36 Li   -0.00380   -0.00375   -0.00956
 37 Li    0.00050    0.00069   -0.00647
 38 Li    0.00279    0.00657   -0.01102
 39 Li   -0.00457    0.00219   -0.00052
 40 Li    0.00542    0.00131    0.09229
 41 Li    0.00400   -0.00117    0.08611
 42 Li    0.00056    0.00195   -0.05851
 43 Li    0.00605   -0.00572   -0.07316
 44 Li   -0.00555   -0.00115    0.00206
 45 Li    0.00324    0.00322   -0.01069
 46 Li    0.00333   -0.00596   -0.01130
 47 Li    0.02609   -0.03107   -0.02342
 48 Li   -0.00419   -0.00043    0.08694
 49 Li   -0.00116   -0.00075    0.08779
 50 Li   -0.00524   -0.00747   -0.08284
 51 Li    0.00207   -0.00131   -0.06926
 52 Li   -0.00057    0.00450   -0.01368
 53 Li   -0.00336   -0.00353    0.01407
 54 Li   -0.00321   -0.02497    0.00384
 55 Li   -0.01617    0.00045   -0.02123
 56 Li   -0.00400    0.00117    0.08611
 57 Li   -0.00542   -0.00131    0.09229
 58 Li   -0.00605    0.00572   -0.07316
 59 Li   -0.00056   -0.00195   -0.05851
 60 Li   -0.00323   -0.00322   -0.01068
 61 Li    0.00555    0.00115    0.00205
 62 Li   -0.02608    0.03107   -0.02342
 63 Li   -0.00333    0.00596   -0.01130
 64 Li   -0.00487   -0.00114    0.09158
 65 Li   -0.00202    0.00214    0.08877
 66 Li    0.00181    0.00301   -0.01556
 67 Li   -0.00047    0.00314   -0.06174
 68 Li   -0.00050   -0.00069   -0.00646
 69 Li    0.00380    0.00375   -0.00956
 70 Li    0.00458   -0.00219   -0.00052
 71 Li   -0.00280   -0.00656   -0.01102
 72 Li    0.00000    0.00000    0.11602

System changes: positions 

Initializing position-dependent things.

Density initialized from wave functions
       .-----------------------------------.  
      /|                                   |  
     / |                                   |  
    /  |                                   |  
   /   |                                   |  
  /    |                                   |  
 *     |                                   |  
 |     |                                   |  
 |     |                                   |  
 |     |                                   |  
 |     |                                   |  
 |     |                                   |  
 |     |                                   |  
 |    Li          Li                       |  
 |     |                      Li           |  
 |   Li|   Li          Li          Li      |  
 |  Li Li       Li          Li      Li     |  
 |     | Li Li   Li  Li Li       Li      Li|  
 |Li   |  Li  Li          Li LiLi Li       |  
 |     Li          Li Li                   |  
 |    Li       Li Li       Li Li       Li  |  
 |     |Li Li       Li Li       Li Li      |  
 |  Li |     Li Li       Li Li             |  
 |     | Li Li       Li Li       Li Li     |  
 |Li Li|      Li Li       Li Li            |  
 |     Li Li       Li Li       Li Li       |  
 | Li  |       Li          Li              |  
 |     |Li          Li          Li         |  
 Li    |     Li          Li                |  
 |     |                                   |  
 |     |                                   |  
 |     |                                   |  
 |     |                                   |  
 |     |                                   |  
 |     .-----------------------------------.  
 |    /                                   /   
 |   /                                   /    
 |  /                                   /     
 | /                                   /      
 |/                                   /       
 *-----------------------------------*        

Atomic positions and initial magnetic moments

Positions:
   0 Li     0.000000    0.000000   10.000000    ( 0.0000,  0.0000,  0.0000)
   1 Li     2.467803    1.745000   10.000000    ( 0.0000,  0.0000,  0.0000)
   2 Li     2.467803    0.000000   12.467803    ( 0.0000,  0.0000,  0.0000)
   3 Li     0.000000    1.745000   12.467803    ( 0.0000,  0.0000,  0.0000)
   4 Li     0.009771   -0.048410   14.794301    ( 0.0000,  0.0000,  0.0000)
   5 Li     2.458031    1.793407   14.794303    ( 0.0000,  0.0000,  0.0000)
   6 Li     2.433532    0.049129   17.024926    ( 0.0000,  0.0000,  0.0000)
   7 Li     0.034271    1.695871   17.024924    ( 0.0000,  0.0000,  0.0000)
   8 Li     0.000000    3.490000   10.000000    ( 0.0000,  0.0000,  0.0000)
   9 Li     2.467803    5.235000   10.000000    ( 0.0000,  0.0000,  0.0000)
  10 Li     2.467803    3.490000   12.467803    ( 0.0000,  0.0000,  0.0000)
  11 Li     0.000000    5.235000   12.467803    ( 0.0000,  0.0000,  0.0000)
  12 Li    -0.009766    3.507131   14.844670    ( 0.0000,  0.0000,  0.0000)
  13 Li     2.474510    5.204432   14.972834    ( 0.0000,  0.0000,  0.0000)
  14 Li     2.403686    3.340142   17.372408    ( 0.0000,  0.0000,  0.0000)
  15 Li     0.040281    5.164873   17.289039    ( 0.0000,  0.0000,  0.0000)
  16 Li     0.000000    6.980000   10.000000    ( 0.0000,  0.0000,  0.0000)
  17 Li     2.467803    8.725000   10.000000    ( 0.0000,  0.0000,  0.0000)
  18 Li     2.467803    6.980000   12.467803    ( 0.0000,  0.0000,  0.0000)
  19 Li     0.000000    8.725000   12.467803    ( 0.0000,  0.0000,  0.0000)
  20 Li    -0.006708    7.010566   14.972840    ( 0.0000,  0.0000,  0.0000)
  21 Li     2.477569    8.707875   14.844670    ( 0.0000,  0.0000,  0.0000)
  22 Li     2.427516    7.050125   17.289032    ( 0.0000,  0.0000,  0.0000)
  23 Li     0.064117    8.874861   17.372409    ( 0.0000,  0.0000,  0.0000)
  24 Li     4.935605    0.000000   10.000000    ( 0.0000,  0.0000,  0.0000)
  25 Li     7.403408    1.745000   10.000000    ( 0.0000,  0.0000,  0.0000)
  26 Li     7.403408    0.000000   12.467803    ( 0.0000,  0.0000,  0.0000)
  27 Li     4.935605    1.745000   12.467803    ( 0.0000,  0.0000,  0.0000)
  28 Li     4.924602    0.006882   14.883019    ( 0.0000,  0.0000,  0.0000)
  29 Li     7.405931    1.737065   14.892883    ( 0.0000,  0.0000,  0.0000)
  30 Li     7.380186    0.004364   17.237423    ( 0.0000,  0.0000,  0.0000)
  31 Li     4.838576    1.677989   17.346957    ( 0.0000,  0.0000,  0.0000)
  32 Li     4.935605    3.490000   10.000000    ( 0.0000,  0.0000,  0.0000)
  33 Li     7.403408    5.235000   10.000000    ( 0.0000,  0.0000,  0.0000)
  34 Li     7.403408    3.490000   12.467803    ( 0.0000,  0.0000,  0.0000)
  35 Li     4.935605    5.235000   12.467803    ( 0.0000,  0.0000,  0.0000)
  36 Li     4.945587    3.451242   14.927697    ( 0.0000,  0.0000,  0.0000)
  37 Li     7.400145    5.233059   14.895177    ( 0.0000,  0.0000,  0.0000)
  38 Li     7.365321    3.465119   17.233407    ( 0.0000,  0.0000,  0.0000)
  39 Li     4.859324    5.214024   17.252811    ( 0.0000,  0.0000,  0.0000)
  40 Li     4.935605    6.980000   10.000000    ( 0.0000,  0.0000,  0.0000)
  41 Li     7.403408    8.725000   10.000000    ( 0.0000,  0.0000,  0.0000)
  42 Li     7.403408    6.980000   12.467803    ( 0.0000,  0.0000,  0.0000)
  43 Li     4.935605    8.725000   12.467803    ( 0.0000,  0.0000,  0.0000)
  44 Li     4.938762    7.010789   14.936124    ( 0.0000,  0.0000,  0.0000)
  45 Li     7.406793    8.734658   14.890573    ( 0.0000,  0.0000,  0.0000)
  46 Li     7.364995    7.000496   17.234605    ( 0.0000,  0.0000,  0.0000)
  47 Li     4.837339    8.814259   17.329765    ( 0.0000,  0.0000,  0.0000)
  48 Li     9.871211    0.000000   10.000000    ( 0.0000,  0.0000,  0.0000)
  49 Li    12.339013    1.745000   10.000000    ( 0.0000,  0.0000,  0.0000)
  50 Li    12.339013    0.000000   12.467803    ( 0.0000,  0.0000,  0.0000)
  51 Li     9.871211    1.745000   12.467803    ( 0.0000,  0.0000,  0.0000)
  52 Li     9.868687    0.007937   14.892880    ( 0.0000,  0.0000,  0.0000)
  53 Li    12.350019    1.738120   14.883024    ( 0.0000,  0.0000,  0.0000)
  54 Li    12.436041    0.067011   17.346959    ( 0.0000,  0.0000,  0.0000)
  55 Li     9.894431    1.740635   17.237424    ( 0.0000,  0.0000,  0.0000)
  56 Li     9.871211    3.490000   10.000000    ( 0.0000,  0.0000,  0.0000)
  57 Li    12.339013    5.235000   10.000000    ( 0.0000,  0.0000,  0.0000)
  58 Li    12.339013    3.490000   12.467803    ( 0.0000,  0.0000,  0.0000)
  59 Li     9.871211    5.235000   12.467803    ( 0.0000,  0.0000,  0.0000)
  60 Li     9.867825    3.480342   14.890571    ( 0.0000,  0.0000,  0.0000)
  61 Li    12.335856    5.204209   14.936128    ( 0.0000,  0.0000,  0.0000)
  62 Li    12.437273    3.400740   17.329771    ( 0.0000,  0.0000,  0.0000)
  63 Li     9.909629    5.214506   17.234608    ( 0.0000,  0.0000,  0.0000)
  64 Li     9.871211    6.980000   10.000000    ( 0.0000,  0.0000,  0.0000)
  65 Li    12.339013    8.725000   10.000000    ( 0.0000,  0.0000,  0.0000)
  66 Li    12.339013    6.980000   12.467803    ( 0.0000,  0.0000,  0.0000)
  67 Li     9.871211    8.725000   12.467803    ( 0.0000,  0.0000,  0.0000)
  68 Li     9.874476    6.981940   14.895175    ( 0.0000,  0.0000,  0.0000)
  69 Li    12.329034    8.763759   14.927700    ( 0.0000,  0.0000,  0.0000)
  70 Li    12.415293    7.000978   17.252812    ( 0.0000,  0.0000,  0.0000)
  71 Li     9.909302    8.749880   17.233404    ( 0.0000,  0.0000,  0.0000)
  72 Li     1.233902    0.872502   19.394415    ( 0.0000,  0.0000,  0.0000)

Unit cell:
           periodic     x           y           z      points  spacing
  1. axis:    yes   14.806816    0.000000    0.000000    49     0.3022
  2. axis:    yes    0.000000   10.470000    0.000000    35     0.2991
  3. axis:    no     0.000000    0.000000   27.403408    90     0.3045

  Lengths:  14.806816  10.470000  27.403408
  Angles:   90.000000  90.000000  90.000000

Effective grid spacing dv^(1/3) = 0.3019

     iter     time        total  log10-change:
                         energy   eigst   dens
iter:   1 04:22:27  -128.577260   -3.12
iter:   2 04:22:30  -128.556016   -3.41  -1.82
iter:   3 04:22:34  -128.550914c  -4.49  -2.03
iter:   4 04:22:37  -128.551138c  -4.19  -2.43
iter:   5 04:22:41  -128.550341c  -5.02  -2.71
iter:   6 04:22:44  -128.550083c  -5.33c -2.84
iter:   7 04:22:47  -128.550296c  -5.68c -3.16
iter:   8 04:22:51  -128.550293c  -6.28c -3.29
iter:   9 04:22:54  -128.550123c  -6.33c -3.43
iter:  10 04:22:57  -128.550173c  -7.04c -3.58
iter:  11 04:23:01  -128.550205c  -6.72c -3.73
iter:  12 04:23:04  -128.550142c  -7.13c -3.80
iter:  13 04:23:07  -128.550176c  -7.41c -3.92
iter:  14 04:23:10  -128.550160c  -7.62c -4.13c

Converged after 14 iterations.

Dipole moment: (-5.135893, -3.494933, 0.386681) |e|*Ang

Energy contributions relative to reference atoms: (reference = -14803.510878)

Kinetic:       +114.407191
Potential:     -100.116374
External:        +0.000000
XC:            -141.660998
Entropy (-ST):   -1.394139
Local:           -0.482910
SIC:             +0.000000
--------------------------
Free energy:   -129.247230
Extrapolated:  -128.550160

Showing all kpts
 Kpt  Band  Eigenvalues  Occupancy
  0    34     -1.93356    1.51891
  0    35     -1.88716    1.33002
  0    36     -1.81375    0.97582
  0    37     -1.74912    0.66597

  1    34     -1.93089    1.50910
  1    35     -1.88690    1.32889
  1    36     -1.81408    0.97744
  1    37     -1.74936    0.66704


Fermi level: -1.81859

Gap: 0.073 eV
Transition (v -> c):
  (s=0, k=1, n=35, [0.25, 0.25, 0.00]) -> (s=0, k=1, n=36, [0.25, 0.25, 0.00])
No difference between direct/indirect transitions

Forces in eV/Ang:
  0 Li    0.00119    0.00056    0.10129
  1 Li   -0.00119   -0.00056    0.10129
  2 Li    0.00567   -0.01024   -0.07788
  3 Li   -0.00567    0.01025   -0.07788
  4 Li   -0.00656   -0.01367   -0.01520
  5 Li    0.00656    0.01368   -0.01520
  6 Li    0.02356   -0.03322   -0.05812
  7 Li   -0.02357    0.03322   -0.05811
  8 Li    0.00189   -0.00384    0.10066
  9 Li    0.00011   -0.00339    0.08560
 10 Li    0.00387    0.04505   -0.11428
 11 Li    0.00530    0.02881   -0.05567
 12 Li   -0.00122    0.02430   -0.03252
 13 Li   -0.00628   -0.00202   -0.02061
 14 Li   -0.00434   -0.00912   -0.01803
 15 Li    0.01004    0.00543   -0.01476
 16 Li   -0.00011    0.00339    0.08560
 17 Li   -0.00189    0.00384    0.10066
 18 Li   -0.00530   -0.02881   -0.05567
 19 Li   -0.00388   -0.04505   -0.11428
 20 Li    0.00628    0.00203   -0.02062
 21 Li    0.00122   -0.02431   -0.03253
 22 Li   -0.01004   -0.00544   -0.01476
 23 Li    0.00434    0.00911   -0.01803
 24 Li    0.00115    0.00077    0.08765
 25 Li    0.00419    0.00041    0.08686
 26 Li   -0.00204    0.00129   -0.06997
 27 Li    0.00536    0.00712   -0.08295
 28 Li    0.00423    0.00356    0.01122
 29 Li    0.00050   -0.00343   -0.01314
 30 Li    0.01306   -0.00036   -0.02017
 31 Li    0.00630    0.02230    0.00385
 32 Li    0.00193   -0.00216    0.08886
 33 Li    0.00495    0.00116    0.09156
 34 Li    0.00034   -0.00307   -0.06205
 35 Li   -0.00195   -0.00276   -0.01549
 36 Li   -0.00322   -0.00276   -0.00806
 37 Li   -0.00021    0.00078   -0.00665
 38 Li    0.00226    0.00664   -0.01116
 39 Li   -0.00471    0.00127   -0.00072
 40 Li    0.00545    0.00137    0.09237
 41 Li    0.00404   -0.00123    0.08608
 42 Li    0.00060    0.00188   -0.05884
 43 Li    0.00617   -0.00552   -0.07255
 44 Li   -0.00483   -0.00134    0.00068
 45 Li    0.00304    0.00214   -0.01038
 46 Li    0.00359   -0.00609   -0.01132
 47 Li    0.02731   -0.03086   -0.02141
 48 Li   -0.00419   -0.00041    0.08686
 49 Li   -0.00115   -0.00077    0.08765
 50 Li   -0.00536   -0.00712   -0.08295
 51 Li    0.00204   -0.00129   -0.06997
 52 Li   -0.00050    0.00343   -0.01314
 53 Li   -0.00423   -0.00356    0.01122
 54 Li   -0.00630   -0.02230    0.00385
 55 Li   -0.01306    0.00036   -0.02017
 56 Li   -0.00404    0.00123    0.08608
 57 Li   -0.00544   -0.00137    0.09237
 58 Li   -0.00617    0.00552   -0.07254
 59 Li   -0.00060   -0.00188   -0.05884
 60 Li   -0.00303   -0.00214   -0.01038
 61 Li    0.00483    0.00134    0.00068
 62 Li   -0.02731    0.03086   -0.02141
 63 Li   -0.00359    0.00609   -0.01132
 64 Li   -0.00495   -0.00116    0.09156
 65 Li   -0.00192    0.00216    0.08886
 66 Li    0.00195    0.00276   -0.01549
 67 Li   -0.00034    0.00307   -0.06205
 68 Li    0.00021   -0.00078   -0.00665
 69 Li    0.00322    0.00276   -0.00806
 70 Li    0.00471   -0.00127   -0.00072
 71 Li   -0.00226   -0.00663   -0.01116
 72 Li    0.00000    0.00000    0.07044

Timing:                                      incl.     excl.
-------------------------------------------------------------------
Density initialized from wave functions:     4.099     4.099   0.1% |
 Symmetrize density:                         0.000     0.000   0.0% |
Forces:                                     23.092    23.092   0.3% |
Hamiltonian:                                 7.874     0.016   0.0% |
 Atomic:                                     3.780     0.014   0.0% |
  XC Correction:                             3.766     3.766   0.0% |
 Calculate atomic Hamiltonians:              2.936     2.936   0.0% |
 Communicate:                                0.000     0.000   0.0% |
 Initialize Hamiltonian:                     0.001     0.001   0.0% |
 Poisson:                                    0.039     0.039   0.0% |
 XC 3D grid:                                 1.103     1.103   0.0% |
LCAO initialization:                         9.222     0.004   0.0% |
 LCAO eigensolver:                           0.293     0.000   0.0% |
  Calculate projections:                     0.003     0.003   0.0% |
  DenseAtomicCorrection:                     0.033     0.033   0.0% |
  Distribute overlap matrix:                 0.000     0.000   0.0% |
  Orbital Layouts:                           0.055     0.055   0.0% |
  Potential matrix:                          0.198     0.198   0.0% |
  Sum over cells:                            0.003     0.003   0.0% |
 LCAO to grid:                               8.428     8.428   0.1% |
 Set positions (LCAO WFS):                   0.498     0.126   0.0% |
  Basic WFS set positions:                   0.001     0.001   0.0% |
  Basis functions set positions:             0.000     0.000   0.0% |
  P tci:                                     0.243     0.243   0.0% |
  ST tci:                                    0.113     0.113   0.0% |
  mktci:                                     0.014     0.014   0.0% |
PWDescriptor:                                0.006     0.006   0.0% |
Redistribute:                                0.010     0.010   0.0% |
SCF-cycle:                                 445.556     0.075   0.0% |
 Davidson:                                 244.276    50.591   0.6% |
  Apply H:                                  41.147    40.714   0.5% |
   HMM T:                                    0.433     0.433   0.0% |
  Subspace diag:                            46.865     0.029   0.0% |
   calc_h_matrix:                           42.982     2.955   0.0% |
    Apply H:                                40.027    39.576   0.5% |
     HMM T:                                  0.451     0.451   0.0% |
   diagonalize:                              0.160     0.160   0.0% |
   rotate_psi:                               3.694     3.694   0.0% |
  calc. matrices:                           96.790    14.261   0.2% |
   Apply H:                                 82.529    81.652   1.0% |
    HMM T:                                   0.877     0.877   0.0% |
  diagonalize:                               1.263     1.263   0.0% |
  rotate_psi:                                7.621     7.621   0.1% |
 Density:                                   63.904     0.001   0.0% |
  Atomic density matrices:                   0.262     0.262   0.0% |
  Mix:                                      43.366    43.366   0.5% |
  Multipole moments:                         0.058     0.058   0.0% |
  Pseudo density:                           20.217    20.216   0.3% |
   Symmetrize density:                       0.001     0.001   0.0% |
 Hamiltonian:                              136.334     0.223   0.0% |
  Atomic:                                   65.371     0.237   0.0% |
   XC Correction:                           65.134    65.134   0.8% |
  Calculate atomic Hamiltonians:            51.940    51.940   0.6% |
  Communicate:                               0.000     0.000   0.0% |
  Poisson:                                   0.145     0.145   0.0% |
  XC 3D grid:                               18.655    18.655   0.2% |
 Orthonormalize:                             0.968     0.002   0.0% |
  calc_s_matrix:                             0.089     0.089   0.0% |
  inverse-cholesky:                          0.005     0.005   0.0% |
  projections:                               0.724     0.724   0.0% |
  rotate_psi_s:                              0.148     0.148   0.0% |
Set symmetry:                                0.000     0.000   0.0% |
Other:                                    7525.250  7525.250  93.9% |-------------------------------------|
-------------------------------------------------------------------
Total:                                              8015.109 100.0%

Memory usage: 3.31 GiB
Date: Mon Nov 24 06:02:17 2025
