
  ___ ___ ___ _ _ _  
 |   |   |_  | | | | 
 | | | | | . | | | | 
 |__ |  _|___|_____|  25.7.0
 |___|_|             

User:   tew@Mathuss-MacBook-Air-357.local
Date:   Mon Nov 24 03:48:42 2025
Arch:   arm64
Pid:    82977
CWD:    /Users/tew/Documents/Project/GitHub/chem-com
Python: 3.13.5
gpaw:   /Users/tew/Documents/Project/GitHub/chem-com/.venv/lib/python3.13/site-packages/gpaw
_gpaw:  /Users/tew/Documents/Project/GitHub/chem-com/.venv/lib/python3.13/site-packages/
        _gpaw.cpython-313-darwin.so
ase:    /Users/tew/Documents/Project/GitHub/chem-com/.venv/lib/python3.13/site-packages/ase (version 3.26.0)
numpy:  /Users/tew/Documents/Project/GitHub/chem-com/.venv/lib/python3.13/site-packages/numpy (version 2.3.5)
scipy:  /Users/tew/Documents/Project/GitHub/chem-com/.venv/lib/python3.13/site-packages/scipy (version 1.16.3)
libxc:  2.x.y
units:  Angstrom and eV
cores: 1
OpenMP: False
OMP_NUM_THREADS: 1

Input parameters:
  convergence: {density: 0.0001,
                eigenstates: 5e-06}
  kpts: [2 2 1]
  mode: {ecut: 200.0,
         name: pw}
  xc: PBE

System changes: positions, numbers, cell, pbc, initial_charges, initial_magmoms 

Initialize ...

species:
  Li:
    name: Lithium
    id: 830b4218f175192f93f959cfc0aad614
    Z: 3.0
    valence: 1
    core: 2
    charge: 0.0
    file: /Users/tew/Documents/Project/GitHub/chem-com/.venv/lib/python3.13/site-packages/gpaw_data/setups/Li.PBE.gz
    compensation charges: {type: gauss,
                           rc: 0.33,
                           lmax: 2}
    cutoffs: {filter: 1.91,
              core: 2.55}
    projectors:
      #              energy  rcut
      - 2s(1.00)    -2.874   1.058
      - 2p(0.00)    -1.090   1.058
      -  s          24.337   1.058
  
    # Using partial waves for Li as LCAO basis

Reference energy: -14803.510878  # eV

Spin-paired calculation

Convergence criteria:
 Maximum [total energy] change in last 3 cyles: 0.0005 eV / valence electron
 Maximum integral of absolute [dens]ity change: 0.0001 electrons / valence electron
 Maximum integral of absolute [eigenst]ate change: 5e-06 eV^2 / valence electron
 Maximum number of scf [iter]ations: 333
 (Square brackets indicate name in SCF output, whereas a 'c' in
 the SCF output indicates the quantity has converged.)

Symmetries present (total): 1

  ( 1  0  0)
  ( 0  1  0)
  ( 0  0  1)

4 k-points: 2 x 2 x 1 Monkhorst-Pack grid
2 k-points in the irreducible part of the Brillouin zone
       k-points in crystal coordinates                weights
   0:     0.25000000   -0.25000000    0.00000000          2/4
   1:     0.25000000    0.25000000    0.00000000          2/4

Wave functions: Plane wave expansion
  Cutoff energy: 200.000 eV
  Number of coefficients (min, max): 27323, 27323
  Pulay-stress correction: 0.000000 eV/Ang^3 (de/decut=0.000000)
  Using Numpy's FFT
  ScaLapack parameters: grid=1x1, blocksize=None
  Wavefunction extrapolation:
    Improved wavefunction reuse through dual PAW basis 

Occupation numbers: Fermi-Dirac:
  width: 0.1000  # eV
 

Eigensolver
   Davidson(niter=2) 

Densities:
  Coarse grid: 49*35*90 grid
  Fine grid: 98*70*180 grid
  Total Charge: 0.000000 

Density mixing:
  Method: separate
  Backend: pulay
  Linear mixing parameter: 0.05
  old densities: 5
  Damping of long wavelength oscillations: 50 

Hamiltonian:
  XC and Coulomb potentials evaluated on a 98*70*180 grid
  Using the PBE Exchange-Correlation functional
  External potential:
    NoExternalPotential
 

XC parameters: PBE with 2 nearest neighbor stencil

Memory estimate:
  Process memory now: 2312.47 MiB
  Calculator: 164.50 MiB
    Density: 71.24 MiB
      Arrays: 30.62 MiB
      Localized functions: 28.85 MiB
      Mixer: 11.78 MiB
    Hamiltonian: 20.61 MiB
      Arrays: 20.02 MiB
      XC: 0.00 MiB
      Poisson: 0.00 MiB
      vbar: 0.59 MiB
    Wavefunctions: 72.65 MiB
      Arrays psit_nG: 40.02 MiB
      Eigensolver: 22.45 MiB
      Projections: 0.53 MiB
      Projectors: 2.92 MiB
      PW-descriptor: 6.72 MiB

Total number of cores used: 1

Number of atoms: 73
Number of atomic orbitals: 292
Number of bands in calculation: 48
Number of valence electrons: 73
Bands to converge: occupied

... initialized

Initializing position-dependent things.

Density initialized from atomic densities
Creating initial wave functions:
  48 bands from LCAO basis set

       .-----------------------------------.  
      /|                                   |  
     / |                                   |  
    /  |                                   |  
   /   |                                   |  
  /    |                                   |  
 *     |                                   |  
 |     |                                   |  
 |     |                                   |  
 |     |                                   |  
 |     |                                   |  
 |     |                                   |  
 |     |                                   |  
 |    Li          Li                       |  
 |     |                      Li           |  
 |  Li |   Li          Li          Li      |  
 |  Li Li       Li          Li      Li     |  
 |     | Li Li   Li  Li Li       Li      Li|  
 |Li   |  Li  Li          Li LiLi Li       |  
 |     Li          Li Li                   |  
 |    Li       Li Li       Li Li       Li  |  
 |     |Li Li       Li Li       Li Li      |  
 |  Li |     Li Li       Li Li             |  
 |     | Li Li       Li Li       Li Li     |  
 |Li Li|      Li Li       Li Li            |  
 |     Li Li       Li Li       Li Li       |  
 | Li  |       Li          Li              |  
 |     |Li          Li          Li         |  
 Li    |     Li          Li                |  
 |     |                                   |  
 |     |                                   |  
 |     |                                   |  
 |     |                                   |  
 |     |                                   |  
 |     .-----------------------------------.  
 |    /                                   /   
 |   /                                   /    
 |  /                                   /     
 | /                                   /      
 |/                                   /       
 *-----------------------------------*        

Atomic positions and initial magnetic moments

Positions:
   0 Li     0.000000    0.000000   10.000000    ( 0.0000,  0.0000,  0.0000)
   1 Li     2.467803    1.745000   10.000000    ( 0.0000,  0.0000,  0.0000)
   2 Li     2.467803    0.000000   12.467803    ( 0.0000,  0.0000,  0.0000)
   3 Li     0.000000    1.745000   12.467803    ( 0.0000,  0.0000,  0.0000)
   4 Li     0.009009   -0.060375   14.773461    ( 0.0000,  0.0000,  0.0000)
   5 Li     2.449786    1.775185   14.816598    ( 0.0000,  0.0000,  0.0000)
   6 Li     2.380795    0.101335   17.194527    ( 0.0000,  0.0000,  0.0000)
   7 Li     0.043505    1.694333   16.957383    ( 0.0000,  0.0000,  0.0000)
   8 Li     0.000000    3.490000   10.000000    ( 0.0000,  0.0000,  0.0000)
   9 Li     2.467803    5.235000   10.000000    ( 0.0000,  0.0000,  0.0000)
  10 Li     2.467803    3.490000   12.467803    ( 0.0000,  0.0000,  0.0000)
  11 Li     0.000000    5.235000   12.467803    ( 0.0000,  0.0000,  0.0000)
  12 Li    -0.006120    3.529644   14.809865    ( 0.0000,  0.0000,  0.0000)
  13 Li     2.480042    5.193533   14.976894    ( 0.0000,  0.0000,  0.0000)
  14 Li     2.380794    3.340636   17.395853    ( 0.0000,  0.0000,  0.0000)
  15 Li     0.023784    5.138940   17.303247    ( 0.0000,  0.0000,  0.0000)
  16 Li     0.000000    6.980000   10.000000    ( 0.0000,  0.0000,  0.0000)
  17 Li     2.467803    8.725000   10.000000    ( 0.0000,  0.0000,  0.0000)
  18 Li     2.467803    6.980000   12.467803    ( 0.0000,  0.0000,  0.0000)
  19 Li     0.000000    8.725000   12.467803    ( 0.0000,  0.0000,  0.0000)
  20 Li    -0.006120    7.000732   14.984859    ( 0.0000,  0.0000,  0.0000)
  21 Li     2.480042    8.736282   14.889403    ( 0.0000,  0.0000,  0.0000)
  22 Li     2.420228    7.028029   17.282264    ( 0.0000,  0.0000,  0.0000)
  23 Li     0.043505    8.871728   17.360036    ( 0.0000,  0.0000,  0.0000)
  24 Li     4.935605    0.000000   10.000000    ( 0.0000,  0.0000,  0.0000)
  25 Li     7.403408    1.745000   10.000000    ( 0.0000,  0.0000,  0.0000)
  26 Li     7.403408    0.000000   12.467803    ( 0.0000,  0.0000,  0.0000)
  27 Li     4.935605    1.745000   12.467803    ( 0.0000,  0.0000,  0.0000)
  28 Li     4.929629    0.007899   14.882665    ( 0.0000,  0.0000,  0.0000)
  29 Li     7.404923    1.741052   14.898217    ( 0.0000,  0.0000,  0.0000)
  30 Li     7.383298    0.006078   17.239189    ( 0.0000,  0.0000,  0.0000)
  31 Li     4.851884    1.694333   17.317197    ( 0.0000,  0.0000,  0.0000)
  32 Li     4.935605    3.490000   10.000000    ( 0.0000,  0.0000,  0.0000)
  33 Li     7.403408    5.235000   10.000000    ( 0.0000,  0.0000,  0.0000)
  34 Li     7.403408    3.490000   12.467803    ( 0.0000,  0.0000,  0.0000)
  35 Li     4.935605    5.235000   12.467803    ( 0.0000,  0.0000,  0.0000)
  36 Li     4.944758    3.461369   14.919068    ( 0.0000,  0.0000,  0.0000)
  37 Li     7.400776    5.232192   14.895825    ( 0.0000,  0.0000,  0.0000)
  38 Li     7.377195    3.469108   17.233978    ( 0.0000,  0.0000,  0.0000)
  39 Li     4.859386    5.205374   17.249979    ( 0.0000,  0.0000,  0.0000)
  40 Li     4.935605    6.980000   10.000000    ( 0.0000,  0.0000,  0.0000)
  41 Li     7.403408    8.725000   10.000000    ( 0.0000,  0.0000,  0.0000)
  42 Li     7.403408    6.980000   12.467803    ( 0.0000,  0.0000,  0.0000)
  43 Li     4.935605    8.725000   12.467803    ( 0.0000,  0.0000,  0.0000)
  44 Li     4.936459    7.000731   14.923197    ( 0.0000,  0.0000,  0.0000)
  45 Li     7.404923    8.731756   14.893760    ( 0.0000,  0.0000,  0.0000)
  46 Li     7.377195    6.994814   17.235798    ( 0.0000,  0.0000,  0.0000)
  47 Li     4.839666    8.805294   17.306769    ( 0.0000,  0.0000,  0.0000)
  48 Li     9.871211    0.000000   10.000000    ( 0.0000,  0.0000,  0.0000)
  49 Li    12.339013    1.745000   10.000000    ( 0.0000,  0.0000,  0.0000)
  50 Li    12.339013    0.000000   12.467803    ( 0.0000,  0.0000,  0.0000)
  51 Li     9.871211    1.745000   12.467803    ( 0.0000,  0.0000,  0.0000)
  52 Li     9.868179    0.007899   14.896173    ( 0.0000,  0.0000,  0.0000)
  53 Li    12.355516    1.741052   14.871203    ( 0.0000,  0.0000,  0.0000)
  54 Li    12.446131    0.101335   17.374434    ( 0.0000,  0.0000,  0.0000)
  55 Li     9.911426    1.741961   17.249578    ( 0.0000,  0.0000,  0.0000)
  56 Li     9.871211    3.490000   10.000000    ( 0.0000,  0.0000,  0.0000)
  57 Li    12.339013    5.235000   10.000000    ( 0.0000,  0.0000,  0.0000)
  58 Li    12.339013    3.490000   12.467803    ( 0.0000,  0.0000,  0.0000)
  59 Li     9.871211    5.235000   12.467803    ( 0.0000,  0.0000,  0.0000)
  60 Li     9.868178    3.480698   14.893944    ( 0.0000,  0.0000,  0.0000)
  61 Li    12.329406    5.193533   14.946072    ( 0.0000,  0.0000,  0.0000)
  62 Li    12.452235    3.373851   17.369223    ( 0.0000,  0.0000,  0.0000)
  63 Li     9.923645    5.205374   17.240063    ( 0.0000,  0.0000,  0.0000)
  64 Li     9.871211    6.980000   10.000000    ( 0.0000,  0.0000,  0.0000)
  65 Li    12.339013    8.725000   10.000000    ( 0.0000,  0.0000,  0.0000)
  66 Li    12.339013    6.980000   12.467803    ( 0.0000,  0.0000,  0.0000)
  67 Li     9.871211    8.725000   12.467803    ( 0.0000,  0.0000,  0.0000)
  68 Li     9.876477    6.981403   14.898074    ( 0.0000,  0.0000,  0.0000)
  69 Li    12.325260    8.770415   14.944008    ( 0.0000,  0.0000,  0.0000)
  70 Li    12.412801    6.994815   17.255635    ( 0.0000,  0.0000,  0.0000)
  71 Li     9.923644    8.757665   17.239149    ( 0.0000,  0.0000,  0.0000)
  72 Li     0.822602    1.163336   19.322724    ( 0.0000,  0.0000,  0.0000)

Unit cell:
           periodic     x           y           z      points  spacing
  1. axis:    yes   14.806816    0.000000    0.000000    49     0.3022
  2. axis:    yes    0.000000   10.470000    0.000000    35     0.2991
  3. axis:    no     0.000000    0.000000   27.403408    90     0.3045

  Lengths:  14.806816  10.470000  27.403408
  Angles:   90.000000  90.000000  90.000000

Effective grid spacing dv^(1/3) = 0.3019

     iter     time        total  log10-change:
                         energy   eigst   dens
iter:   1 03:55:51  -135.915707
iter:   2 03:55:54  -131.417840   -0.87  -0.55
iter:   3 03:55:58  -129.655770   -0.97  -0.71
iter:   4 03:56:01  -129.994697   -1.49  -0.88
iter:   5 03:56:04  -129.230600   -1.95  -0.88
iter:   6 03:56:07  -128.630650   -1.95  -1.00
iter:   7 03:56:10  -128.790135   -1.77  -1.27
iter:   8 03:56:13  -128.613682   -2.00  -1.20
iter:   9 03:56:16  -128.582393   -2.77  -1.40
iter:  10 03:56:19  -128.602723c  -2.28  -1.54
iter:  11 03:56:22  -128.530466   -2.78  -1.52
iter:  12 03:56:25  -128.528657   -3.51  -2.02
iter:  13 03:56:28  -128.528712c  -3.71  -2.15
iter:  14 03:56:31  -128.528915c  -3.80  -2.25
iter:  15 03:56:34  -128.527359c  -4.16  -2.38
iter:  16 03:56:37  -128.527007c  -4.30  -2.44
iter:  17 03:56:41  -128.527195c  -4.27  -2.51
iter:  18 03:56:44  -128.527553c  -4.62  -2.78
iter:  19 03:56:47  -128.526893c  -4.68  -2.80
iter:  20 03:56:50  -128.526861c  -5.13  -2.98
iter:  21 03:56:53  -128.526952c  -4.91  -3.14
iter:  22 03:56:56  -128.526765c  -5.07  -3.27
iter:  23 03:56:59  -128.526599c  -5.05  -3.36
iter:  24 03:57:02  -128.526691c  -5.05  -3.46
iter:  25 03:57:05  -128.526488c  -5.06  -3.47
iter:  26 03:57:08  -128.526456c  -5.53c -3.78
iter:  27 03:57:11  -128.526426c  -5.42c -3.82
iter:  28 03:57:14  -128.526398c  -5.27  -3.88
iter:  29 03:57:17  -128.526319c  -5.33c -3.98
iter:  30 03:57:20  -128.526299c  -5.51c -4.00
iter:  31 03:57:23  -128.526276c  -5.73c -4.02c

Converged after 31 iterations.

Dipole moment: (-6.078654, -3.701935, 0.350853) |e|*Ang

Energy contributions relative to reference atoms: (reference = -14803.510878)

Kinetic:       +114.601198
Potential:     -100.222477
External:        +0.000000
XC:            -141.714358
Entropy (-ST):   -1.392340
Local:           -0.494468
SIC:             +0.000000
--------------------------
Free energy:   -129.222445
Extrapolated:  -128.526276

Showing all kpts
 Kpt  Band  Eigenvalues  Occupancy
  0    34     -1.93944    1.52009
  0    35     -1.89298    1.33121
  0    36     -1.81994    0.97899
  0    37     -1.75620    0.67279

  1    34     -1.93770    1.51373
  1    35     -1.89318    1.33208
  1    36     -1.82019    0.98021
  1    37     -1.75590    0.67144


Fermi level: -1.82414

Gap: 0.073 eV
Transition (v -> c):
  (s=0, k=0, n=35, [0.25, -0.25, 0.00]) -> (s=0, k=1, n=36, [0.25, 0.25, 0.00])
Direct/indirect transitions are different
Direct gap: 0.073 eV
Transition at: (s=0, k=1, n=35, [0.25, 0.25, 0.00])

Forces in eV/Ang:
  0 Li    0.00079    0.00098    0.10383
  1 Li   -0.00132   -0.00078    0.09969
  2 Li    0.00718   -0.01338   -0.08673
  3 Li   -0.00349    0.00734   -0.07526
  4 Li   -0.00836   -0.01713   -0.00428
  5 Li    0.02186    0.00352    0.00732
  6 Li    0.09429   -0.08673   -0.09983
  7 Li   -0.12012    0.09755   -0.28887
  8 Li    0.00129   -0.00322    0.10300
  9 Li    0.00009   -0.00375    0.08853
 10 Li    0.00577    0.03492   -0.10119
 11 Li    0.00341    0.04034   -0.07847
 12 Li   -0.00392    0.01319   -0.01355
 13 Li   -0.01133    0.00235   -0.02439
 14 Li    0.00662    0.01077   -0.02825
 15 Li    0.01746   -0.00467   -0.01205
 16 Li   -0.00043    0.00231    0.08354
 17 Li   -0.00166    0.00450    0.09727
 18 Li   -0.00700   -0.01570   -0.02449
 19 Li   -0.00187   -0.05384   -0.11922
 20 Li    0.00640   -0.00325   -0.03425
 21 Li   -0.00206   -0.00052   -0.01076
 22 Li   -0.01477   -0.01203   -0.00951
 23 Li   -0.00689    0.02066   -0.00970
 24 Li    0.00252    0.00054    0.08695
 25 Li    0.00312    0.00055    0.08888
 26 Li   -0.00102    0.00126   -0.06662
 27 Li    0.00196    0.00564   -0.07923
 28 Li   -0.00183    0.00656    0.01722
 29 Li   -0.00028   -0.00534   -0.01766
 30 Li    0.01768   -0.00141   -0.01936
 31 Li    0.01136    0.02819   -0.00787
 32 Li    0.00334   -0.00153    0.08776
 33 Li    0.00340    0.00097    0.09098
 34 Li    0.00098   -0.00279   -0.06259
 35 Li    0.00014   -0.00449   -0.02910
 36 Li   -0.00177   -0.00902   -0.01324
 37 Li    0.00236    0.00112   -0.00959
 38 Li    0.00303    0.00515   -0.00993
 39 Li   -0.00084    0.00706   -0.00359
 40 Li    0.00641    0.00072    0.09252
 41 Li    0.00286   -0.00096    0.08778
 42 Li    0.00020    0.00161   -0.05844
 43 Li    0.00418   -0.00243   -0.06941
 44 Li   -0.00444   -0.00142    0.00781
 45 Li    0.00271    0.00343   -0.01268
 46 Li    0.00191   -0.00412   -0.01075
 47 Li    0.02556   -0.03010   -0.03491
 48 Li   -0.00465   -0.00046    0.08705
 49 Li    0.00001   -0.00068    0.09051
 50 Li   -0.00692   -0.01168   -0.08445
 51 Li    0.00264   -0.00105   -0.06828
 52 Li   -0.00232    0.01040   -0.01318
 53 Li   -0.00768   -0.00082    0.02436
 54 Li    0.02312   -0.03120    0.00648
 55 Li   -0.03355    0.00019   -0.02841
 56 Li   -0.00465    0.00067    0.08611
 57 Li   -0.00383   -0.00200    0.09165
 58 Li   -0.00720    0.01027   -0.08028
 59 Li   -0.00120   -0.00293   -0.05733
 60 Li   -0.00482   -0.00987   -0.01055
 61 Li    0.01098    0.00063    0.00271
 62 Li   -0.00121    0.02229   -0.01666
 63 Li   -0.00357    0.00739   -0.01172
 64 Li   -0.00579   -0.00074    0.09276
 65 Li   -0.00148    0.00286    0.09000
 66 Li    0.00372    0.00287   -0.00295
 67 Li   -0.00145    0.00361   -0.05980
 68 Li   -0.00308    0.00015   -0.00198
 69 Li    0.00893    0.00515   -0.01496
 70 Li    0.00717   -0.00292    0.00274
 71 Li   -0.00571   -0.00749   -0.01095
 72 Li   -0.02284   -0.01735    0.27197

System changes: positions 

Initializing position-dependent things.

Density initialized from wave functions
       .-----------------------------------.  
      /|                                   |  
     / |                                   |  
    /  |                                   |  
   /   |                                   |  
  /    |                                   |  
 *     |                                   |  
 |     |                                   |  
 |     |                                   |  
 |     |                                   |  
 |     |                                   |  
 |     |                                   |  
 |     |                                   |  
 |    Li          Li                       |  
 |     |                      Li           |  
 |  Li |   Li          Li          Li      |  
 |  Li Li       Li          Li      Li     |  
 |     | Li Li   Li  Li Li       Li      Li|  
 |Li   |  Li  Li          Li LiLi Li       |  
 |     Li          Li Li                   |  
 |    Li       Li Li       Li Li       Li  |  
 |     |Li Li       Li Li       Li Li      |  
 |  Li |     Li Li       Li Li             |  
 |     | Li Li       Li Li       Li Li     |  
 |Li Li|      Li Li       Li Li            |  
 |     Li Li       Li Li       Li Li       |  
 | Li  |       Li          Li              |  
 |     |Li          Li          Li         |  
 Li    |     Li          Li                |  
 |     |                                   |  
 |     |                                   |  
 |     |                                   |  
 |     |                                   |  
 |     |                                   |  
 |     .-----------------------------------.  
 |    /                                   /   
 |   /                                   /    
 |  /                                   /     
 | /                                   /      
 |/                                   /       
 *-----------------------------------*        

Atomic positions and initial magnetic moments

Positions:
   0 Li     0.000000    0.000000   10.000000    ( 0.0000,  0.0000,  0.0000)
   1 Li     2.467803    1.745000   10.000000    ( 0.0000,  0.0000,  0.0000)
   2 Li     2.467803    0.000000   12.467803    ( 0.0000,  0.0000,  0.0000)
   3 Li     0.000000    1.745000   12.467803    ( 0.0000,  0.0000,  0.0000)
   4 Li     0.008929   -0.060532   14.773439    ( 0.0000,  0.0000,  0.0000)
   5 Li     2.450009    1.775235   14.816650    ( 0.0000,  0.0000,  0.0000)
   6 Li     2.381759    0.100443   17.193413    ( 0.0000,  0.0000,  0.0000)
   7 Li     0.042325    1.695284   16.954610    ( 0.0000,  0.0000,  0.0000)
   8 Li     0.000000    3.490000   10.000000    ( 0.0000,  0.0000,  0.0000)
   9 Li     2.467803    5.235000   10.000000    ( 0.0000,  0.0000,  0.0000)
  10 Li     2.467803    3.490000   12.467803    ( 0.0000,  0.0000,  0.0000)
  11 Li     0.000000    5.235000   12.467803    ( 0.0000,  0.0000,  0.0000)
  12 Li    -0.006162    3.529751   14.809769    ( 0.0000,  0.0000,  0.0000)
  13 Li     2.479925    5.193567   14.976654    ( 0.0000,  0.0000,  0.0000)
  14 Li     2.380882    3.340745   17.395553    ( 0.0000,  0.0000,  0.0000)
  15 Li     0.023971    5.138917   17.303116    ( 0.0000,  0.0000,  0.0000)
  16 Li     0.000000    6.980000   10.000000    ( 0.0000,  0.0000,  0.0000)
  17 Li     2.467803    8.725000   10.000000    ( 0.0000,  0.0000,  0.0000)
  18 Li     2.467803    6.980000   12.467803    ( 0.0000,  0.0000,  0.0000)
  19 Li     0.000000    8.725000   12.467803    ( 0.0000,  0.0000,  0.0000)
  20 Li    -0.006059    7.000709   14.984513    ( 0.0000,  0.0000,  0.0000)
  21 Li     2.480018    8.736252   14.889256    ( 0.0000,  0.0000,  0.0000)
  22 Li     2.420092    7.027933   17.282179    ( 0.0000,  0.0000,  0.0000)
  23 Li     0.043457    8.871936   17.359956    ( 0.0000,  0.0000,  0.0000)
  24 Li     4.935605    0.000000   10.000000    ( 0.0000,  0.0000,  0.0000)
  25 Li     7.403408    1.745000   10.000000    ( 0.0000,  0.0000,  0.0000)
  26 Li     7.403408    0.000000   12.467803    ( 0.0000,  0.0000,  0.0000)
  27 Li     4.935605    1.745000   12.467803    ( 0.0000,  0.0000,  0.0000)
  28 Li     4.929606    0.007963   14.882831    ( 0.0000,  0.0000,  0.0000)
  29 Li     7.404921    1.740997   14.898040    ( 0.0000,  0.0000,  0.0000)
  30 Li     7.383465    0.006062   17.239000    ( 0.0000,  0.0000,  0.0000)
  31 Li     4.851986    1.694590   17.317147    ( 0.0000,  0.0000,  0.0000)
  32 Li     4.935605    3.490000   10.000000    ( 0.0000,  0.0000,  0.0000)
  33 Li     7.403408    5.235000   10.000000    ( 0.0000,  0.0000,  0.0000)
  34 Li     7.403408    3.490000   12.467803    ( 0.0000,  0.0000,  0.0000)
  35 Li     4.935605    5.235000   12.467803    ( 0.0000,  0.0000,  0.0000)
  36 Li     4.944742    3.461271   14.918947    ( 0.0000,  0.0000,  0.0000)
  37 Li     7.400799    5.232204   14.895730    ( 0.0000,  0.0000,  0.0000)
  38 Li     7.377212    3.469154   17.233881    ( 0.0000,  0.0000,  0.0000)
  39 Li     4.859379    5.205452   17.249946    ( 0.0000,  0.0000,  0.0000)
  40 Li     4.935605    6.980000   10.000000    ( 0.0000,  0.0000,  0.0000)
  41 Li     7.403408    8.725000   10.000000    ( 0.0000,  0.0000,  0.0000)
  42 Li     7.403408    6.980000   12.467803    ( 0.0000,  0.0000,  0.0000)
  43 Li     4.935605    8.725000   12.467803    ( 0.0000,  0.0000,  0.0000)
  44 Li     4.936419    7.000727   14.923286    ( 0.0000,  0.0000,  0.0000)
  45 Li     7.404950    8.731792   14.893633    ( 0.0000,  0.0000,  0.0000)
  46 Li     7.377201    6.994780   17.235693    ( 0.0000,  0.0000,  0.0000)
  47 Li     4.839913    8.805010   17.306450    ( 0.0000,  0.0000,  0.0000)
  48 Li     9.871211    0.000000   10.000000    ( 0.0000,  0.0000,  0.0000)
  49 Li    12.339013    1.745000   10.000000    ( 0.0000,  0.0000,  0.0000)
  50 Li    12.339013    0.000000   12.467803    ( 0.0000,  0.0000,  0.0000)
  51 Li     9.871211    1.745000   12.467803    ( 0.0000,  0.0000,  0.0000)
  52 Li     9.868156    0.008001   14.896042    ( 0.0000,  0.0000,  0.0000)
  53 Li    12.355434    1.741042   14.871452    ( 0.0000,  0.0000,  0.0000)
  54 Li    12.446350    0.100999   17.374471    ( 0.0000,  0.0000,  0.0000)
  55 Li     9.911081    1.741962   17.249288    ( 0.0000,  0.0000,  0.0000)
  56 Li     9.871211    3.490000   10.000000    ( 0.0000,  0.0000,  0.0000)
  57 Li    12.339013    5.235000   10.000000    ( 0.0000,  0.0000,  0.0000)
  58 Li    12.339013    3.490000   12.467803    ( 0.0000,  0.0000,  0.0000)
  59 Li     9.871211    5.235000   12.467803    ( 0.0000,  0.0000,  0.0000)
  60 Li     9.868131    3.480600   14.893839    ( 0.0000,  0.0000,  0.0000)
  61 Li    12.329521    5.193550   14.946088    ( 0.0000,  0.0000,  0.0000)
  62 Li    12.452214    3.374091   17.369026    ( 0.0000,  0.0000,  0.0000)
  63 Li     9.923596    5.205455   17.239944    ( 0.0000,  0.0000,  0.0000)
  64 Li     9.871211    6.980000   10.000000    ( 0.0000,  0.0000,  0.0000)
  65 Li    12.339013    8.725000   10.000000    ( 0.0000,  0.0000,  0.0000)
  66 Li    12.339013    6.980000   12.467803    ( 0.0000,  0.0000,  0.0000)
  67 Li     9.871211    8.725000   12.467803    ( 0.0000,  0.0000,  0.0000)
  68 Li     9.876445    6.981405   14.898053    ( 0.0000,  0.0000,  0.0000)
  69 Li    12.325352    8.770458   14.943846    ( 0.0000,  0.0000,  0.0000)
  70 Li    12.412873    6.994793   17.255659    ( 0.0000,  0.0000,  0.0000)
  71 Li     9.923574    8.757584   17.239037    ( 0.0000,  0.0000,  0.0000)
  72 Li     0.822775    1.162878   19.325444    ( 0.0000,  0.0000,  0.0000)

Unit cell:
           periodic     x           y           z      points  spacing
  1. axis:    yes   14.806816    0.000000    0.000000    49     0.3022
  2. axis:    yes    0.000000   10.470000    0.000000    35     0.2991
  3. axis:    no     0.000000    0.000000   27.403408    90     0.3045

  Lengths:  14.806816  10.470000  27.403408
  Angles:   90.000000  90.000000  90.000000

Effective grid spacing dv^(1/3) = 0.3019

     iter     time        total  log10-change:
                         energy   eigst   dens
iter:   1 04:03:08  -128.528723   -4.68
iter:   2 04:03:11  -128.528275   -4.83  -2.65
iter:   3 04:03:14  -128.528303c  -5.52c -2.85
iter:   4 04:03:17  -128.528474c  -5.46c -3.24
iter:   5 04:03:20  -128.528346c  -5.75c -3.48
iter:   6 04:03:23  -128.528320c  -5.84c -3.56
iter:   7 04:03:26  -128.528336c  -5.96c -3.96
iter:   8 04:03:29  -128.528331c  -5.95c -4.00c

Converged after 8 iterations.

Dipole moment: (-6.057104, -3.687274, 0.352789) |e|*Ang

Energy contributions relative to reference atoms: (reference = -14803.510878)

Kinetic:       +114.569404
Potential:     -100.212128
External:        +0.000000
XC:            -141.706121
Entropy (-ST):   -1.393033
Local:           -0.482969
SIC:             +0.000000
--------------------------
Free energy:   -129.224848
Extrapolated:  -128.528331

Showing all kpts
 Kpt  Band  Eigenvalues  Occupancy
  0    34     -1.93954    1.51993
  0    35     -1.89302    1.33071
  0    36     -1.81997    0.97840
  0    37     -1.75635    0.67280

  1    34     -1.93779    1.51351
  1    35     -1.89320    1.33152
  1    36     -1.82021    0.97962
  1    37     -1.75609    0.67162


Fermi level: -1.82429

Gap: 0.073 eV
Transition (v -> c):
  (s=0, k=0, n=35, [0.25, -0.25, 0.00]) -> (s=0, k=1, n=36, [0.25, 0.25, 0.00])
Direct/indirect transitions are different
Direct gap: 0.073 eV
Transition at: (s=0, k=1, n=35, [0.25, 0.25, 0.00])

Forces in eV/Ang:
  0 Li    0.00079    0.00103    0.10320
  1 Li   -0.00136   -0.00080    0.09908
  2 Li    0.00731   -0.01337   -0.08643
  3 Li   -0.00349    0.00722   -0.07427
  4 Li   -0.00813   -0.01759   -0.00568
  5 Li    0.02146    0.00358    0.00611
  6 Li    0.09071   -0.08406   -0.09624
  7 Li   -0.11511    0.09420   -0.27706
  8 Li    0.00126   -0.00313    0.10257
  9 Li   -0.00005   -0.00369    0.08863
 10 Li    0.00595    0.03505   -0.10122
 11 Li    0.00344    0.04070   -0.07887
 12 Li   -0.00381    0.01402   -0.01457
 13 Li   -0.01119    0.00169   -0.02395
 14 Li    0.00623    0.01018   -0.02768
 15 Li    0.01711   -0.00433   -0.01180
 16 Li   -0.00023    0.00221    0.08362
 17 Li   -0.00170    0.00443    0.09723
 18 Li   -0.00700   -0.01580   -0.02492
 19 Li   -0.00191   -0.05413   -0.11947
 20 Li    0.00631   -0.00273   -0.03365
 21 Li   -0.00201   -0.00066   -0.01088
 22 Li   -0.01473   -0.01181   -0.00880
 23 Li   -0.00657    0.02024   -0.00940
 24 Li    0.00246    0.00053    0.08663
 25 Li    0.00317    0.00044    0.08844
 26 Li   -0.00094    0.00146   -0.06691
 27 Li    0.00213    0.00562   -0.07967
 28 Li   -0.00224    0.00649    0.01713
 29 Li   -0.00012   -0.00513   -0.01741
 30 Li    0.01720   -0.00128   -0.01901
 31 Li    0.01181    0.02782   -0.00744
 32 Li    0.00317   -0.00148    0.08744
 33 Li    0.00326    0.00104    0.09080
 34 Li    0.00098   -0.00292   -0.06273
 35 Li    0.00016   -0.00440   -0.02928
 36 Li   -0.00200   -0.00880   -0.01296
 37 Li    0.00240    0.00128   -0.00947
 38 Li    0.00294    0.00518   -0.00974
 39 Li   -0.00111    0.00658   -0.00310
 40 Li    0.00635    0.00070    0.09269
 41 Li    0.00274   -0.00096    0.08741
 42 Li    0.00020    0.00151   -0.05851
 43 Li    0.00420   -0.00247   -0.06949
 44 Li   -0.00424   -0.00136    0.00745
 45 Li    0.00285    0.00312   -0.01256
 46 Li    0.00216   -0.00418   -0.01078
 47 Li    0.02528   -0.02975   -0.03439
 48 Li   -0.00462   -0.00032    0.08657
 49 Li    0.00004   -0.00065    0.09014
 50 Li   -0.00710   -0.01171   -0.08457
 51 Li    0.00238   -0.00111   -0.06868
 52 Li   -0.00234    0.00996   -0.01315
 53 Li   -0.00735   -0.00087    0.02381
 54 Li    0.02219   -0.03074    0.00677
 55 Li   -0.03267    0.00011   -0.02785
 56 Li   -0.00451    0.00058    0.08580
 57 Li   -0.00370   -0.00211    0.09178
 58 Li   -0.00739    0.01036   -0.08037
 59 Li   -0.00120   -0.00288   -0.05743
 60 Li   -0.00494   -0.00945   -0.01062
 61 Li    0.01086    0.00023    0.00273
 62 Li   -0.00181    0.02234   -0.01627
 63 Li   -0.00359    0.00732   -0.01138
 64 Li   -0.00570   -0.00073    0.09265
 65 Li   -0.00136    0.00293    0.08985
 66 Li    0.00366    0.00278   -0.00339
 67 Li   -0.00134    0.00368   -0.05981
 68 Li   -0.00314    0.00013   -0.00212
 69 Li    0.00894    0.00527   -0.01459
 70 Li    0.00749   -0.00261    0.00355
 71 Li   -0.00542   -0.00737   -0.01071
 72 Li   -0.02352   -0.01672    0.25948

System changes: positions 

Initializing position-dependent things.

Density initialized from wave functions
       .-----------------------------------.  
      /|                                   |  
     / |                                   |  
    /  |                                   |  
   /   |                                   |  
  /    |                                   |  
 *     |                                   |  
 |     |                                   |  
 |     |                                   |  
 |     |                                   |  
 |     |                                   |  
 |     |                                   |  
 |     |                                   |  
 |    Li          Li                       |  
 |     |                      Li           |  
 |  Li |   Li          Li          Li      |  
 |  Li Li       Li          Li      Li     |  
 |     | Li Li   Li  Li Li       Li      Li|  
 |Li   |  Li  Li          Li LiLi Li       |  
 |     Li          Li Li                   |  
 |    Li       Li Li       Li Li       Li  |  
 |     |Li Li       Li Li       Li Li      |  
 |  Li |     Li Li       Li Li             |  
 |     | Li Li       Li Li       Li Li     |  
 |Li Li|      Li Li       Li Li            |  
 |     Li Li       Li Li       Li Li       |  
 | Li  |       Li          Li              |  
 |     |Li          Li          Li         |  
 Li    |     Li          Li                |  
 |     |                                   |  
 |     |                                   |  
 |     |                                   |  
 |     |                                   |  
 |     |                                   |  
 |     .-----------------------------------.  
 |    /                                   /   
 |   /                                   /    
 |  /                                   /     
 | /                                   /      
 |/                                   /       
 *-----------------------------------*        

Atomic positions and initial magnetic moments

Positions:
   0 Li     0.000000    0.000000   10.000000    ( 0.0000,  0.0000,  0.0000)
   1 Li     2.467803    1.745000   10.000000    ( 0.0000,  0.0000,  0.0000)
   2 Li     2.467803    0.000000   12.467803    ( 0.0000,  0.0000,  0.0000)
   3 Li     0.000000    1.745000   12.467803    ( 0.0000,  0.0000,  0.0000)
   4 Li     0.008773   -0.060851   14.773380    ( 0.0000,  0.0000,  0.0000)
   5 Li     2.450451    1.775335   14.816742    ( 0.0000,  0.0000,  0.0000)
   6 Li     2.383651    0.098686   17.191222    ( 0.0000,  0.0000,  0.0000)
   7 Li     0.040015    1.697152   16.949182    ( 0.0000,  0.0000,  0.0000)
   8 Li     0.000000    3.490000   10.000000    ( 0.0000,  0.0000,  0.0000)
   9 Li     2.467803    5.235000   10.000000    ( 0.0000,  0.0000,  0.0000)
  10 Li     2.467803    3.490000   12.467803    ( 0.0000,  0.0000,  0.0000)
  11 Li     0.000000    5.235000   12.467803    ( 0.0000,  0.0000,  0.0000)
  12 Li    -0.006245    3.529975   14.809563    ( 0.0000,  0.0000,  0.0000)
  13 Li     2.479694    5.193627   14.976178    ( 0.0000,  0.0000,  0.0000)
  14 Li     2.381052    3.340957   17.394958    ( 0.0000,  0.0000,  0.0000)
  15 Li     0.024340    5.138873   17.302857    ( 0.0000,  0.0000,  0.0000)
  16 Li     0.000000    6.980000   10.000000    ( 0.0000,  0.0000,  0.0000)
  17 Li     2.467803    8.725000   10.000000    ( 0.0000,  0.0000,  0.0000)
  18 Li     2.467803    6.980000   12.467803    ( 0.0000,  0.0000,  0.0000)
  19 Li     0.000000    8.725000   12.467803    ( 0.0000,  0.0000,  0.0000)
  20 Li    -0.005938    7.000670   14.983825    ( 0.0000,  0.0000,  0.0000)
  21 Li     2.479971    8.736191   14.888962    ( 0.0000,  0.0000,  0.0000)
  22 Li     2.419820    7.027740   17.282017    ( 0.0000,  0.0000,  0.0000)
  23 Li     0.043365    8.872347   17.359800    ( 0.0000,  0.0000,  0.0000)
  24 Li     4.935605    0.000000   10.000000    ( 0.0000,  0.0000,  0.0000)
  25 Li     7.403408    1.745000   10.000000    ( 0.0000,  0.0000,  0.0000)
  26 Li     7.403408    0.000000   12.467803    ( 0.0000,  0.0000,  0.0000)
  27 Li     4.935605    1.745000   12.467803    ( 0.0000,  0.0000,  0.0000)
  28 Li     4.929555    0.008090   14.883164    ( 0.0000,  0.0000,  0.0000)
  29 Li     7.404918    1.740889   14.897687    ( 0.0000,  0.0000,  0.0000)
  30 Li     7.383794    0.006033   17.238626    ( 0.0000,  0.0000,  0.0000)
  31 Li     4.852196    1.695102   17.317049    ( 0.0000,  0.0000,  0.0000)
  32 Li     4.935605    3.490000   10.000000    ( 0.0000,  0.0000,  0.0000)
  33 Li     7.403408    5.235000   10.000000    ( 0.0000,  0.0000,  0.0000)
  34 Li     7.403408    3.490000   12.467803    ( 0.0000,  0.0000,  0.0000)
  35 Li     4.935605    5.235000   12.467803    ( 0.0000,  0.0000,  0.0000)
  36 Li     4.944709    3.461077   14.918709    ( 0.0000,  0.0000,  0.0000)
  37 Li     7.400844    5.232229   14.895541    ( 0.0000,  0.0000,  0.0000)
  38 Li     7.377247    3.469246   17.233689    ( 0.0000,  0.0000,  0.0000)
  39 Li     4.859361    5.205602   17.249885    ( 0.0000,  0.0000,  0.0000)
  40 Li     4.935605    6.980000   10.000000    ( 0.0000,  0.0000,  0.0000)
  41 Li     7.403408    8.725000   10.000000    ( 0.0000,  0.0000,  0.0000)
  42 Li     7.403408    6.980000   12.467803    ( 0.0000,  0.0000,  0.0000)
  43 Li     4.935605    8.725000   12.467803    ( 0.0000,  0.0000,  0.0000)
  44 Li     4.936340    7.000719   14.923461    ( 0.0000,  0.0000,  0.0000)
  45 Li     7.405008    8.731859   14.893381    ( 0.0000,  0.0000,  0.0000)
  46 Li     7.377217    6.994712   17.235481    ( 0.0000,  0.0000,  0.0000)
  47 Li     4.840405    8.804445   17.305817    ( 0.0000,  0.0000,  0.0000)
  48 Li     9.871211    0.000000   10.000000    ( 0.0000,  0.0000,  0.0000)
  49 Li    12.339013    1.745000   10.000000    ( 0.0000,  0.0000,  0.0000)
  50 Li    12.339013    0.000000   12.467803    ( 0.0000,  0.0000,  0.0000)
  51 Li     9.871211    1.745000   12.467803    ( 0.0000,  0.0000,  0.0000)
  52 Li     9.868111    0.008201   14.895780    ( 0.0000,  0.0000,  0.0000)
  53 Li    12.355274    1.741021   14.871945    ( 0.0000,  0.0000,  0.0000)
  54 Li    12.446781    0.100330   17.374548    ( 0.0000,  0.0000,  0.0000)
  55 Li     9.910399    1.741962   17.248715    ( 0.0000,  0.0000,  0.0000)
  56 Li     9.871211    3.490000   10.000000    ( 0.0000,  0.0000,  0.0000)
  57 Li    12.339013    5.235000   10.000000    ( 0.0000,  0.0000,  0.0000)
  58 Li    12.339013    3.490000   12.467803    ( 0.0000,  0.0000,  0.0000)
  59 Li     9.871211    5.235000   12.467803    ( 0.0000,  0.0000,  0.0000)
  60 Li     9.868034    3.480410   14.893626    ( 0.0000,  0.0000,  0.0000)
  61 Li    12.329748    5.193578   14.946121    ( 0.0000,  0.0000,  0.0000)
  62 Li    12.452166    3.374573   17.368636    ( 0.0000,  0.0000,  0.0000)
  63 Li     9.923499    5.205617   17.239709    ( 0.0000,  0.0000,  0.0000)
  64 Li     9.871211    6.980000   10.000000    ( 0.0000,  0.0000,  0.0000)
  65 Li    12.339013    8.725000   10.000000    ( 0.0000,  0.0000,  0.0000)
  66 Li    12.339013    6.980000   12.467803    ( 0.0000,  0.0000,  0.0000)
  67 Li     9.871211    8.725000   12.467803    ( 0.0000,  0.0000,  0.0000)
  68 Li     9.876380    6.981409   14.898009    ( 0.0000,  0.0000,  0.0000)
  69 Li    12.325536    8.770547   14.943526    ( 0.0000,  0.0000,  0.0000)
  70 Li    12.413023    6.994752   17.255718    ( 0.0000,  0.0000,  0.0000)
  71 Li     9.923438    8.757424   17.238816    ( 0.0000,  0.0000,  0.0000)
  72 Li     0.823105    1.161975   19.330756    ( 0.0000,  0.0000,  0.0000)

Unit cell:
           periodic     x           y           z      points  spacing
  1. axis:    yes   14.806816    0.000000    0.000000    49     0.3022
  2. axis:    yes    0.000000   10.470000    0.000000    35     0.2991
  3. axis:    no     0.000000    0.000000   27.403408    90     0.3045

  Lengths:  14.806816  10.470000  27.403408
  Angles:   90.000000  90.000000  90.000000

Effective grid spacing dv^(1/3) = 0.3019

     iter     time        total  log10-change:
                         energy   eigst   dens
iter:   1 04:05:40  -128.534142   -4.13
iter:   2 04:05:43  -128.532373   -4.45  -2.34
iter:   3 04:05:46  -128.532247c  -5.38c -2.53
iter:   4 04:05:49  -128.532605c  -5.15  -2.94
iter:   5 04:05:52  -128.532380c  -5.87c -3.21
iter:   6 04:05:55  -128.532329c  -6.02c -3.36
iter:   7 04:05:58  -128.532404c  -6.22c -3.66
iter:   8 04:06:01  -128.532382c  -6.47c -3.77
iter:   9 04:06:04  -128.532327c  -6.22c -3.93
iter:  10 04:06:07  -128.532342c  -6.63c -4.06c

Converged after 10 iterations.

Dipole moment: (-6.013912, -3.657086, 0.355452) |e|*Ang

Energy contributions relative to reference atoms: (reference = -14803.510878)

Kinetic:       +114.540005
Potential:     -100.194437
External:        +0.000000
XC:            -141.698363
Entropy (-ST):   -1.393329
Local:           -0.482883
SIC:             +0.000000
--------------------------
Free energy:   -129.229007
Extrapolated:  -128.532342

Showing all kpts
 Kpt  Band  Eigenvalues  Occupancy
  0    34     -1.93918    1.51987
  0    35     -1.89264    1.33056
  0    36     -1.81956    0.97803
  0    37     -1.75594    0.67245

  1    34     -1.93741    1.51338
  1    35     -1.89279    1.33120
  1    36     -1.81980    0.97923
  1    37     -1.75571    0.67144


Fermi level: -1.82395

Gap: 0.073 eV
Transition (v -> c):
  (s=0, k=0, n=35, [0.25, -0.25, 0.00]) -> (s=0, k=1, n=36, [0.25, 0.25, 0.00])
Direct/indirect transitions are different
Direct gap: 0.073 eV
Transition at: (s=0, k=1, n=35, [0.25, 0.25, 0.00])

Forces in eV/Ang:
  0 Li    0.00077    0.00103    0.10340
  1 Li   -0.00133   -0.00080    0.09924
  2 Li    0.00740   -0.01340   -0.08651
  3 Li   -0.00354    0.00724   -0.07384
  4 Li   -0.00765   -0.01856   -0.00748
  5 Li    0.02086    0.00369    0.00496
  6 Li    0.08422   -0.07917   -0.09119
  7 Li   -0.10569    0.08813   -0.25631
  8 Li    0.00122   -0.00313    0.10283
  9 Li   -0.00005   -0.00377    0.08878
 10 Li    0.00596    0.03512   -0.10142
 11 Li    0.00345    0.04089   -0.07912
 12 Li   -0.00359    0.01628   -0.01709
 13 Li   -0.01087    0.00137   -0.02356
 14 Li    0.00531    0.00902   -0.02739
 15 Li    0.01661   -0.00385   -0.01231
 16 Li   -0.00022    0.00223    0.08367
 17 Li   -0.00167    0.00450    0.09750
 18 Li   -0.00700   -0.01587   -0.02492
 19 Li   -0.00189   -0.05432   -0.11991
 20 Li    0.00619   -0.00236   -0.03295
 21 Li   -0.00192   -0.00167   -0.01165
 22 Li   -0.01443   -0.01141   -0.00897
 23 Li   -0.00575    0.01960   -0.00985
 24 Li    0.00254    0.00057    0.08666
 25 Li    0.00321    0.00034    0.08835
 26 Li   -0.00104    0.00154   -0.06709
 27 Li    0.00221    0.00549   -0.07991
 28 Li   -0.00205    0.00626    0.01646
 29 Li    0.00007   -0.00494   -0.01705
 30 Li    0.01676   -0.00130   -0.01895
 31 Li    0.01250    0.02736   -0.00721
 32 Li    0.00317   -0.00156    0.08742
 33 Li    0.00327    0.00105    0.09076
 34 Li    0.00088   -0.00304   -0.06282
 35 Li   -0.00002   -0.00430   -0.02906
 36 Li   -0.00194   -0.00811   -0.01268
 37 Li    0.00216    0.00137   -0.00921
 38 Li    0.00310    0.00530   -0.00990
 39 Li   -0.00109    0.00631   -0.00328
 40 Li    0.00642    0.00074    0.09281
 41 Li    0.00273   -0.00090    0.08733
 42 Li    0.00009    0.00153   -0.05860
 43 Li    0.00412   -0.00240   -0.06917
 44 Li   -0.00405   -0.00154    0.00677
 45 Li    0.00279    0.00287   -0.01231
 46 Li    0.00233   -0.00424   -0.01104
 47 Li    0.02559   -0.02987   -0.03385
 48 Li   -0.00468   -0.00020    0.08644
 49 Li   -0.00004   -0.00065    0.09025
 50 Li   -0.00719   -0.01154   -0.08469
 51 Li    0.00245   -0.00113   -0.06888
 52 Li   -0.00237    0.00947   -0.01310
 53 Li   -0.00794   -0.00094    0.02240
 54 Li    0.02047   -0.02989    0.00673
 55 Li   -0.03158    0.00010   -0.02746
 56 Li   -0.00451    0.00047    0.08574
 57 Li   -0.00370   -0.00223    0.09197
 58 Li   -0.00743    0.01029   -0.08026
 59 Li   -0.00103   -0.00293   -0.05729
 60 Li   -0.00487   -0.00891   -0.01055
 61 Li    0.01049    0.00011    0.00251
 62 Li   -0.00328    0.02262   -0.01591
 63 Li   -0.00357    0.00721   -0.01147
 64 Li   -0.00576   -0.00071    0.09264
 65 Li   -0.00136    0.00303    0.08996
 66 Li    0.00379    0.00264   -0.00319
 67 Li   -0.00117    0.00379   -0.05974
 68 Li   -0.00284    0.00006   -0.00216
 69 Li    0.00864    0.00502   -0.01402
 70 Li    0.00746   -0.00239    0.00342
 71 Li   -0.00525   -0.00731   -0.01082
 72 Li   -0.02493   -0.01528    0.23973

System changes: positions 

Initializing position-dependent things.

Density initialized from wave functions
       .-----------------------------------.  
      /|                                   |  
     / |                                   |  
    /  |                                   |  
   /   |                                   |  
  /    |                                   |  
 *     |                                   |  
 |     |                                   |  
 |     |                                   |  
 |     |                                   |  
 |     |                                   |  
 |     |                                   |  
 |     |                                   |  
 |    Li          Li                       |  
 |     |                      Li           |  
 |  Li |   Li          Li          Li      |  
 |  Li Li       Li          Li      Li     |  
 |     | Li Li   Li  Li Li       Li      Li|  
 |Li   |  Li  Li          Li LiLi Li       |  
 |     Li          Li Li                   |  
 |    Li       Li Li       Li Li       Li  |  
 |     |Li Li       Li Li       Li Li      |  
 |  Li |     Li Li       Li Li             |  
 |     | Li Li       Li Li       Li Li     |  
 |Li Li|      Li Li       Li Li            |  
 |     Li Li       Li Li       Li Li       |  
 | Li  |       Li          Li              |  
 |     |Li          Li          Li         |  
 Li    |     Li          Li                |  
 |     |                                   |  
 |     |                                   |  
 |     |                                   |  
 |     |                                   |  
 |     |                                   |  
 |     .-----------------------------------.  
 |    /                                   /   
 |   /                                   /    
 |  /                                   /     
 | /                                   /      
 |/                                   /       
 *-----------------------------------*        

Atomic positions and initial magnetic moments

Positions:
   0 Li     0.000000    0.000000   10.000000    ( 0.0000,  0.0000,  0.0000)
   1 Li     2.467803    1.745000   10.000000    ( 0.0000,  0.0000,  0.0000)
   2 Li     2.467803    0.000000   12.467803    ( 0.0000,  0.0000,  0.0000)
   3 Li     0.000000    1.745000   12.467803    ( 0.0000,  0.0000,  0.0000)
   4 Li     0.008544   -0.061347   14.773260    ( 0.0000,  0.0000,  0.0000)
   5 Li     2.451109    1.775488   14.816860    ( 0.0000,  0.0000,  0.0000)
   6 Li     2.386406    0.096110   17.188002    ( 0.0000,  0.0000,  0.0000)
   7 Li     0.036673    1.699880   16.941310    ( 0.0000,  0.0000,  0.0000)
   8 Li     0.000000    3.490000   10.000000    ( 0.0000,  0.0000,  0.0000)
   9 Li     2.467803    5.235000   10.000000    ( 0.0000,  0.0000,  0.0000)
  10 Li     2.467803    3.490000   12.467803    ( 0.0000,  0.0000,  0.0000)
  11 Li     0.000000    5.235000   12.467803    ( 0.0000,  0.0000,  0.0000)
  12 Li    -0.006367    3.530346   14.809214    ( 0.0000,  0.0000,  0.0000)
  13 Li     2.479350    5.193709   14.975467    ( 0.0000,  0.0000,  0.0000)
  14 Li     2.381295    3.341258   17.394070    ( 0.0000,  0.0000,  0.0000)
  15 Li     0.024888    5.138815   17.302462    ( 0.0000,  0.0000,  0.0000)
  16 Li     0.000000    6.980000   10.000000    ( 0.0000,  0.0000,  0.0000)
  17 Li     2.467803    8.725000   10.000000    ( 0.0000,  0.0000,  0.0000)
  18 Li     2.467803    6.980000   12.467803    ( 0.0000,  0.0000,  0.0000)
  19 Li     0.000000    8.725000   12.467803    ( 0.0000,  0.0000,  0.0000)
  20 Li    -0.005757    7.000617   14.982801    ( 0.0000,  0.0000,  0.0000)
  21 Li     2.479903    8.736087   14.888511    ( 0.0000,  0.0000,  0.0000)
  22 Li     2.419412    7.027456   17.281773    ( 0.0000,  0.0000,  0.0000)
  23 Li     0.043236    8.872958   17.359559    ( 0.0000,  0.0000,  0.0000)
  24 Li     4.935605    0.000000   10.000000    ( 0.0000,  0.0000,  0.0000)
  25 Li     7.403408    1.745000   10.000000    ( 0.0000,  0.0000,  0.0000)
  26 Li     7.403408    0.000000   12.467803    ( 0.0000,  0.0000,  0.0000)
  27 Li     4.935605    1.745000   12.467803    ( 0.0000,  0.0000,  0.0000)
  28 Li     4.929478    0.008278   14.883658    ( 0.0000,  0.0000,  0.0000)
  29 Li     7.404918    1.740728   14.897160    ( 0.0000,  0.0000,  0.0000)
  30 Li     7.384284    0.005988   17.238064    ( 0.0000,  0.0000,  0.0000)
  31 Li     4.852523    1.695867   17.316906    ( 0.0000,  0.0000,  0.0000)
  32 Li     4.935605    3.490000   10.000000    ( 0.0000,  0.0000,  0.0000)
  33 Li     7.403408    5.235000   10.000000    ( 0.0000,  0.0000,  0.0000)
  34 Li     7.403408    3.490000   12.467803    ( 0.0000,  0.0000,  0.0000)
  35 Li     4.935605    5.235000   12.467803    ( 0.0000,  0.0000,  0.0000)
  36 Li     4.944657    3.460793   14.918354    ( 0.0000,  0.0000,  0.0000)
  37 Li     7.400909    5.232270   14.895261    ( 0.0000,  0.0000,  0.0000)
  38 Li     7.377301    3.469387   17.233399    ( 0.0000,  0.0000,  0.0000)
  39 Li     4.859334    5.205823   17.249794    ( 0.0000,  0.0000,  0.0000)
  40 Li     4.935605    6.980000   10.000000    ( 0.0000,  0.0000,  0.0000)
  41 Li     7.403408    8.725000   10.000000    ( 0.0000,  0.0000,  0.0000)
  42 Li     7.403408    6.980000   12.467803    ( 0.0000,  0.0000,  0.0000)
  43 Li     4.935605    8.725000   12.467803    ( 0.0000,  0.0000,  0.0000)
  44 Li     4.936225    7.000705   14.923713    ( 0.0000,  0.0000,  0.0000)
  45 Li     7.405094    8.731957   14.893004    ( 0.0000,  0.0000,  0.0000)
  46 Li     7.377245    6.994606   17.235159    ( 0.0000,  0.0000,  0.0000)
  47 Li     4.841150    8.803594   17.304870    ( 0.0000,  0.0000,  0.0000)
  48 Li     9.871211    0.000000   10.000000    ( 0.0000,  0.0000,  0.0000)
  49 Li    12.339013    1.745000   10.000000    ( 0.0000,  0.0000,  0.0000)
  50 Li    12.339013    0.000000   12.467803    ( 0.0000,  0.0000,  0.0000)
  51 Li     9.871211    1.745000   12.467803    ( 0.0000,  0.0000,  0.0000)
  52 Li     9.868042    0.008494   14.895386    ( 0.0000,  0.0000,  0.0000)
  53 Li    12.355027    1.740988   14.872668    ( 0.0000,  0.0000,  0.0000)
  54 Li    12.447404    0.099335   17.374668    ( 0.0000,  0.0000,  0.0000)
  55 Li     9.909389    1.741961   17.247859    ( 0.0000,  0.0000,  0.0000)
  56 Li     9.871211    3.490000   10.000000    ( 0.0000,  0.0000,  0.0000)
  57 Li    12.339013    5.235000   10.000000    ( 0.0000,  0.0000,  0.0000)
  58 Li    12.339013    3.490000   12.467803    ( 0.0000,  0.0000,  0.0000)
  59 Li     9.871211    5.235000   12.467803    ( 0.0000,  0.0000,  0.0000)
  60 Li     9.867889    3.480131   14.893307    ( 0.0000,  0.0000,  0.0000)
  61 Li    12.330085    5.193616   14.946168    ( 0.0000,  0.0000,  0.0000)
  62 Li    12.452073    3.375303   17.368056    ( 0.0000,  0.0000,  0.0000)
  63 Li     9.923354    5.205859   17.239355    ( 0.0000,  0.0000,  0.0000)
  64 Li     9.871211    6.980000   10.000000    ( 0.0000,  0.0000,  0.0000)
  65 Li    12.339013    8.725000   10.000000    ( 0.0000,  0.0000,  0.0000)
  66 Li    12.339013    6.980000   12.467803    ( 0.0000,  0.0000,  0.0000)
  67 Li     9.871211    8.725000   12.467803    ( 0.0000,  0.0000,  0.0000)
  68 Li     9.876285    6.981414   14.897943    ( 0.0000,  0.0000,  0.0000)
  69 Li    12.325808    8.770678   14.943053    ( 0.0000,  0.0000,  0.0000)
  70 Li    12.413250    6.994695   17.255809    ( 0.0000,  0.0000,  0.0000)
  71 Li     9.923236    8.757184   17.238481    ( 0.0000,  0.0000,  0.0000)
  72 Li     0.823563    1.160650   19.338459    ( 0.0000,  0.0000,  0.0000)

Unit cell:
           periodic     x           y           z      points  spacing
  1. axis:    yes   14.806816    0.000000    0.000000    49     0.3022
  2. axis:    yes    0.000000   10.470000    0.000000    35     0.2991
  3. axis:    no     0.000000    0.000000   27.403408    90     0.3045

  Lengths:  14.806816  10.470000  27.403408
  Angles:   90.000000  90.000000  90.000000

Effective grid spacing dv^(1/3) = 0.3019

     iter     time        total  log10-change:
                         energy   eigst   dens
iter:   1 04:08:32  -128.541940   -3.85
iter:   2 04:08:35  -128.538261   -4.15  -2.19
iter:   3 04:08:38  -128.537707c  -5.21  -2.39
iter:   4 04:08:41  -128.538154c  -4.90  -2.79
iter:   5 04:08:44  -128.537792c  -5.64c -3.04
iter:   6 04:08:47  -128.537741c  -5.95c -3.14
iter:   7 04:08:50  -128.537838c  -6.26c -3.52
iter:   8 04:08:53  -128.537826c  -6.69c -3.60
iter:   9 04:08:56  -128.537749c  -6.58c -3.78
iter:  10 04:08:59  -128.537771c  -7.06c -3.94
iter:  11 04:09:02  -128.537787c  -6.81c -4.06c

Converged after 11 iterations.

Dipole moment: (-5.951169, -3.611755, 0.358973) |e|*Ang

Energy contributions relative to reference atoms: (reference = -14803.510878)

Kinetic:       +114.498190
Potential:     -100.168214
External:        +0.000000
XC:            -141.688258
Entropy (-ST):   -1.393350
Local:           -0.482830
SIC:             +0.000000
--------------------------
Free energy:   -129.234463
Extrapolated:  -128.537787

Showing all kpts
 Kpt  Band  Eigenvalues  Occupancy
  0    34     -1.93864    1.51978
  0    35     -1.89203    1.33017
  0    36     -1.81893    0.97752
  0    37     -1.75540    0.67240

  1    34     -1.93684    1.51319
  1    35     -1.89213    1.33060
  1    36     -1.81917    0.97872
  1    37     -1.75523    0.67164


Fermi level: -1.82343

Gap: 0.073 eV
Transition (v -> c):
  (s=0, k=0, n=35, [0.25, -0.25, 0.00]) -> (s=0, k=1, n=36, [0.25, 0.25, 0.00])
Direct/indirect transitions are different
Direct gap: 0.073 eV
Transition at: (s=0, k=1, n=35, [0.25, 0.25, 0.00])

Forces in eV/Ang:
  0 Li    0.00077    0.00099    0.10333
  1 Li   -0.00130   -0.00081    0.09913
  2 Li    0.00748   -0.01332   -0.08643
  3 Li   -0.00355    0.00713   -0.07307
  4 Li   -0.00688   -0.01975   -0.00969
  5 Li    0.01996    0.00368    0.00370
  6 Li    0.07476   -0.07197   -0.08347
  7 Li   -0.09219    0.07925   -0.22637
  8 Li    0.00122   -0.00314    0.10282
  9 Li   -0.00001   -0.00383    0.08869
 10 Li    0.00607    0.03503   -0.10175
 11 Li    0.00339    0.04111   -0.07986
 12 Li   -0.00321    0.01919   -0.02054
 13 Li   -0.01042    0.00080   -0.02275
 14 Li    0.00376    0.00684   -0.02648
 15 Li    0.01598   -0.00329   -0.01245
 16 Li   -0.00026    0.00229    0.08344
 17 Li   -0.00167    0.00456    0.09754
 18 Li   -0.00690   -0.01593   -0.02533
 19 Li   -0.00195   -0.05441   -0.12062
 20 Li    0.00598   -0.00167   -0.03156
 21 Li   -0.00188   -0.00283   -0.01251
 22 Li   -0.01414   -0.01070   -0.00876
 23 Li   -0.00447    0.01920   -0.00993
 24 Li    0.00258    0.00060    0.08654
 25 Li    0.00324    0.00033    0.08820
 26 Li   -0.00113    0.00157   -0.06746
 27 Li    0.00237    0.00533   -0.08013
 28 Li   -0.00186    0.00611    0.01561
 29 Li    0.00009   -0.00467   -0.01661
 30 Li    0.01582   -0.00129   -0.01860
 31 Li    0.01295    0.02658   -0.00665
 32 Li    0.00320   -0.00155    0.08731
 33 Li    0.00333    0.00113    0.09063
 34 Li    0.00077   -0.00304   -0.06310
 35 Li    0.00002   -0.00419   -0.02903
 36 Li   -0.00187   -0.00740   -0.01219
 37 Li    0.00185    0.00138   -0.00909
 38 Li    0.00303    0.00539   -0.00992
 39 Li   -0.00132    0.00576   -0.00313
 40 Li    0.00660    0.00073    0.09276
 41 Li    0.00280   -0.00099    0.08714
 42 Li    0.00011    0.00152   -0.05896
 43 Li    0.00422   -0.00232   -0.06891
 44 Li   -0.00382   -0.00172    0.00586
 45 Li    0.00270    0.00261   -0.01211
 46 Li    0.00248   -0.00429   -0.01104
 47 Li    0.02566   -0.02971   -0.03266
 48 Li   -0.00473   -0.00023    0.08623
 49 Li   -0.00008   -0.00069    0.09013
 50 Li   -0.00730   -0.01137   -0.08476
 51 Li    0.00240   -0.00113   -0.06926
 52 Li   -0.00224    0.00876   -0.01303
 53 Li   -0.00867   -0.00118    0.02062
 54 Li    0.01856   -0.02849    0.00698
 55 Li   -0.02959   -0.00003   -0.02659
 56 Li   -0.00460    0.00053    0.08557
 57 Li   -0.00379   -0.00222    0.09195
 58 Li   -0.00761    0.01018   -0.08017
 59 Li   -0.00101   -0.00287   -0.05737
 60 Li   -0.00475   -0.00819   -0.01053
 61 Li    0.00996   -0.00007    0.00236
 62 Li   -0.00492    0.02262   -0.01498
 63 Li   -0.00335    0.00702   -0.01130
 64 Li   -0.00588   -0.00073    0.09253
 65 Li   -0.00139    0.00304    0.08997
 66 Li    0.00371    0.00255   -0.00322
 67 Li   -0.00107    0.00375   -0.05982
 68 Li   -0.00241    0.00003   -0.00247
 69 Li    0.00828    0.00480   -0.01309
 70 Li    0.00769   -0.00193    0.00352
 71 Li   -0.00467   -0.00709   -0.01067
 72 Li   -0.02683   -0.01337    0.21111

System changes: positions 

Initializing position-dependent things.

Density initialized from wave functions
       .-----------------------------------.  
      /|                                   |  
     / |                                   |  
    /  |                                   |  
   /   |                                   |  
  /    |                                   |  
 *     |                                   |  
 |     |                                   |  
 |     |                                   |  
 |     |                                   |  
 |     |                                   |  
 |     |                                   |  
 |     |                                   |  
 |    Li          Li                       |  
 |     |                      Li           |  
 |  Li |   Li          Li          Li      |  
 |  Li Li       Li          Li      Li     |  
 |     | Li Li   Li  Li Li       Li      Li|  
 |Li   |  Li  Li          Li LiLi Li       |  
 |     Li          Li Li                   |  
 |    Li       Li Li       Li Li       Li  |  
 |     |Li Li       Li Li       Li Li      |  
 |  Li |     Li Li       Li Li             |  
 |     | Li Li       Li Li       Li Li     |  
 |Li Li|      Li Li       Li Li            |  
 |     Li Li       Li Li       Li Li       |  
 | Li  |       Li          Li              |  
 |     |Li          Li          Li         |  
 Li    |     Li          Li                |  
 |     |                                   |  
 |     |                                   |  
 |     |                                   |  
 |     |                                   |  
 |     |                                   |  
 |     .-----------------------------------.  
 |    /                                   /   
 |   /                                   /    
 |  /                                   /     
 | /                                   /      
 |/                                   /       
 *-----------------------------------*        

Atomic positions and initial magnetic moments

Positions:
   0 Li     0.000000    0.000000   10.000000    ( 0.0000,  0.0000,  0.0000)
   1 Li     2.467803    1.745000   10.000000    ( 0.0000,  0.0000,  0.0000)
   2 Li     2.467803    0.000000   12.467803    ( 0.0000,  0.0000,  0.0000)
   3 Li     0.000000    1.745000   12.467803    ( 0.0000,  0.0000,  0.0000)
   4 Li     0.008249   -0.062042   14.773047    ( 0.0000,  0.0000,  0.0000)
   5 Li     2.451975    1.775693   14.816991    ( 0.0000,  0.0000,  0.0000)
   6 Li     2.389926    0.092786   17.183825    ( 0.0000,  0.0000,  0.0000)
   7 Li     0.032441    1.703379   16.931306    ( 0.0000,  0.0000,  0.0000)
   8 Li     0.000000    3.490000   10.000000    ( 0.0000,  0.0000,  0.0000)
   9 Li     2.467803    5.235000   10.000000    ( 0.0000,  0.0000,  0.0000)
  10 Li     2.467803    3.490000   12.467803    ( 0.0000,  0.0000,  0.0000)
  11 Li     0.000000    5.235000   12.467803    ( 0.0000,  0.0000,  0.0000)
  12 Li    -0.006524    3.530909   14.808670    ( 0.0000,  0.0000,  0.0000)
  13 Li     2.478896    5.193807   14.974523    ( 0.0000,  0.0000,  0.0000)
  14 Li     2.381590    3.341623   17.392891    ( 0.0000,  0.0000,  0.0000)
  15 Li     0.025611    5.138747   17.301926    ( 0.0000,  0.0000,  0.0000)
  16 Li     0.000000    6.980000   10.000000    ( 0.0000,  0.0000,  0.0000)
  17 Li     2.467803    8.725000   10.000000    ( 0.0000,  0.0000,  0.0000)
  18 Li     2.467803    6.980000   12.467803    ( 0.0000,  0.0000,  0.0000)
  19 Li     0.000000    8.725000   12.467803    ( 0.0000,  0.0000,  0.0000)
  20 Li    -0.005516    7.000560   14.981447    ( 0.0000,  0.0000,  0.0000)
  21 Li     2.479812    8.735924   14.887889    ( 0.0000,  0.0000,  0.0000)
  22 Li     2.418868    7.027083   17.281447    ( 0.0000,  0.0000,  0.0000)
  23 Li     0.043085    8.873767   17.359228    ( 0.0000,  0.0000,  0.0000)
  24 Li     4.935605    0.000000   10.000000    ( 0.0000,  0.0000,  0.0000)
  25 Li     7.403408    1.745000   10.000000    ( 0.0000,  0.0000,  0.0000)
  26 Li     7.403408    0.000000   12.467803    ( 0.0000,  0.0000,  0.0000)
  27 Li     4.935605    1.745000   12.467803    ( 0.0000,  0.0000,  0.0000)
  28 Li     4.929377    0.008527   14.884308    ( 0.0000,  0.0000,  0.0000)
  29 Li     7.404920    1.740519   14.896460    ( 0.0000,  0.0000,  0.0000)
  30 Li     7.384928    0.005929   17.237312    ( 0.0000,  0.0000,  0.0000)
  31 Li     4.852977    1.696887   17.316722    ( 0.0000,  0.0000,  0.0000)
  32 Li     4.935605    3.490000   10.000000    ( 0.0000,  0.0000,  0.0000)
  33 Li     7.403408    5.235000   10.000000    ( 0.0000,  0.0000,  0.0000)
  34 Li     7.403408    3.490000   12.467803    ( 0.0000,  0.0000,  0.0000)
  35 Li     4.935605    5.235000   12.467803    ( 0.0000,  0.0000,  0.0000)
  36 Li     4.944588    3.460428   14.917885    ( 0.0000,  0.0000,  0.0000)
  37 Li     7.400992    5.232326   14.894887    ( 0.0000,  0.0000,  0.0000)
  38 Li     7.377375    3.469580   17.233006    ( 0.0000,  0.0000,  0.0000)
  39 Li     4.859292    5.206108   17.249672    ( 0.0000,  0.0000,  0.0000)
  40 Li     4.935605    6.980000   10.000000    ( 0.0000,  0.0000,  0.0000)
  41 Li     7.403408    8.725000   10.000000    ( 0.0000,  0.0000,  0.0000)
  42 Li     7.403408    6.980000   12.467803    ( 0.0000,  0.0000,  0.0000)
  43 Li     4.935605    8.725000   12.467803    ( 0.0000,  0.0000,  0.0000)
  44 Li     4.936075    7.000682   14.924033    ( 0.0000,  0.0000,  0.0000)
  45 Li     7.405210    8.732082   14.892500    ( 0.0000,  0.0000,  0.0000)
  46 Li     7.377288    6.994462   17.234721    ( 0.0000,  0.0000,  0.0000)
  47 Li     4.842157    8.802446   17.303613    ( 0.0000,  0.0000,  0.0000)
  48 Li     9.871211    0.000000   10.000000    ( 0.0000,  0.0000,  0.0000)
  49 Li    12.339013    1.745000   10.000000    ( 0.0000,  0.0000,  0.0000)
  50 Li    12.339013    0.000000   12.467803    ( 0.0000,  0.0000,  0.0000)
  51 Li     9.871211    1.745000   12.467803    ( 0.0000,  0.0000,  0.0000)
  52 Li     9.867951    0.008873   14.894856    ( 0.0000,  0.0000,  0.0000)
  53 Li    12.354682    1.740941   14.873605    ( 0.0000,  0.0000,  0.0000)
  54 Li    12.448201    0.098023   17.374836    ( 0.0000,  0.0000,  0.0000)
  55 Li     9.908069    1.741958   17.246723    ( 0.0000,  0.0000,  0.0000)
  56 Li     9.871211    3.490000   10.000000    ( 0.0000,  0.0000,  0.0000)
  57 Li    12.339013    5.235000   10.000000    ( 0.0000,  0.0000,  0.0000)
  58 Li    12.339013    3.490000   12.467803    ( 0.0000,  0.0000,  0.0000)
  59 Li     9.871211    5.235000   12.467803    ( 0.0000,  0.0000,  0.0000)
  60 Li     9.867695    3.479771   14.892876    ( 0.0000,  0.0000,  0.0000)
  61 Li    12.330528    5.193662   14.946229    ( 0.0000,  0.0000,  0.0000)
  62 Li    12.451911    3.376288   17.367293    ( 0.0000,  0.0000,  0.0000)
  63 Li     9.923162    5.206180   17.238881    ( 0.0000,  0.0000,  0.0000)
  64 Li     9.871211    6.980000   10.000000    ( 0.0000,  0.0000,  0.0000)
  65 Li    12.339013    8.725000   10.000000    ( 0.0000,  0.0000,  0.0000)
  66 Li    12.339013    6.980000   12.467803    ( 0.0000,  0.0000,  0.0000)
  67 Li     9.871211    8.725000   12.467803    ( 0.0000,  0.0000,  0.0000)
  68 Li     9.876166    6.981420   14.897847    ( 0.0000,  0.0000,  0.0000)
  69 Li    12.326169    8.770851   14.942436    ( 0.0000,  0.0000,  0.0000)
  70 Li    12.413559    6.994625   17.255935    ( 0.0000,  0.0000,  0.0000)
  71 Li     9.922976    8.756865   17.238033    ( 0.0000,  0.0000,  0.0000)
  72 Li     0.824099    1.158932   19.348252    ( 0.0000,  0.0000,  0.0000)

Unit cell:
           periodic     x           y           z      points  spacing
  1. axis:    yes   14.806816    0.000000    0.000000    49     0.3022
  2. axis:    yes    0.000000   10.470000    0.000000    35     0.2991
  3. axis:    no     0.000000    0.000000   27.403408    90     0.3045

  Lengths:  14.806816  10.470000  27.403408
  Angles:   90.000000  90.000000  90.000000

Effective grid spacing dv^(1/3) = 0.3019

     iter     time        total  log10-change:
                         energy   eigst   dens
iter:   1 04:11:49  -128.553802   -3.53
iter:   2 04:11:51  -128.545621   -3.80  -2.02
iter:   3 04:11:55  -128.543954c  -4.89  -2.22
iter:   4 04:11:58  -128.544449c  -4.59  -2.63
iter:   5 04:12:01  -128.543949c  -5.38c -2.90
iter:   6 04:12:03  -128.543829c  -5.71c -3.01
iter:   7 04:12:07  -128.543969c  -6.05c -3.37
iter:   8 04:12:10  -128.543965c  -6.62c -3.49
iter:   9 04:12:12  -128.543855c  -6.60c -3.63
iter:  10 04:12:15  -128.543887c  -7.21c -3.79
iter:  11 04:12:18  -128.543911c  -6.89c -3.93
iter:  12 04:12:21  -128.543869c  -7.14c -3.99
iter:  13 04:12:24  -128.543890c  -7.38c -4.12c

Converged after 13 iterations.

Dipole moment: (-5.873335, -3.552604, 0.364530) |e|*Ang

Energy contributions relative to reference atoms: (reference = -14803.510878)

Kinetic:       +114.446570
Potential:     -100.134595
External:        +0.000000
XC:            -141.676272
Entropy (-ST):   -1.393359
Local:           -0.482913
SIC:             +0.000000
--------------------------
Free energy:   -129.240570
Extrapolated:  -128.543890

Showing all kpts
 Kpt  Band  Eigenvalues  Occupancy
  0    34     -1.93770    1.51976
  0    35     -1.89106    1.32994
  0    36     -1.81786    0.97681
  0    37     -1.75442    0.67217

  1    34     -1.93588    1.51306
  1    35     -1.89110    1.33013
  1    36     -1.81810    0.97799
  1    37     -1.75429    0.67159


Fermi level: -1.82250

Gap: 0.073 eV
Transition (v -> c):
  (s=0, k=0, n=35, [0.25, -0.25, 0.00]) -> (s=0, k=1, n=36, [0.25, 0.25, 0.00])
Direct/indirect transitions are different
Direct gap: 0.073 eV
Transition at: (s=0, k=1, n=35, [0.25, 0.25, 0.00])

Forces in eV/Ang:
  0 Li    0.00083    0.00078    0.10334
  1 Li   -0.00134   -0.00071    0.09910
  2 Li    0.00743   -0.01328   -0.08616
  3 Li   -0.00357    0.00714   -0.07200
  4 Li   -0.00608   -0.02119   -0.01327
  5 Li    0.01891    0.00380    0.00135
  6 Li    0.06378   -0.06357   -0.07474
  7 Li   -0.07620    0.06854   -0.19046
  8 Li    0.00133   -0.00297    0.10282
  9 Li   -0.00009   -0.00385    0.08852
 10 Li    0.00596    0.03497   -0.10197
 11 Li    0.00343    0.04128   -0.08057
 12 Li   -0.00293    0.02301   -0.02550
 13 Li   -0.00998    0.00041   -0.02202
 14 Li    0.00220    0.00502   -0.02618
 15 Li    0.01493   -0.00216   -0.01349
 16 Li   -0.00023    0.00234    0.08316
 17 Li   -0.00185    0.00447    0.09749
 18 Li   -0.00696   -0.01601   -0.02573
 19 Li   -0.00193   -0.05452   -0.12144
 20 Li    0.00584   -0.00114   -0.02995
 21 Li   -0.00171   -0.00456   -0.01400
 22 Li   -0.01343   -0.01010   -0.00929
 23 Li   -0.00306    0.01786   -0.01084
 24 Li    0.00250    0.00061    0.08637
 25 Li    0.00320    0.00039    0.08817
 26 Li   -0.00129    0.00157   -0.06768
 27 Li    0.00246    0.00514   -0.08006
 28 Li   -0.00131    0.00585    0.01432
 29 Li   -0.00011   -0.00433   -0.01615
 30 Li    0.01451   -0.00142   -0.01839
 31 Li    0.01421    0.02556   -0.00660
 32 Li    0.00308   -0.00146    0.08723
 33 Li    0.00337    0.00124    0.09060
 34 Li    0.00062   -0.00296   -0.06327
 35 Li   -0.00007   -0.00410   -0.02883
 36 Li   -0.00155   -0.00648   -0.01176
 37 Li    0.00139    0.00129   -0.00895
 38 Li    0.00289    0.00563   -0.01022
 39 Li   -0.00127    0.00551   -0.00335
 40 Li    0.00657    0.00064    0.09269
 41 Li    0.00285   -0.00118    0.08706
 42 Li    0.00016    0.00145   -0.05922
 43 Li    0.00417   -0.00220   -0.06827
 44 Li   -0.00370   -0.00195    0.00479
 45 Li    0.00242    0.00237   -0.01186
 46 Li    0.00246   -0.00435   -0.01110
 47 Li    0.02627   -0.02992   -0.03159
 48 Li   -0.00469   -0.00032    0.08607
 49 Li   -0.00002   -0.00070    0.08999
 50 Li   -0.00722   -0.01110   -0.08452
 51 Li    0.00246   -0.00111   -0.06946
 52 Li   -0.00201    0.00791   -0.01303
 53 Li   -0.00969   -0.00132    0.01808
 54 Li    0.01561   -0.02671    0.00655
 55 Li   -0.02716   -0.00009   -0.02579
 56 Li   -0.00463    0.00069    0.08544
 57 Li   -0.00369   -0.00212    0.09188
 58 Li   -0.00751    0.00998   -0.07957
 59 Li   -0.00100   -0.00279   -0.05738
 60 Li   -0.00447   -0.00732   -0.01058
 61 Li    0.00951   -0.00029    0.00213
 62 Li   -0.00739    0.02302   -0.01452
 63 Li   -0.00308    0.00682   -0.01128
 64 Li   -0.00592   -0.00078    0.09251
 65 Li   -0.00124    0.00292    0.08996
 66 Li    0.00382    0.00245   -0.00318
 67 Li   -0.00093    0.00365   -0.05981
 68 Li   -0.00184   -0.00001   -0.00286
 69 Li    0.00776    0.00445   -0.01217
 70 Li    0.00778   -0.00175    0.00313
 71 Li   -0.00414   -0.00694   -0.01074
 72 Li   -0.02943   -0.01097    0.17730

System changes: positions 

Initializing position-dependent things.

Density initialized from wave functions
       .-----------------------------------.  
      /|                                   |  
     / |                                   |  
    /  |                                   |  
   /   |                                   |  
  /    |                                   |  
 *     |                                   |  
 |     |                                   |  
 |     |                                   |  
 |     |                                   |  
 |     |                                   |  
 |     |                                   |  
 |     |                                   |  
 |    Li          Li                       |  
 |     |                      Li           |  
 |  Li |   Li          Li          Li      |  
 |  Li Li       Li          Li      Li     |  
 |     | Li Li   Li  Li Li       Li      Li|  
 |Li   |  Li  Li          Li LiLi Li       |  
 |     Li          Li Li                   |  
 |    Li       Li Li       Li Li       Li  |  
 |     |Li Li       Li Li       Li Li      |  
 |  Li |     Li Li       Li Li             |  
 |     | Li Li       Li Li       Li Li     |  
 |Li Li|      Li Li       Li Li            |  
 |     Li Li       Li Li       Li Li       |  
 | Li  |       Li          Li              |  
 |     |Li          Li          Li         |  
 Li    |     Li          Li                |  
 |     |                                   |  
 |     |                                   |  
 |     |                                   |  
 |     |                                   |  
 |     |                                   |  
 |     .-----------------------------------.  
 |    /                                   /   
 |   /                                   /    
 |  /                                   /     
 | /                                   /      
 |/                                   /       
 *-----------------------------------*        

Atomic positions and initial magnetic moments

Positions:
   0 Li     0.000000    0.000000   10.000000    ( 0.0000,  0.0000,  0.0000)
   1 Li     2.467803    1.745000   10.000000    ( 0.0000,  0.0000,  0.0000)
   2 Li     2.467803    0.000000   12.467803    ( 0.0000,  0.0000,  0.0000)
   3 Li     0.000000    1.745000   12.467803    ( 0.0000,  0.0000,  0.0000)
   4 Li     0.007897   -0.062971   14.772680    ( 0.0000,  0.0000,  0.0000)
   5 Li     2.453048    1.775955   14.817101    ( 0.0000,  0.0000,  0.0000)
   6 Li     2.394098    0.088791   17.178766    ( 0.0000,  0.0000,  0.0000)
   7 Li     0.027497    1.707542   16.919556    ( 0.0000,  0.0000,  0.0000)
   8 Li     0.000000    3.490000   10.000000    ( 0.0000,  0.0000,  0.0000)
   9 Li     2.467803    5.235000   10.000000    ( 0.0000,  0.0000,  0.0000)
  10 Li     2.467803    3.490000   12.467803    ( 0.0000,  0.0000,  0.0000)
  11 Li     0.000000    5.235000   12.467803    ( 0.0000,  0.0000,  0.0000)
  12 Li    -0.006714    3.531734   14.807841    ( 0.0000,  0.0000,  0.0000)
  13 Li     2.478332    5.193913   14.973342    ( 0.0000,  0.0000,  0.0000)
  14 Li     2.381916    3.342027   17.391410    ( 0.0000,  0.0000,  0.0000)
  15 Li     0.026505    5.138684   17.301225    ( 0.0000,  0.0000,  0.0000)
  16 Li     0.000000    6.980000   10.000000    ( 0.0000,  0.0000,  0.0000)
  17 Li     2.467803    8.725000   10.000000    ( 0.0000,  0.0000,  0.0000)
  18 Li     2.467803    6.980000   12.467803    ( 0.0000,  0.0000,  0.0000)
  19 Li     0.000000    8.725000   12.467803    ( 0.0000,  0.0000,  0.0000)
  20 Li    -0.005214    7.000503   14.979768    ( 0.0000,  0.0000,  0.0000)
  21 Li     2.479702    8.735676   14.887065    ( 0.0000,  0.0000,  0.0000)
  22 Li     2.418187    7.026625   17.281025    ( 0.0000,  0.0000,  0.0000)
  23 Li     0.042930    8.874768   17.358786    ( 0.0000,  0.0000,  0.0000)
  24 Li     4.935605    0.000000   10.000000    ( 0.0000,  0.0000,  0.0000)
  25 Li     7.403408    1.745000   10.000000    ( 0.0000,  0.0000,  0.0000)
  26 Li     7.403408    0.000000   12.467803    ( 0.0000,  0.0000,  0.0000)
  27 Li     4.935605    1.745000   12.467803    ( 0.0000,  0.0000,  0.0000)
  28 Li     4.929260    0.008838   14.885104    ( 0.0000,  0.0000,  0.0000)
  29 Li     7.404921    1.740261   14.895584    ( 0.0000,  0.0000,  0.0000)
  30 Li     7.385717    0.005853   17.236361    ( 0.0000,  0.0000,  0.0000)
  31 Li     4.853586    1.698163   17.316493    ( 0.0000,  0.0000,  0.0000)
  32 Li     4.935605    3.490000   10.000000    ( 0.0000,  0.0000,  0.0000)
  33 Li     7.403408    5.235000   10.000000    ( 0.0000,  0.0000,  0.0000)
  34 Li     7.403408    3.490000   12.467803    ( 0.0000,  0.0000,  0.0000)
  35 Li     4.935605    5.235000   12.467803    ( 0.0000,  0.0000,  0.0000)
  36 Li     4.944505    3.459991   14.917298    ( 0.0000,  0.0000,  0.0000)
  37 Li     7.401086    5.232396   14.894416    ( 0.0000,  0.0000,  0.0000)
  38 Li     7.377470    3.469832   17.232500    ( 0.0000,  0.0000,  0.0000)
  39 Li     4.859236    5.206458   17.249516    ( 0.0000,  0.0000,  0.0000)
  40 Li     4.935605    6.980000   10.000000    ( 0.0000,  0.0000,  0.0000)
  41 Li     7.403408    8.725000   10.000000    ( 0.0000,  0.0000,  0.0000)
  42 Li     7.403408    6.980000   12.467803    ( 0.0000,  0.0000,  0.0000)
  43 Li     4.935605    8.725000   12.467803    ( 0.0000,  0.0000,  0.0000)
  44 Li     4.935889    7.000644   14.924409    ( 0.0000,  0.0000,  0.0000)
  45 Li     7.405351    8.732232   14.891867    ( 0.0000,  0.0000,  0.0000)
  46 Li     7.377348    6.994275   17.234161    ( 0.0000,  0.0000,  0.0000)
  47 Li     4.843453    8.800979   17.302039    ( 0.0000,  0.0000,  0.0000)
  48 Li     9.871211    0.000000   10.000000    ( 0.0000,  0.0000,  0.0000)
  49 Li    12.339013    1.745000   10.000000    ( 0.0000,  0.0000,  0.0000)
  50 Li    12.339013    0.000000   12.467803    ( 0.0000,  0.0000,  0.0000)
  51 Li     9.871211    1.745000   12.467803    ( 0.0000,  0.0000,  0.0000)
  52 Li     9.867840    0.009333   14.894181    ( 0.0000,  0.0000,  0.0000)
  53 Li    12.354218    1.740875   14.874731    ( 0.0000,  0.0000,  0.0000)
  54 Li    12.449140    0.096404   17.375051    ( 0.0000,  0.0000,  0.0000)
  55 Li     9.906454    1.741953   17.245301    ( 0.0000,  0.0000,  0.0000)
  56 Li     9.871211    3.490000   10.000000    ( 0.0000,  0.0000,  0.0000)
  57 Li    12.339013    5.235000   10.000000    ( 0.0000,  0.0000,  0.0000)
  58 Li    12.339013    3.490000   12.467803    ( 0.0000,  0.0000,  0.0000)
  59 Li     9.871211    5.235000   12.467803    ( 0.0000,  0.0000,  0.0000)
  60 Li     9.867453    3.479338   14.892327    ( 0.0000,  0.0000,  0.0000)
  61 Li    12.331077    5.193713   14.946302    ( 0.0000,  0.0000,  0.0000)
  62 Li    12.451639    3.377548   17.366344    ( 0.0000,  0.0000,  0.0000)
  63 Li     9.922926    5.206582   17.238280    ( 0.0000,  0.0000,  0.0000)
  64 Li     9.871211    6.980000   10.000000    ( 0.0000,  0.0000,  0.0000)
  65 Li    12.339013    8.725000   10.000000    ( 0.0000,  0.0000,  0.0000)
  66 Li    12.339013    6.980000   12.467803    ( 0.0000,  0.0000,  0.0000)
  67 Li     9.871211    8.725000   12.467803    ( 0.0000,  0.0000,  0.0000)
  68 Li     9.876029    6.981426   14.897716    ( 0.0000,  0.0000,  0.0000)
  69 Li    12.326613    8.771065   14.941679    ( 0.0000,  0.0000,  0.0000)
  70 Li    12.413957    6.994545   17.256092    ( 0.0000,  0.0000,  0.0000)
  71 Li     9.922662    8.756466   17.237463    ( 0.0000,  0.0000,  0.0000)
  72 Li     0.824650    1.156859   19.359772    ( 0.0000,  0.0000,  0.0000)

Unit cell:
           periodic     x           y           z      points  spacing
  1. axis:    yes   14.806816    0.000000    0.000000    49     0.3022
  2. axis:    yes    0.000000   10.470000    0.000000    35     0.2991
  3. axis:    no     0.000000    0.000000   27.403408    90     0.3045

  Lengths:  14.806816  10.470000  27.403408
  Angles:   90.000000  90.000000  90.000000

Effective grid spacing dv^(1/3) = 0.3019

     iter     time        total  log10-change:
                         energy   eigst   dens
iter:   1 04:15:22  -128.563236   -3.41
iter:   2 04:15:25  -128.552458   -3.69  -1.97
iter:   3 04:15:28  -128.550143c  -4.77  -2.17
iter:   4 04:15:31  -128.550636c  -4.47  -2.58
iter:   5 04:15:34  -128.550067c  -5.28  -2.84
iter:   6 04:15:37  -128.549916c  -5.60c -2.97
iter:   7 04:15:40  -128.550080c  -5.92c -3.30
iter:   8 04:15:43  -128.550064c  -6.55c -3.41
iter:   9 04:15:46  -128.549937c  -6.53c -3.57
iter:  10 04:15:49  -128.549977c  -7.20c -3.71
iter:  11 04:15:52  -128.550007c  -6.87c -3.86
iter:  12 04:15:55  -128.549959c  -7.21c -3.92
iter:  13 04:15:58  -128.549974c  -7.54c -4.05c

Converged after 13 iterations.

Dipole moment: (-5.783765, -3.479012, 0.370152) |e|*Ang

Energy contributions relative to reference atoms: (reference = -14803.510878)

Kinetic:       +114.396019
Potential:     -100.102153
External:        +0.000000
XC:            -141.664364
Entropy (-ST):   -1.393332
Local:           -0.482810
SIC:             +0.000000
--------------------------
Free energy:   -129.246640
Extrapolated:  -128.549974

Showing all kpts
 Kpt  Band  Eigenvalues  Occupancy
  0    34     -1.93660    1.51964
  0    35     -1.88990    1.32959
  0    36     -1.81665    0.97608
  0    37     -1.75335    0.67215

  1    34     -1.93474    1.51281
  1    35     -1.88988    1.32949
  1    36     -1.81688    0.97725
  1    37     -1.75325    0.67174


Fermi level: -1.82143

Gap: 0.073 eV
Transition (v -> c):
  (s=0, k=1, n=35, [0.25, 0.25, 0.00]) -> (s=0, k=1, n=36, [0.25, 0.25, 0.00])
No difference between direct/indirect transitions

Forces in eV/Ang:
  0 Li    0.00085    0.00074    0.10344
  1 Li   -0.00134   -0.00069    0.09915
  2 Li    0.00747   -0.01323   -0.08596
  3 Li   -0.00361    0.00709   -0.07084
  4 Li   -0.00495   -0.02271   -0.01691
  5 Li    0.01745    0.00387   -0.00104
  6 Li    0.05085   -0.05342   -0.06375
  7 Li   -0.05782    0.05605   -0.14911
  8 Li    0.00133   -0.00298    0.10302
  9 Li   -0.00011   -0.00391    0.08861
 10 Li    0.00599    0.03498   -0.10243
 11 Li    0.00344    0.04177   -0.08175
 12 Li   -0.00247    0.02730   -0.03083
 13 Li   -0.00925   -0.00030   -0.02094
 14 Li    0.00040    0.00250   -0.02528
 15 Li    0.01367   -0.00120   -0.01434
 16 Li   -0.00024    0.00238    0.08310
 17 Li   -0.00188    0.00451    0.09771
 18 Li   -0.00696   -0.01620   -0.02631
 19 Li   -0.00195   -0.05487   -0.12257
 20 Li    0.00552   -0.00026   -0.02793
 21 Li   -0.00146   -0.00653   -0.01554
 22 Li   -0.01257   -0.00910   -0.00957
 23 Li   -0.00136    0.01659   -0.01140
 24 Li    0.00248    0.00065    0.08635
 25 Li    0.00322    0.00037    0.08816
 26 Li   -0.00136    0.00155   -0.06818
 27 Li    0.00262    0.00490   -0.08027
 28 Li   -0.00095    0.00554    0.01294
 29 Li   -0.00004   -0.00385   -0.01544
 30 Li    0.01301   -0.00152   -0.01810
 31 Li    0.01528    0.02428   -0.00618
 32 Li    0.00303   -0.00149    0.08730
 33 Li    0.00340    0.00125    0.09063
 34 Li    0.00052   -0.00293   -0.06359
 35 Li   -0.00019   -0.00390   -0.02867
 36 Li   -0.00135   -0.00533   -0.01098
 37 Li    0.00098    0.00129   -0.00870
 38 Li    0.00280    0.00594   -0.01056
 39 Li   -0.00144    0.00475   -0.00345
 40 Li    0.00665    0.00068    0.09281
 41 Li    0.00289   -0.00121    0.08709
 42 Li    0.00017    0.00144   -0.05954
 43 Li    0.00423   -0.00211   -0.06776
 44 Li   -0.00343   -0.00221    0.00328
 45 Li    0.00230    0.00192   -0.01145
 46 Li    0.00279   -0.00450   -0.01128
 47 Li    0.02644   -0.02976   -0.03006
 48 Li   -0.00468   -0.00029    0.08603
 49 Li   -0.00006   -0.00071    0.08999
[...]
 11 Li    0.00346    0.04232   -0.08330
 12 Li   -0.00202    0.03164   -0.03649
 13 Li   -0.00840   -0.00093   -0.01970
 14 Li   -0.00143   -0.00004   -0.02442
 15 Li    0.01212   -0.00004   -0.01534
 16 Li   -0.00024    0.00243    0.08285
 17 Li   -0.00198    0.00447    0.09773
 18 Li   -0.00699   -0.01640   -0.02717
 19 Li   -0.00196   -0.05522   -0.12403
 20 Li    0.00518    0.00059   -0.02550
 21 Li   -0.00112   -0.00868   -0.01725
 22 Li   -0.01148   -0.00804   -0.00997
 23 Li    0.00046    0.01499   -0.01212
 24 Li    0.00241    0.00066    0.08618
 25 Li    0.00323    0.00040    0.08814
 26 Li   -0.00140    0.00151   -0.06873
 27 Li    0.00282    0.00465   -0.08036
 28 Li   -0.00038    0.00519    0.01130
 29 Li   -0.00018   -0.00327   -0.01470
 30 Li    0.01114   -0.00166   -0.01769
 31 Li    0.01646    0.02268   -0.00585
 32 Li    0.00293   -0.00144    0.08728
 33 Li    0.00344    0.00131    0.09067
 34 Li    0.00043   -0.00281   -0.06394
 35 Li   -0.00021   -0.00373   -0.02859
 36 Li   -0.00095   -0.00408   -0.01015
 37 Li    0.00052    0.00121   -0.00854
 38 Li    0.00257    0.00629   -0.01091
 39 Li   -0.00155    0.00406   -0.00354
 40 Li    0.00668    0.00066    0.09281
 41 Li    0.00295   -0.00133    0.08711
 42 Li    0.00031    0.00137   -0.05994
 43 Li    0.00432   -0.00198   -0.06712
 44 Li   -0.00317   -0.00254    0.00164
 45 Li    0.00211    0.00147   -0.01108
 46 Li    0.00307   -0.00467   -0.01132
 47 Li    0.02662   -0.02954   -0.02828
 48 Li   -0.00465   -0.00031    0.08594
 49 Li   -0.00007   -0.00071    0.08980
 50 Li   -0.00733   -0.01053   -0.08446
 51 Li    0.00225   -0.00108   -0.07050
 52 Li   -0.00178    0.00548   -0.01282
 53 Li   -0.01171   -0.00173    0.01199
 54 Li    0.00853   -0.02176    0.00624
 55 Li   -0.02052   -0.00037   -0.02342
 56 Li   -0.00465    0.00077    0.08538
 57 Li   -0.00364   -0.00217    0.09206
 58 Li   -0.00770    0.00960   -0.07871
 59 Li   -0.00101   -0.00262   -0.05745
 60 Li   -0.00416   -0.00482   -0.01052
 61 Li    0.00782   -0.00072    0.00152
 62 Li   -0.01274    0.02311   -0.01249
 63 Li   -0.00261    0.00641   -0.01117
 64 Li   -0.00607   -0.00079    0.09258
 65 Li   -0.00107    0.00292    0.09023
 66 Li    0.00395    0.00213   -0.00315
 67 Li   -0.00074    0.00350   -0.05992
 68 Li   -0.00051   -0.00019   -0.00398
 69 Li    0.00623    0.00342   -0.00942
 70 Li    0.00797   -0.00063    0.00252
 71 Li   -0.00249   -0.00650   -0.01073
 72 Li   -0.03431   -0.00593    0.09699

System changes: positions 

Initializing position-dependent things.

Density initialized from wave functions
       .-----------------------------------.  
      /|                                   |  
     / |                                   |  
    /  |                                   |  
   /   |                                   |  
  /    |                                   |  
 *     |                                   |  
 |     |                                   |  
 |     |                                   |  
 |     |                                   |  
 |     |                                   |  
 |     |                                   |  
 |     |                                   |  
 |    Li          Li                       |  
 |     |                      Li           |  
 |  Li |   Li          Li          Li      |  
 |  Li Li       Li          Li      Li     |  
 |     | Li Li   Li  Li Li       Li      Li|  
 |Li   |  Li  Li          Li LiLi Li       |  
 |     Li          Li Li                   |  
 |    Li       Li Li       Li Li       Li  |  
 |     |Li Li       Li Li       Li Li      |  
 |  Li |     Li Li       Li Li             |  
 |     | Li Li       Li Li       Li Li     |  
 |Li Li|      Li Li       Li Li            |  
 |     Li Li       Li Li       Li Li       |  
 | Li  |       Li          Li              |  
 |     |Li          Li          Li         |  
 Li    |     Li          Li                |  
 |     |                                   |  
 |     |                                   |  
 |     |                                   |  
 |     |                                   |  
 |     |                                   |  
 |     .-----------------------------------.  
 |    /                                   /   
 |   /                                   /    
 |  /                                   /     
 | /                                   /      
 |/                                   /       
 *-----------------------------------*        

Atomic positions and initial magnetic moments

Positions:
   0 Li     0.000000    0.000000   10.000000    ( 0.0000,  0.0000,  0.0000)
   1 Li     2.467803    1.745000   10.000000    ( 0.0000,  0.0000,  0.0000)
   2 Li     2.467803    0.000000   12.467803    ( 0.0000,  0.0000,  0.0000)
   3 Li     0.000000    1.745000   12.467803    ( 0.0000,  0.0000,  0.0000)
   4 Li     0.007065   -0.065747   14.771152    ( 0.0000,  0.0000,  0.0000)
   5 Li     2.455800    1.776677   14.817091    ( 0.0000,  0.0000,  0.0000)
   6 Li     2.403804    0.079190   17.166388    ( 0.0000,  0.0000,  0.0000)
   7 Li     0.016394    1.717318   16.892824    ( 0.0000,  0.0000,  0.0000)
   8 Li     0.000000    3.490000   10.000000    ( 0.0000,  0.0000,  0.0000)
   9 Li     2.467803    5.235000   10.000000    ( 0.0000,  0.0000,  0.0000)
  10 Li     2.467803    3.490000   12.467803    ( 0.0000,  0.0000,  0.0000)
  11 Li     0.000000    5.235000   12.467803    ( 0.0000,  0.0000,  0.0000)
  12 Li    -0.007172    3.534601   14.804800    ( 0.0000,  0.0000,  0.0000)
  13 Li     2.476875    5.194108   14.970231    ( 0.0000,  0.0000,  0.0000)
  14 Li     2.382542    3.342796   17.387468    ( 0.0000,  0.0000,  0.0000)
  15 Li     0.028784    5.138637   17.299190    ( 0.0000,  0.0000,  0.0000)
  16 Li     0.000000    6.980000   10.000000    ( 0.0000,  0.0000,  0.0000)
  17 Li     2.467803    8.725000   10.000000    ( 0.0000,  0.0000,  0.0000)
  18 Li     2.467803    6.980000   12.467803    ( 0.0000,  0.0000,  0.0000)
  19 Li     0.000000    8.725000   12.467803    ( 0.0000,  0.0000,  0.0000)
  20 Li    -0.004417    7.000451   14.975428    ( 0.0000,  0.0000,  0.0000)
  21 Li     2.479431    8.734751   14.884626    ( 0.0000,  0.0000,  0.0000)
  22 Li     2.416414    7.025469   17.279817    ( 0.0000,  0.0000,  0.0000)
  23 Li     0.042715    8.877336   17.357465    ( 0.0000,  0.0000,  0.0000)
  24 Li     4.935605    0.000000   10.000000    ( 0.0000,  0.0000,  0.0000)
  25 Li     7.403408    1.745000   10.000000    ( 0.0000,  0.0000,  0.0000)
  26 Li     7.403408    0.000000   12.467803    ( 0.0000,  0.0000,  0.0000)
  27 Li     4.935605    1.745000   12.467803    ( 0.0000,  0.0000,  0.0000)
  28 Li     4.929002    0.009651   14.887112    ( 0.0000,  0.0000,  0.0000)
  29 Li     7.404922    1.739615   14.893264    ( 0.0000,  0.0000,  0.0000)
  30 Li     7.387696    0.005631   17.233784    ( 0.0000,  0.0000,  0.0000)
  31 Li     4.855416    1.701525   17.315894    ( 0.0000,  0.0000,  0.0000)
  32 Li     4.935605    3.490000   10.000000    ( 0.0000,  0.0000,  0.0000)
  33 Li     7.403408    5.235000   10.000000    ( 0.0000,  0.0000,  0.0000)
  34 Li     7.403408    3.490000   12.467803    ( 0.0000,  0.0000,  0.0000)
  35 Li     4.935605    5.235000   12.467803    ( 0.0000,  0.0000,  0.0000)
  36 Li     4.944304    3.458950   14.915768    ( 0.0000,  0.0000,  0.0000)
  37 Li     7.401285    5.232588   14.893151    ( 0.0000,  0.0000,  0.0000)
  38 Li     7.377728    3.470569   17.231068    ( 0.0000,  0.0000,  0.0000)
  39 Li     4.859064    5.207325   17.249075    ( 0.0000,  0.0000,  0.0000)
  40 Li     4.935605    6.980000   10.000000    ( 0.0000,  0.0000,  0.0000)
  41 Li     7.403408    8.725000   10.000000    ( 0.0000,  0.0000,  0.0000)
  42 Li     7.403408    6.980000   12.467803    ( 0.0000,  0.0000,  0.0000)
  43 Li     4.935605    8.725000   12.467803    ( 0.0000,  0.0000,  0.0000)
  44 Li     4.935405    7.000493   14.925237    ( 0.0000,  0.0000,  0.0000)
  45 Li     7.405718    8.732590   14.890175    ( 0.0000,  0.0000,  0.0000)
  46 Li     7.377557    6.993736   17.232602    ( 0.0000,  0.0000,  0.0000)
  47 Li     4.847060    8.796940   17.297889    ( 0.0000,  0.0000,  0.0000)
  48 Li     9.871211    0.000000   10.000000    ( 0.0000,  0.0000,  0.0000)
  49 Li    12.339013    1.745000   10.000000    ( 0.0000,  0.0000,  0.0000)
  50 Li    12.339013    0.000000   12.467803    ( 0.0000,  0.0000,  0.0000)
  51 Li     9.871211    1.745000   12.467803    ( 0.0000,  0.0000,  0.0000)
  52 Li     9.867550    0.010449   14.892335    ( 0.0000,  0.0000,  0.0000)
  53 Li    12.352813    1.740666   14.877432    ( 0.0000,  0.0000,  0.0000)
  54 Li    12.451274    0.092271   17.375651    ( 0.0000,  0.0000,  0.0000)
  55 Li     9.902433    1.741923   17.241545    ( 0.0000,  0.0000,  0.0000)
  56 Li     9.871211    3.490000   10.000000    ( 0.0000,  0.0000,  0.0000)
  57 Li    12.339013    5.235000   10.000000    ( 0.0000,  0.0000,  0.0000)
  58 Li    12.339013    3.490000   12.467803    ( 0.0000,  0.0000,  0.0000)
  59 Li     9.871211    5.235000   12.467803    ( 0.0000,  0.0000,  0.0000)
  60 Li     9.866812    3.478299   14.890819    ( 0.0000,  0.0000,  0.0000)
  61 Li    12.332481    5.193807   14.946478    ( 0.0000,  0.0000,  0.0000)
  62 Li    12.450533    3.381025   17.363883    ( 0.0000,  0.0000,  0.0000)
  63 Li     9.922322    5.207650   17.236638    ( 0.0000,  0.0000,  0.0000)
  64 Li     9.871211    6.980000   10.000000    ( 0.0000,  0.0000,  0.0000)
  65 Li    12.339013    8.725000   10.000000    ( 0.0000,  0.0000,  0.0000)
  66 Li    12.339013    6.980000   12.467803    ( 0.0000,  0.0000,  0.0000)
  67 Li     9.871211    8.725000   12.467803    ( 0.0000,  0.0000,  0.0000)
  68 Li     9.875739    6.981431   14.897291    ( 0.0000,  0.0000,  0.0000)
  69 Li    12.327746    8.771600   14.939781    ( 0.0000,  0.0000,  0.0000)
  70 Li    12.415066    6.994384   17.256494    ( 0.0000,  0.0000,  0.0000)
  71 Li     9.921911    8.755401   17.235897    ( 0.0000,  0.0000,  0.0000)
  72 Li     0.825446    1.151785   19.386092    ( 0.0000,  0.0000,  0.0000)

Unit cell:
           periodic     x           y           z      points  spacing
  1. axis:    yes   14.806816    0.000000    0.000000    49     0.3022
  2. axis:    yes    0.000000   10.470000    0.000000    35     0.2991
  3. axis:    no     0.000000    0.000000   27.403408    90     0.3045

  Lengths:  14.806816  10.470000  27.403408
  Angles:   90.000000  90.000000  90.000000

Effective grid spacing dv^(1/3) = 0.3019

     iter     time        total  log10-change:
                         energy   eigst   dens
iter:   1 04:23:17  -128.584684   -3.15
iter:   2 04:23:21  -128.564972   -3.42  -1.83
iter:   3 04:23:24  -128.560251c  -4.54  -2.04
iter:   4 04:23:27  -128.560682c  -4.24  -2.45
iter:   5 04:23:30  -128.559934c  -5.05  -2.75
iter:   6 04:23:34  -128.559688c  -5.41c -2.86
iter:   7 04:23:37  -128.559874c  -5.78c -3.21
iter:   8 04:23:41  -128.559905c  -6.29c -3.35
iter:   9 04:23:44  -128.559732c  -6.36c -3.46
iter:  10 04:23:48  -128.559783c  -7.05c -3.61
iter:  11 04:23:51  -128.559820c  -6.72c -3.77
iter:  12 04:23:54  -128.559751c  -7.10c -3.81
iter:  13 04:23:57  -128.559804c  -7.31c -3.96
iter:  14 04:24:00  -128.559774c  -7.52c -4.08c

Converged after 14 iterations.

Dipole moment: (-5.593274, -3.290657, 0.383288) |e|*Ang

Energy contributions relative to reference atoms: (reference = -14803.510878)

Kinetic:       +114.301214
Potential:     -100.039069
External:        +0.000000
XC:            -141.642489
Entropy (-ST):   -1.393195
Local:           -0.482833
SIC:             +0.000000
--------------------------
Free energy:   -129.256372
Extrapolated:  -128.559774

Showing all kpts
 Kpt  Band  Eigenvalues  Occupancy
  0    34     -1.93413    1.51920
  0    35     -1.88729    1.32843
  0    36     -1.81391    0.97415
  0    37     -1.75120    0.67306

  1    34     -1.93218    1.51204
  1    35     -1.88717    1.32789
  1    36     -1.81412    0.97523
  1    37     -1.75112    0.67272


Fermi level: -1.81908

Gap: 0.073 eV
Transition (v -> c):
  (s=0, k=1, n=35, [0.25, 0.25, 0.00]) -> (s=0, k=1, n=36, [0.25, 0.25, 0.00])
No difference between direct/indirect transitions

Forces in eV/Ang:
  0 Li    0.00091    0.00051    0.10343
  1 Li   -0.00134   -0.00058    0.09902
  2 Li    0.00750   -0.01313   -0.08550
  3 Li   -0.00368    0.00696   -0.06828
  4 Li   -0.00223   -0.02484   -0.02401
  5 Li    0.01350    0.00393   -0.00642
  6 Li    0.02345   -0.03091   -0.03902
  7 Li   -0.01953    0.02885   -0.06204
  8 Li    0.00138   -0.00287    0.10321
  9 Li   -0.00016   -0.00401    0.08848
 10 Li    0.00597    0.03497   -0.10368
 11 Li    0.00350    0.04320   -0.08532
 12 Li   -0.00145    0.03569   -0.04172
 13 Li   -0.00729   -0.00160   -0.01821
 14 Li   -0.00320   -0.00275   -0.02323
 15 Li    0.01036    0.00095   -0.01633
 16 Li   -0.00025    0.00248    0.08269
 17 Li   -0.00203    0.00449    0.09788
 18 Li   -0.00705   -0.01671   -0.02817
 19 Li   -0.00196   -0.05577   -0.12585
 20 Li    0.00471    0.00157   -0.02279
 21 Li   -0.00068   -0.01098   -0.01892
 22 Li   -0.01020   -0.00674   -0.01037
 23 Li    0.00239    0.01328   -0.01275
 24 Li    0.00237    0.00070    0.08605
 25 Li    0.00324    0.00039    0.08806
 26 Li   -0.00146    0.00147   -0.06947
 27 Li    0.00301    0.00433   -0.08063
 28 Li    0.00009    0.00472    0.00944
 29 Li   -0.00018   -0.00260   -0.01369
 30 Li    0.00917   -0.00181   -0.01721
 31 Li    0.01735    0.02078   -0.00533
 32 Li    0.00285   -0.00146    0.08730
 33 Li    0.00348    0.00134    0.09065
 34 Li    0.00033   -0.00273   -0.06444
 35 Li   -0.00033   -0.00349   -0.02851
 36 Li   -0.00063   -0.00259   -0.00912
 37 Li    0.00002    0.00119   -0.00823
 38 Li    0.00247    0.00668   -0.01128
 39 Li   -0.00180    0.00314   -0.00363
 40 Li    0.00674    0.00070    0.09286
 41 Li    0.00299   -0.00138    0.08709
 42 Li    0.00035    0.00132   -0.06044
 43 Li    0.00439   -0.00184   -0.06649
 44 Li   -0.00286   -0.00296   -0.00028
 45 Li    0.00192    0.00088   -0.01049
 46 Li    0.00353   -0.00490   -0.01140
 47 Li    0.02642   -0.02901   -0.02618
 48 Li   -0.00463   -0.00028    0.08583
 49 Li   -0.00011   -0.00072    0.08967
 50 Li   -0.00737   -0.01019   -0.08452
 51 Li    0.00212   -0.00106   -0.07125
 52 Li   -0.00168    0.00396   -0.01255
 53 Li   -0.01256   -0.00193    0.00848
 54 Li    0.00466   -0.01858    0.00613
 55 Li   -0.01657   -0.00053   -0.02192
 56 Li   -0.00465    0.00078    0.08532
 57 Li   -0.00361   -0.00224    0.09216
 58 Li   -0.00779    0.00940   -0.07826
 59 Li   -0.00098   -0.00252   -0.05759
 60 Li   -0.00397   -0.00327   -0.01035
 61 Li    0.00668   -0.00081    0.00110
 62 Li   -0.01537    0.02279   -0.01116
 63 Li   -0.00236    0.00618   -0.01108
 64 Li   -0.00615   -0.00079    0.09254
 65 Li   -0.00098    0.00295    0.09037
 66 Li    0.00409    0.00190   -0.00314
 67 Li   -0.00063    0.00343   -0.06009
 68 Li    0.00028   -0.00031   -0.00459
 69 Li    0.00524    0.00272   -0.00775
 70 Li    0.00806    0.00007    0.00217
 71 Li   -0.00153   -0.00621   -0.01070
 72 Li   -0.03628   -0.00358    0.05516

Timing:                                      incl.     excl.
-------------------------------------------------------------------
Density initialized from wave functions:     3.676     3.676   0.0% |
 Symmetrize density:                         0.000     0.000   0.0% |
Forces:                                     22.822    22.822   0.3% |
Hamiltonian:                                 7.969     0.016   0.0% |
 Atomic:                                     3.821     0.015   0.0% |
  XC Correction:                             3.806     3.806   0.0% |
 Calculate atomic Hamiltonians:              2.988     2.988   0.0% |
 Communicate:                                0.000     0.000   0.0% |
 Initialize Hamiltonian:                     0.001     0.001   0.0% |
 Poisson:                                    0.036     0.036   0.0% |
 XC 3D grid:                                 1.107     1.107   0.0% |
LCAO initialization:                         9.648     0.004   0.0% |
 LCAO eigensolver:                           0.305     0.000   0.0% |
  Calculate projections:                     0.003     0.003   0.0% |
  DenseAtomicCorrection:                     0.034     0.034   0.0% |
  Distribute overlap matrix:                 0.000     0.000   0.0% |
  Orbital Layouts:                           0.060     0.060   0.0% |
  Potential matrix:                          0.204     0.204   0.0% |
  Sum over cells:                            0.003     0.003   0.0% |
 LCAO to grid:                               8.830     8.830   0.1% |
 Set positions (LCAO WFS):                   0.510     0.133   0.0% |
  Basic WFS set positions:                   0.001     0.001   0.0% |
  Basis functions set positions:             0.000     0.000   0.0% |
  P tci:                                     0.252     0.252   0.0% |
  ST tci:                                    0.110     0.110   0.0% |
  mktci:                                     0.015     0.015   0.0% |
PWDescriptor:                                0.006     0.006   0.0% |
Redistribute:                                0.008     0.008   0.0% |
SCF-cycle:                                 343.119     0.055   0.0% |
 Davidson:                                 189.311    39.332   0.5% |
  Apply H:                                  31.790    31.455   0.4% |
   HMM T:                                    0.334     0.334   0.0% |
  Subspace diag:                            36.312     0.045   0.0% |
   calc_h_matrix:                           33.285     2.296   0.0% |
    Apply H:                                30.989    30.645   0.4% |
     HMM T:                                  0.344     0.344   0.0% |
   diagonalize:                              0.122     0.122   0.0% |
   rotate_psi:                               2.860     2.860   0.0% |
  calc. matrices:                           74.967    11.079   0.1% |
   Apply H:                                 63.888    63.209   0.8% |
    HMM T:                                   0.679     0.679   0.0% |
  diagonalize:                               0.983     0.983   0.0% |
  rotate_psi:                                5.926     5.926   0.1% |
 Density:                                   49.034     0.001   0.0% |
  Atomic density matrices:                   0.204     0.204   0.0% |
  Mix:                                      33.118    33.118   0.4% |
  Multipole moments:                         0.044     0.044   0.0% |
  Pseudo density:                           15.667    15.667   0.2% |
   Symmetrize density:                       0.001     0.001   0.0% |
 Hamiltonian:                              103.807     0.170   0.0% |
  Atomic:                                   49.862     0.180   0.0% |
   XC Correction:                           49.682    49.682   0.6% |
  Calculate atomic Hamiltonians:            39.539    39.539   0.5% |
  Communicate:                               0.000     0.000   0.0% |
  Poisson:                                   0.114     0.114   0.0% |
  XC 3D grid:                               14.121    14.121   0.2% |
 Orthonormalize:                             0.912     0.002   0.0% |
  calc_s_matrix:                             0.094     0.094   0.0% |
  inverse-cholesky:                          0.005     0.005   0.0% |
  projections:                               0.670     0.670   0.0% |
  rotate_psi_s:                              0.142     0.142   0.0% |
Set symmetry:                                0.000     0.000   0.0% |
Other:                                    7627.861  7627.861  95.2% |-------------------------------------|
-------------------------------------------------------------------
Total:                                              8015.109 100.0%

Memory usage: 3.31 GiB
Date: Mon Nov 24 06:02:17 2025
