
  ___ ___ ___ _ _ _  
 |   |   |_  | | | | 
 | | | | | . | | | | 
 |__ |  _|___|_____|  25.7.0
 |___|_|             

User:   tew@Mathuss-MacBook-Air-357.local
Date:   Mon Nov 24 03:48:41 2025
Arch:   arm64
Pid:    82977
CWD:    /Users/tew/Documents/Project/GitHub/chem-com
Python: 3.13.5
gpaw:   /Users/tew/Documents/Project/GitHub/chem-com/.venv/lib/python3.13/site-packages/gpaw
_gpaw:  /Users/tew/Documents/Project/GitHub/chem-com/.venv/lib/python3.13/site-packages/
        _gpaw.cpython-313-darwin.so
ase:    /Users/tew/Documents/Project/GitHub/chem-com/.venv/lib/python3.13/site-packages/ase (version 3.26.0)
numpy:  /Users/tew/Documents/Project/GitHub/chem-com/.venv/lib/python3.13/site-packages/numpy (version 2.3.5)
scipy:  /Users/tew/Documents/Project/GitHub/chem-com/.venv/lib/python3.13/site-packages/scipy (version 1.16.3)
libxc:  2.x.y
units:  Angstrom and eV
cores: 1
OpenMP: False
OMP_NUM_THREADS: 1

Input parameters:
  convergence: {density: 0.0001,
                eigenstates: 5e-06}
  kpts: [2 2 1]
  mode: {ecut: 200.0,
         name: pw}
  xc: PBE

System changes: positions, numbers, cell, pbc, initial_charges, initial_magmoms 

Initialize ...

species:
  Li:
    name: Lithium
    id: 830b4218f175192f93f959cfc0aad614
    Z: 3.0
    valence: 1
    core: 2
    charge: 0.0
    file: /Users/tew/Documents/Project/GitHub/chem-com/.venv/lib/python3.13/site-packages/gpaw_data/setups/Li.PBE.gz
    compensation charges: {type: gauss,
                           rc: 0.33,
                           lmax: 2}
    cutoffs: {filter: 1.91,
              core: 2.55}
    projectors:
      #              energy  rcut
      - 2s(1.00)    -2.874   1.058
      - 2p(0.00)    -1.090   1.058
      -  s          24.337   1.058
  
    # Using partial waves for Li as LCAO basis

Reference energy: -14803.510878  # eV

Spin-paired calculation

Convergence criteria:
 Maximum [total energy] change in last 3 cyles: 0.0005 eV / valence electron
 Maximum integral of absolute [dens]ity change: 0.0001 electrons / valence electron
 Maximum integral of absolute [eigenst]ate change: 5e-06 eV^2 / valence electron
 Maximum number of scf [iter]ations: 333
 (Square brackets indicate name in SCF output, whereas a 'c' in
 the SCF output indicates the quantity has converged.)

Symmetries present (total): 2

  ( 1  0  0)  ( 1  0  0)
  ( 0  1  0)  ( 0 -1  0)
  ( 0  0  1)  ( 0  0  1)

4 k-points: 2 x 2 x 1 Monkhorst-Pack grid
1 k-point in the irreducible part of the Brillouin zone
       k-points in crystal coordinates                weights
   0:     0.25000000    0.25000000    0.00000000          4/4

Wave functions: Plane wave expansion
  Cutoff energy: 200.000 eV
  Number of coefficients (min, max): 27323, 27323
  Pulay-stress correction: 0.000000 eV/Ang^3 (de/decut=0.000000)
  Using Numpy's FFT
  ScaLapack parameters: grid=1x1, blocksize=None
  Wavefunction extrapolation:
    Improved wavefunction reuse through dual PAW basis 

Occupation numbers: Fermi-Dirac:
  width: 0.1000  # eV
 

Eigensolver
   Davidson(niter=2) 

Densities:
  Coarse grid: 49*35*90 grid
  Fine grid: 98*70*180 grid
  Total Charge: 0.000000 

Density mixing:
  Method: separate
  Backend: pulay
  Linear mixing parameter: 0.05
  old densities: 5
  Damping of long wavelength oscillations: 50 

Hamiltonian:
  XC and Coulomb potentials evaluated on a 98*70*180 grid
  Using the PBE Exchange-Correlation functional
  External potential:
    NoExternalPotential
 

XC parameters: PBE with 2 nearest neighbor stencil

Memory estimate:
  Process memory now: 2312.47 MiB
  Calculator: 142.34 MiB
    Density: 71.24 MiB
      Arrays: 30.62 MiB
      Localized functions: 28.85 MiB
      Mixer: 11.78 MiB
    Hamiltonian: 20.61 MiB
      Arrays: 20.02 MiB
      XC: 0.00 MiB
      Poisson: 0.00 MiB
      vbar: 0.59 MiB
    Wavefunctions: 50.49 MiB
      Arrays psit_nG: 20.01 MiB
      Eigensolver: 22.45 MiB
      Projections: 0.27 MiB
      Projectors: 1.46 MiB
      PW-descriptor: 6.30 MiB

Total number of cores used: 1

Number of atoms: 73
Number of atomic orbitals: 292
Number of bands in calculation: 48
Number of valence electrons: 73
Bands to converge: occupied

... initialized

Initializing position-dependent things.

Density initialized from atomic densities
Creating initial wave functions:
  48 bands from LCAO basis set

       .-----------------------------------.  
      /|                                   |  
     / |                                   |  
    /  |                                   |  
   /   |                                   |  
  /    |                                   |  
 *     |                                   |  
 |     |                                   |  
 |     |                                   |  
 |     |                                   |  
 |     |                                   |  
 |     |                                   |  
 |     |                                   |  
 |    Li          Li                       |  
 |     |   Li                 Li           |  
 |     |               Li          Li      |  
 |  Li Li       Li          Li             |  
 |Li   | Li LiLi Li  Li Li       Li Li   Li|  
 |     |  Li              Li Li            |  
 |     Li      Li  Li Li       Li Li   Li  |  
 |    Li          Li       Li Li           |  
 |     |Li Li       Li Li       Li Li      |  
 Li Li |     Li Li       Li Li             |  
 |     | Li Li       Li Li       Li Li     |  
 |Li Li|      Li Li       Li Li            |  
 |     Li Li       Li Li       Li Li       |  
 | Li  |       Li          Li              |  
 |     |Li          Li          Li         |  
 Li    |     Li          Li                |  
 |     |                                   |  
 |     |                                   |  
 |     |                                   |  
 |     |                                   |  
 |     |                                   |  
 |     .-----------------------------------.  
 |    /                                   /   
 |   /                                   /    
 |  /                                   /     
 | /                                   /      
 |/                                   /       
 *-----------------------------------*        

Atomic positions and initial magnetic moments

Positions:
   0 Li     0.000000    0.000000   10.000000    ( 0.0000,  0.0000,  0.0000)
   1 Li     2.467803    1.745000   10.000000    ( 0.0000,  0.0000,  0.0000)
   2 Li     2.467803    0.000000   12.467803    ( 0.0000,  0.0000,  0.0000)
   3 Li     0.000000    1.745000   12.467803    ( 0.0000,  0.0000,  0.0000)
   4 Li     0.027026    0.000000   14.859733    ( 0.0000,  0.0000,  0.0000)
   5 Li     2.467802    1.835552   14.730330    ( 0.0000,  0.0000,  0.0000)
   6 Li     2.467800    0.000000   16.720248    ( 0.0000,  0.0000,  0.0000)
   7 Li     0.130515    1.592995   17.431671    ( 0.0000,  0.0000,  0.0000)
   8 Li     0.000000    3.490000   10.000000    ( 0.0000,  0.0000,  0.0000)
   9 Li     2.467803    5.235000   10.000000    ( 0.0000,  0.0000,  0.0000)
  10 Li     2.467803    3.490000   12.467803    ( 0.0000,  0.0000,  0.0000)
  11 Li     0.000000    5.235000   12.467803    ( 0.0000,  0.0000,  0.0000)
  12 Li    -0.018360    3.427806   14.968943    ( 0.0000,  0.0000,  0.0000)
  13 Li     2.467801    5.235000   14.992803    ( 0.0000,  0.0000,  0.0000)
  14 Li     2.467800    3.345913   17.324220    ( 0.0000,  0.0000,  0.0000)
  15 Li     0.071353    5.235000   17.261301    ( 0.0000,  0.0000,  0.0000)
  16 Li     0.000000    6.980000   10.000000    ( 0.0000,  0.0000,  0.0000)
  17 Li     2.467803    8.725000   10.000000    ( 0.0000,  0.0000,  0.0000)
  18 Li     2.467803    6.980000   12.467803    ( 0.0000,  0.0000,  0.0000)
  19 Li     0.000000    8.725000   12.467803    ( 0.0000,  0.0000,  0.0000)
  20 Li    -0.018360    7.042194   14.968943    ( 0.0000,  0.0000,  0.0000)
  21 Li     2.467802    8.634448   14.730330    ( 0.0000,  0.0000,  0.0000)
  22 Li     2.467800    7.124087   17.324220    ( 0.0000,  0.0000,  0.0000)
  23 Li     0.130515    8.877005   17.431671    ( 0.0000,  0.0000,  0.0000)
  24 Li     4.935605    0.000000   10.000000    ( 0.0000,  0.0000,  0.0000)
  25 Li     7.403408    1.745000   10.000000    ( 0.0000,  0.0000,  0.0000)
  26 Li     7.403408    0.000000   12.467803    ( 0.0000,  0.0000,  0.0000)
  27 Li     4.935605    1.745000   12.467803    ( 0.0000,  0.0000,  0.0000)
  28 Li     4.908581   -0.000000   14.859733    ( 0.0000,  0.0000,  0.0000)
  29 Li     7.407952    1.733155   14.894146    ( 0.0000,  0.0000,  0.0000)
  30 Li     7.343077    0.000000   17.259968    ( 0.0000,  0.0000,  0.0000)
  31 Li     4.805087    1.592996   17.431670    ( 0.0000,  0.0000,  0.0000)
  32 Li     4.935605    3.490000   10.000000    ( 0.0000,  0.0000,  0.0000)
  33 Li     7.403408    5.235000   10.000000    ( 0.0000,  0.0000,  0.0000)
  34 Li     7.403408    3.490000   12.467803    ( 0.0000,  0.0000,  0.0000)
  35 Li     4.935605    5.235000   12.467803    ( 0.0000,  0.0000,  0.0000)
  36 Li     4.953965    3.427806   14.968943    ( 0.0000,  0.0000,  0.0000)
  37 Li     7.395513    5.235000   14.900339    ( 0.0000,  0.0000,  0.0000)
  38 Li     7.324769    3.445557   17.244331    ( 0.0000,  0.0000,  0.0000)
  39 Li     4.864248    5.235000   17.261301    ( 0.0000,  0.0000,  0.0000)
  40 Li     4.935605    6.980000   10.000000    ( 0.0000,  0.0000,  0.0000)
  41 Li     7.403408    8.725000   10.000000    ( 0.0000,  0.0000,  0.0000)
  42 Li     7.403408    6.980000   12.467803    ( 0.0000,  0.0000,  0.0000)
  43 Li     4.935605    8.725000   12.467803    ( 0.0000,  0.0000,  0.0000)
  44 Li     4.953965    7.042194   14.968943    ( 0.0000,  0.0000,  0.0000)
  45 Li     7.407952    8.736845   14.894146    ( 0.0000,  0.0000,  0.0000)
  46 Li     7.324769    7.024443   17.244331    ( 0.0000,  0.0000,  0.0000)
  47 Li     4.805087    8.877004   17.431670    ( 0.0000,  0.0000,  0.0000)
  48 Li     9.871211    0.000000   10.000000    ( 0.0000,  0.0000,  0.0000)
  49 Li    12.339013    1.745000   10.000000    ( 0.0000,  0.0000,  0.0000)
  50 Li    12.339013    0.000000   12.467803    ( 0.0000,  0.0000,  0.0000)
  51 Li     9.871211    1.745000   12.467803    ( 0.0000,  0.0000,  0.0000)
  52 Li     9.871212    0.000000   14.900257    ( 0.0000,  0.0000,  0.0000)
  53 Li    12.334473    1.733154   14.894145    ( 0.0000,  0.0000,  0.0000)
  54 Li    12.399345    0.000000   17.259968    ( 0.0000,  0.0000,  0.0000)
  55 Li     9.871212    1.735882   17.228811    ( 0.0000,  0.0000,  0.0000)
  56 Li     9.871211    3.490000   10.000000    ( 0.0000,  0.0000,  0.0000)
  57 Li    12.339013    5.235000   10.000000    ( 0.0000,  0.0000,  0.0000)
  58 Li    12.339013    3.490000   12.467803    ( 0.0000,  0.0000,  0.0000)
  59 Li     9.871211    5.235000   12.467803    ( 0.0000,  0.0000,  0.0000)
  60 Li     9.871212    3.485791   14.893574    ( 0.0000,  0.0000,  0.0000)
  61 Li    12.346911    5.235000   14.900337    ( 0.0000,  0.0000,  0.0000)
  62 Li    12.417655    3.445556   17.244332    ( 0.0000,  0.0000,  0.0000)
  63 Li     9.871212    5.235000   17.231554    ( 0.0000,  0.0000,  0.0000)
  64 Li     9.871211    6.980000   10.000000    ( 0.0000,  0.0000,  0.0000)
  65 Li    12.339013    8.725000   10.000000    ( 0.0000,  0.0000,  0.0000)
  66 Li    12.339013    6.980000   12.467803    ( 0.0000,  0.0000,  0.0000)
  67 Li     9.871211    8.725000   12.467803    ( 0.0000,  0.0000,  0.0000)
  68 Li     9.871212    6.984209   14.893574    ( 0.0000,  0.0000,  0.0000)
  69 Li    12.334473    8.736846   14.894145    ( 0.0000,  0.0000,  0.0000)
  70 Li    12.417655    7.024444   17.244332    ( 0.0000,  0.0000,  0.0000)
  71 Li     9.871212    8.734118   17.228811    ( 0.0000,  0.0000,  0.0000)
  72 Li     2.467805   -0.000000   19.322725    ( 0.0000,  0.0000,  0.0000)

Unit cell:
           periodic     x           y           z      points  spacing
  1. axis:    yes   14.806816    0.000000    0.000000    49     0.3022
  2. axis:    yes    0.000000   10.470000    0.000000    35     0.2991
  3. axis:    no     0.000000    0.000000   27.403408    90     0.3045

  Lengths:  14.806816  10.470000  27.403408
  Angles:   90.000000  90.000000  90.000000

Effective grid spacing dv^(1/3) = 0.3019

     iter     time        total  log10-change:
                         energy   eigst   dens
iter:   1 03:59:21  -136.055405
iter:   2 03:59:23  -131.486634   -0.87  -0.55
iter:   3 03:59:25  -129.705914   -0.96  -0.70
iter:   4 03:59:28  -130.031631   -1.49  -0.88
iter:   5 03:59:30  -129.241290   -1.90  -0.89
iter:   6 03:59:32  -128.655911   -1.85  -1.02
iter:   7 03:59:34  -128.840251   -1.84  -1.30
iter:   8 03:59:36  -128.683074   -1.96  -1.20
iter:   9 03:59:38  -128.644108   -2.72  -1.40
iter:  10 03:59:41  -128.695644   -2.16  -1.55
iter:  11 03:59:43  -128.591421   -2.67  -1.46
iter:  12 03:59:45  -128.593000   -3.29  -1.99
iter:  13 03:59:47  -128.591674c  -3.49  -2.13
iter:  14 03:59:49  -128.592584c  -3.58  -2.18
iter:  15 03:59:51  -128.589698c  -3.89  -2.30
iter:  16 03:59:53  -128.589128c  -4.19  -2.39
iter:  17 03:59:55  -128.589337c  -4.34  -2.56
iter:  18 03:59:58  -128.590313c  -4.33  -2.68
iter:  19 04:00:00  -128.589227c  -4.57  -2.65
iter:  20 04:00:02  -128.589190c  -4.99  -2.93
iter:  21 04:00:04  -128.589328c  -5.02  -3.01
iter:  22 04:00:06  -128.589260c  -5.22  -3.22
iter:  23 04:00:09  -128.589086c  -5.14  -3.40
iter:  24 04:00:11  -128.589088c  -5.36c -3.55
iter:  25 04:00:13  -128.589077c  -5.29  -3.62
iter:  26 04:00:15  -128.588951c  -5.29  -3.70
iter:  27 04:00:17  -128.588933c  -5.50c -3.75
iter:  28 04:00:19  -128.588935c  -5.53c -3.98
iter:  29 04:00:21  -128.588904c  -5.72c -4.11c

Converged after 29 iterations.

Dipole moment: (-6.744501, 0.000000, 0.352320) |e|*Ang

Energy contributions relative to reference atoms: (reference = -14803.510878)

Kinetic:       +113.883303
Potential:      -99.731397
External:        +0.000000
XC:            -141.554634
Entropy (-ST):   -1.387334
Local:           -0.492508
SIC:             +0.000000
--------------------------
Free energy:   -129.282570
Extrapolated:  -128.588904

 Band  Eigenvalues  Occupancy
    0     -5.09839    2.00000
    1     -4.84036    2.00000
    2     -4.58241    2.00000
    3     -4.51571    2.00000
    4     -4.32952    2.00000
    5     -4.31963    2.00000
    6     -4.25280    2.00000
    7     -4.00081    2.00000
    8     -3.81252    2.00000
    9     -3.74980    2.00000
   10     -3.72873    2.00000
   11     -3.55531    2.00000
   12     -3.53474    2.00000
   13     -3.47336    2.00000
   14     -3.29137    2.00000
   15     -3.23837    2.00000
   16     -3.19525    2.00000
   17     -3.04146    1.99999
   18     -2.97132    1.99998
   19     -2.95162    1.99997
   20     -2.93563    1.99997
   21     -2.79963    1.99988
   22     -2.74284    1.99980
   23     -2.69535    1.99967
   24     -2.64862    1.99948
   25     -2.56165    1.99876
   26     -2.47142    1.99694
   27     -2.31972    1.98610
   28     -2.27462    1.97827
   29     -2.16340    1.93536
   30     -2.06075    1.82944
   31     -2.03104    1.77700
   32     -1.97253    1.63230
   33     -1.95542    1.57815
   34     -1.93930    1.52201
   35     -1.89143    1.32722
   36     -1.81704    0.96779
   37     -1.75976    0.69174
   38     -1.73997    0.60512
   39     -1.68485    0.40000
   40     -1.66284    0.33418
   41     -1.56101    0.13513
   42     -1.51695    0.08912
   43     -1.47640    0.06031
   44     -1.46862    0.05592
   45     -1.43892    0.04185
   46     -1.42722    0.03732
   47     -1.36998    0.02122

Fermi level: -1.82348

Gap: 0.074 eV
Transition (v -> c):
  (s=0, k=0, n=35, [0.25, 0.25, 0.00]) -> (s=0, k=0, n=36, [0.25, 0.25, 0.00])
No difference between direct/indirect transitions

Forces in eV/Ang:
  0 Li    0.00112    0.00000    0.09399
  1 Li    0.00000   -0.00083    0.10699
  2 Li    0.00000    0.00000   -0.06159
  3 Li   -0.00956    0.01820   -0.08637
  4 Li   -0.04238    0.00000    0.01121
  5 Li   -0.00000    0.04035   -0.01785
  6 Li    0.00001    0.00000   -0.01702
  7 Li   -0.00085    0.03155   -0.03078
  8 Li    0.00041   -0.00424    0.09247
  9 Li    0.00002    0.00000    0.07906
 10 Li    0.00000    0.07507   -0.14048
 11 Li    0.00933    0.00000    0.02078
 12 Li    0.01780   -0.00226   -0.01338
 13 Li   -0.00000    0.00000   -0.04777
 14 Li    0.00000   -0.01768   -0.01795
 15 Li    0.01500    0.00000    0.01351
 16 Li    0.00041    0.00424    0.09247
 17 Li    0.00000    0.00083    0.10699
 18 Li    0.00000   -0.07507   -0.14048
 19 Li   -0.00956   -0.01820   -0.08637
 20 Li    0.01780    0.00226   -0.01338
 21 Li   -0.00000   -0.04035   -0.01785
 22 Li    0.00000    0.01768   -0.01795
 23 Li   -0.00085   -0.03155   -0.03078
 24 Li   -0.00112    0.00000    0.09398
 25 Li    0.00432   -0.00017    0.08528
 26 Li   -0.00177    0.00000   -0.07197
 27 Li    0.00955    0.01820   -0.08639
 28 Li    0.04237    0.00000    0.01121
 29 Li    0.00710   -0.01475   -0.01303
 30 Li    0.03211    0.00000   -0.02293
 31 Li    0.00085    0.03156   -0.03077
 32 Li   -0.00041   -0.00424    0.09249
 33 Li    0.00690    0.00000    0.09455
 34 Li    0.00212   -0.00493   -0.05693
 35 Li   -0.00933    0.00000    0.02079
 36 Li   -0.01779   -0.00226   -0.01338
 37 Li    0.00277    0.00000    0.00731
 38 Li    0.00469    0.00980   -0.00928
 39 Li   -0.01500    0.00000    0.01351
 40 Li   -0.00041    0.00424    0.09249
 41 Li    0.00432    0.00017    0.08528
 42 Li    0.00212    0.00493   -0.05693
 43 Li    0.00955   -0.01820   -0.08639
 44 Li   -0.01779    0.00226   -0.01338
 45 Li    0.00710    0.01475   -0.01303
 46 Li    0.00469   -0.00980   -0.00928
 47 Li    0.00085   -0.03156   -0.03077
 48 Li    0.00001    0.00000    0.09043
 49 Li   -0.00432   -0.00017    0.08529
 50 Li    0.00177    0.00000   -0.07197
 51 Li    0.00000   -0.00235   -0.06638
 52 Li   -0.00000    0.00000   -0.02308
 53 Li   -0.00710   -0.01474   -0.01303
 54 Li   -0.03211    0.00000   -0.02293
 55 Li   -0.00000    0.00199   -0.00781
 56 Li    0.00000    0.00075    0.08910
 57 Li   -0.00690    0.00000    0.09454
 58 Li   -0.00213   -0.00493   -0.05693
 59 Li    0.00000    0.00000   -0.06142
 60 Li   -0.00000    0.00257   -0.01448
 61 Li   -0.00277    0.00000    0.00732
 62 Li   -0.00470    0.00980   -0.00927
 63 Li   -0.00001    0.00000   -0.01084
 64 Li    0.00000   -0.00075    0.08910
 65 Li   -0.00432    0.00017    0.08529
 66 Li   -0.00213    0.00493   -0.05693
 67 Li    0.00000    0.00235   -0.06638
 68 Li   -0.00000   -0.00257   -0.01448
 69 Li   -0.00710    0.01474   -0.01303
 70 Li   -0.00470   -0.00980   -0.00927
 71 Li   -0.00000   -0.00199   -0.00781
 72 Li   -0.00000    0.00000    0.02425

Timing:                              incl.     excl.
-----------------------------------------------------------
Forces:                              2.714     2.714   0.0% |
Hamiltonian:                         1.012     0.002   0.0% |
 Atomic:                             0.462     0.002   0.0% |
  XC Correction:                     0.460     0.460   0.0% |
 Calculate atomic Hamiltonians:      0.378     0.378   0.0% |
 Communicate:                        0.000     0.000   0.0% |
 Initialize Hamiltonian:             0.001     0.001   0.0% |
 Poisson:                            0.005     0.005   0.0% |
 XC 3D grid:                         0.165     0.165   0.0% |
LCAO initialization:                 4.866     0.004   0.0% |
 LCAO eigensolver:                   0.230     0.000   0.0% |
  Calculate projections:             0.001     0.001   0.0% |
  DenseAtomicCorrection:             0.016     0.016   0.0% |
  Distribute overlap matrix:         0.000     0.000   0.0% |
  Orbital Layouts:                   0.029     0.029   0.0% |
  Potential matrix:                  0.181     0.181   0.0% |
  Sum over cells:                    0.002     0.002   0.0% |
 LCAO to grid:                       4.292     4.292   0.1% |
 Set positions (LCAO WFS):           0.339     0.098   0.0% |
  Basic WFS set positions:           0.001     0.001   0.0% |
  Basis functions set positions:     0.000     0.000   0.0% |
  P tci:                             0.145     0.145   0.0% |
  ST tci:                            0.083     0.083   0.0% |
  mktci:                             0.012     0.012   0.0% |
PWDescriptor:                        0.004     0.004   0.0% |
SCF-cycle:                          61.176     0.012   0.0% |
 Davidson:                          23.086     4.805   0.1% |
  Apply H:                           3.900     3.858   0.0% |
   HMM T:                            0.041     0.041   0.0% |
  Subspace diag:                     4.371     0.002   0.0% |
   calc_h_matrix:                    4.001     0.286   0.0% |
    Apply H:                         3.716     3.676   0.0% |
     HMM T:                          0.040     0.040   0.0% |
   diagonalize:                      0.015     0.015   0.0% |
   rotate_psi:                       0.353     0.353   0.0% |
  calc. matrices:                    9.150     1.374   0.0% |
   Apply H:                          7.776     7.692   0.1% |
    HMM T:                           0.084     0.084   0.0% |
  diagonalize:                       0.121     0.121   0.0% |
  rotate_psi:                        0.739     0.739   0.0% |
 Density:                           10.714     0.000   0.0% |
  Atomic density matrices:           0.044     0.044   0.0% |
  Mix:                               8.619     8.619   0.1% |
  Multipole moments:                 0.011     0.011   0.0% |
  Pseudo density:                    2.040     1.996   0.0% |
   Symmetrize density:               0.044     0.044   0.0% |
 Hamiltonian:                       27.312     0.044   0.0% |
  Atomic:                           13.125     0.047   0.0% |
   XC Correction:                   13.078    13.078   0.2% |
  Calculate atomic Hamiltonians:    10.406    10.406   0.1% |
  Communicate:                       0.000     0.000   0.0% |
  Poisson:                           0.029     0.029   0.0% |
  XC 3D grid:                        3.708     3.708   0.0% |
 Orthonormalize:                     0.051     0.000   0.0% |
  calc_s_matrix:                     0.008     0.008   0.0% |
  inverse-cholesky:                  0.000     0.000   0.0% |
  projections:                       0.036     0.036   0.0% |
  rotate_psi_s:                      0.007     0.007   0.0% |
Set symmetry:                        0.000     0.000   0.0% |
Other:                            7945.338  7945.338  99.1% |---------------------------------------|
-----------------------------------------------------------
Total:                                      8015.110 100.0%

Memory usage: 3.31 GiB
Date: Mon Nov 24 06:02:17 2025
