
  ___ ___ ___ _ _ _  
 |   |   |_  | | | | 
 | | | | | . | | | | 
 |__ |  _|___|_____|  25.7.0
 |___|_|             

User:   tew@Mathuss-MacBook-Air-357.local
Date:   Mon Nov 24 03:48:42 2025
Arch:   arm64
Pid:    82977
CWD:    /Users/tew/Documents/Project/GitHub/chem-com
Python: 3.13.5
gpaw:   /Users/tew/Documents/Project/GitHub/chem-com/.venv/lib/python3.13/site-packages/gpaw
_gpaw:  /Users/tew/Documents/Project/GitHub/chem-com/.venv/lib/python3.13/site-packages/
        _gpaw.cpython-313-darwin.so
ase:    /Users/tew/Documents/Project/GitHub/chem-com/.venv/lib/python3.13/site-packages/ase (version 3.26.0)
numpy:  /Users/tew/Documents/Project/GitHub/chem-com/.venv/lib/python3.13/site-packages/numpy (version 2.3.5)
scipy:  /Users/tew/Documents/Project/GitHub/chem-com/.venv/lib/python3.13/site-packages/scipy (version 1.16.3)
libxc:  2.x.y
units:  Angstrom and eV
cores: 1
OpenMP: False
OMP_NUM_THREADS: 1

Input parameters:
  convergence: {density: 0.0001,
                eigenstates: 5e-06}
  kpts: [2 2 1]
  mode: {ecut: 200.0,
         name: pw}
  xc: PBE

System changes: positions, numbers, cell, pbc, initial_charges, initial_magmoms 

Initialize ...

species:
  Li:
    name: Lithium
    id: 830b4218f175192f93f959cfc0aad614
    Z: 3.0
    valence: 1
    core: 2
    charge: 0.0
    file: /Users/tew/Documents/Project/GitHub/chem-com/.venv/lib/python3.13/site-packages/gpaw_data/setups/Li.PBE.gz
    compensation charges: {type: gauss,
                           rc: 0.33,
                           lmax: 2}
    cutoffs: {filter: 1.91,
              core: 2.55}
    projectors:
      #              energy  rcut
      - 2s(1.00)    -2.874   1.058
      - 2p(0.00)    -1.090   1.058
      -  s          24.337   1.058
  
    # Using partial waves for Li as LCAO basis

Reference energy: -14803.510878  # eV

Spin-paired calculation

Convergence criteria:
 Maximum [total energy] change in last 3 cyles: 0.0005 eV / valence electron
 Maximum integral of absolute [dens]ity change: 0.0001 electrons / valence electron
 Maximum integral of absolute [eigenst]ate change: 5e-06 eV^2 / valence electron
 Maximum number of scf [iter]ations: 333
 (Square brackets indicate name in SCF output, whereas a 'c' in
 the SCF output indicates the quantity has converged.)

Symmetries present (total): 1

  ( 1  0  0)
  ( 0  1  0)
  ( 0  0  1)

4 k-points: 2 x 2 x 1 Monkhorst-Pack grid
2 k-points in the irreducible part of the Brillouin zone
       k-points in crystal coordinates                weights
   0:     0.25000000   -0.25000000    0.00000000          2/4
   1:     0.25000000    0.25000000    0.00000000          2/4

Wave functions: Plane wave expansion
  Cutoff energy: 200.000 eV
  Number of coefficients (min, max): 27323, 27323
  Pulay-stress correction: 0.000000 eV/Ang^3 (de/decut=0.000000)
  Using Numpy's FFT
  ScaLapack parameters: grid=1x1, blocksize=None
  Wavefunction extrapolation:
    Improved wavefunction reuse through dual PAW basis 

Occupation numbers: Fermi-Dirac:
  width: 0.1000  # eV
 

Eigensolver
   Davidson(niter=2) 

Densities:
  Coarse grid: 49*35*90 grid
  Fine grid: 98*70*180 grid
  Total Charge: 0.000000 

Density mixing:
  Method: separate
  Backend: pulay
  Linear mixing parameter: 0.05
  old densities: 5
  Damping of long wavelength oscillations: 50 

Hamiltonian:
  XC and Coulomb potentials evaluated on a 98*70*180 grid
  Using the PBE Exchange-Correlation functional
  External potential:
    NoExternalPotential
 

XC parameters: PBE with 2 nearest neighbor stencil

Memory estimate:
  Process memory now: 2021.36 MiB
  Calculator: 164.50 MiB
    Density: 71.24 MiB
      Arrays: 30.62 MiB
      Localized functions: 28.85 MiB
      Mixer: 11.78 MiB
    Hamiltonian: 20.61 MiB
      Arrays: 20.02 MiB
      XC: 0.00 MiB
      Poisson: 0.00 MiB
      vbar: 0.59 MiB
    Wavefunctions: 72.65 MiB
      Arrays psit_nG: 40.02 MiB
      Eigensolver: 22.45 MiB
      Projections: 0.53 MiB
      Projectors: 2.92 MiB
      PW-descriptor: 6.72 MiB

Total number of cores used: 1

Number of atoms: 73
Number of atomic orbitals: 292
Number of bands in calculation: 48
Number of valence electrons: 73
Bands to converge: occupied

... initialized

Initializing position-dependent things.

Density initialized from atomic densities
Creating initial wave functions:
  48 bands from LCAO basis set

       .-----------------------------------.  
      /|                                   |  
     / |                                   |  
    /  |                                   |  
   /   |                                   |  
  /    |                                   |  
 *     |                                   |  
 |     |                                   |  
 |     |                                   |  
 |     |                                   |  
 |     |                                   |  
 |     |                                   |  
 |     |                                   |  
 |    Li          Li                       |  
 |     |   Li                 Li           |  
 |     |               Li          Li      |  
 |  LLiLi       Li          Li      Li     |  
 |     | Li Li   Li  Li Li       Li      Li|  
 |Li   |  Li  Li          Li LiLi Li       |  
 |     Li      Li  Li Li                   |  
 |    Li          Li       Li Li       Li  |  
 |     |Li Li       Li Li       Li Li      |  
 |  Li |     Li Li       Li Li             |  
 |     | Li Li       Li Li       Li Li     |  
 |Li Li|      Li Li       Li Li            |  
 |     Li Li       Li Li       Li Li       |  
 | Li  |       Li          Li              |  
 |     |Li          Li          Li         |  
 Li    |     Li          Li                |  
 |     |                                   |  
 |     |                                   |  
 |     |                                   |  
 |     |                                   |  
 |     |                                   |  
 |     .-----------------------------------.  
 |    /                                   /   
 |   /                                   /    
 |  /                                   /     
 | /                                   /      
 |/                                   /       
 *-----------------------------------*        

Atomic positions and initial magnetic moments

Positions:
   0 Li     0.000000    0.000000   10.000000    ( 0.0000,  0.0000,  0.0000)
   1 Li     2.467803    1.745000   10.000000    ( 0.0000,  0.0000,  0.0000)
   2 Li     2.467803    0.000000   12.467803    ( 0.0000,  0.0000,  0.0000)
   3 Li     0.000000    1.745000   12.467803    ( 0.0000,  0.0000,  0.0000)
   4 Li     0.018017   -0.030188   14.816597    ( 0.0000,  0.0000,  0.0000)
   5 Li     2.458794    1.805369   14.773464    ( 0.0000,  0.0000,  0.0000)
   6 Li     2.424297    0.050668   16.957388    ( 0.0000,  0.0000,  0.0000)
   7 Li     0.087010    1.643664   17.194527    ( 0.0000,  0.0000,  0.0000)
   8 Li     0.000000    3.490000   10.000000    ( 0.0000,  0.0000,  0.0000)
   9 Li     2.467803    5.235000   10.000000    ( 0.0000,  0.0000,  0.0000)
  10 Li     2.467803    3.490000   12.467803    ( 0.0000,  0.0000,  0.0000)
  11 Li     0.000000    5.235000   12.467803    ( 0.0000,  0.0000,  0.0000)
  12 Li    -0.012240    3.478725   14.889404    ( 0.0000,  0.0000,  0.0000)
  13 Li     2.473921    5.214267   14.984848    ( 0.0000,  0.0000,  0.0000)
  14 Li     2.424297    3.343275   17.360036    ( 0.0000,  0.0000,  0.0000)
  15 Li     0.047569    5.186970   17.282274    ( 0.0000,  0.0000,  0.0000)
  16 Li     0.000000    6.980000   10.000000    ( 0.0000,  0.0000,  0.0000)
  17 Li     2.467803    8.725000   10.000000    ( 0.0000,  0.0000,  0.0000)
  18 Li     2.467803    6.980000   12.467803    ( 0.0000,  0.0000,  0.0000)
  19 Li     0.000000    8.725000   12.467803    ( 0.0000,  0.0000,  0.0000)
  20 Li    -0.012240    7.021463   14.976901    ( 0.0000,  0.0000,  0.0000)
  21 Li     2.473922    8.685365   14.809867    ( 0.0000,  0.0000,  0.0000)
  22 Li     2.444014    7.076058   17.303242    ( 0.0000,  0.0000,  0.0000)
  23 Li     0.087010    8.874366   17.395853    ( 0.0000,  0.0000,  0.0000)
  24 Li     4.935605    0.000000   10.000000    ( 0.0000,  0.0000,  0.0000)
  25 Li     7.403408    1.745000   10.000000    ( 0.0000,  0.0000,  0.0000)
  26 Li     7.403408    0.000000   12.467803    ( 0.0000,  0.0000,  0.0000)
  27 Li     4.935605    1.745000   12.467803    ( 0.0000,  0.0000,  0.0000)
  28 Li     4.919105    0.003950   14.871199    ( 0.0000,  0.0000,  0.0000)
  29 Li     7.406437    1.737104   14.896181    ( 0.0000,  0.0000,  0.0000)
  30 Li     7.363188    0.003039   17.249578    ( 0.0000,  0.0000,  0.0000)
  31 Li     4.828485    1.643664   17.374434    ( 0.0000,  0.0000,  0.0000)
  32 Li     4.935605    3.490000   10.000000    ( 0.0000,  0.0000,  0.0000)
  33 Li     7.403408    5.235000   10.000000    ( 0.0000,  0.0000,  0.0000)
  34 Li     7.403408    3.490000   12.467803    ( 0.0000,  0.0000,  0.0000)
  35 Li     4.935605    5.235000   12.467803    ( 0.0000,  0.0000,  0.0000)
  36 Li     4.949361    3.444588   14.944005    ( 0.0000,  0.0000,  0.0000)
  37 Li     7.398145    5.233596   14.898082    ( 0.0000,  0.0000,  0.0000)
  38 Li     7.350982    3.457332   17.239155    ( 0.0000,  0.0000,  0.0000)
  39 Li     4.861817    5.220187   17.255640    ( 0.0000,  0.0000,  0.0000)
  40 Li     4.935605    6.980000   10.000000    ( 0.0000,  0.0000,  0.0000)
  41 Li     7.403408    8.725000   10.000000    ( 0.0000,  0.0000,  0.0000)
  42 Li     7.403408    6.980000   12.467803    ( 0.0000,  0.0000,  0.0000)
  43 Li     4.935605    8.725000   12.467803    ( 0.0000,  0.0000,  0.0000)
  44 Li     4.945212    7.021463   14.946070    ( 0.0000,  0.0000,  0.0000)
  45 Li     7.406437    8.734300   14.893953    ( 0.0000,  0.0000,  0.0000)
  46 Li     7.350982    7.009629   17.240065    ( 0.0000,  0.0000,  0.0000)
  47 Li     4.822377    8.841149   17.369220    ( 0.0000,  0.0000,  0.0000)
  48 Li     9.871211    0.000000   10.000000    ( 0.0000,  0.0000,  0.0000)
  49 Li    12.339013    1.745000   10.000000    ( 0.0000,  0.0000,  0.0000)
  50 Li    12.339013    0.000000   12.467803    ( 0.0000,  0.0000,  0.0000)
  51 Li     9.871211    1.745000   12.467803    ( 0.0000,  0.0000,  0.0000)
  52 Li     9.869695    0.003950   14.898215    ( 0.0000,  0.0000,  0.0000)
  53 Li    12.344994    1.737103   14.882674    ( 0.0000,  0.0000,  0.0000)
  54 Li    12.422738    0.050668   17.317201    ( 0.0000,  0.0000,  0.0000)
  55 Li     9.891319    1.738922   17.239194    ( 0.0000,  0.0000,  0.0000)
  56 Li     9.871211    3.490000   10.000000    ( 0.0000,  0.0000,  0.0000)
  57 Li    12.339013    5.235000   10.000000    ( 0.0000,  0.0000,  0.0000)
  58 Li    12.339013    3.490000   12.467803    ( 0.0000,  0.0000,  0.0000)
  59 Li     9.871211    5.235000   12.467803    ( 0.0000,  0.0000,  0.0000)
  60 Li     9.869695    3.483245   14.893759    ( 0.0000,  0.0000,  0.0000)
  61 Li    12.338159    5.214267   14.923205    ( 0.0000,  0.0000,  0.0000)
  62 Li    12.434945    3.409704   17.306777    ( 0.0000,  0.0000,  0.0000)
  63 Li     9.897429    5.220187   17.235809    ( 0.0000,  0.0000,  0.0000)
  64 Li     9.871211    6.980000   10.000000    ( 0.0000,  0.0000,  0.0000)
  65 Li    12.339013    8.725000   10.000000    ( 0.0000,  0.0000,  0.0000)
  66 Li    12.339013    6.980000   12.467803    ( 0.0000,  0.0000,  0.0000)
  67 Li     9.871211    8.725000   12.467803    ( 0.0000,  0.0000,  0.0000)
  68 Li     9.873844    6.982806   14.895824    ( 0.0000,  0.0000,  0.0000)
  69 Li    12.329866    8.753630   14.919076    ( 0.0000,  0.0000,  0.0000)
  70 Li    12.415228    7.009629   17.249983    ( 0.0000,  0.0000,  0.0000)
  71 Li     9.897428    8.745892   17.233980    ( 0.0000,  0.0000,  0.0000)
  72 Li     1.645203    0.581668   19.322725    ( 0.0000,  0.0000,  0.0000)

Unit cell:
           periodic     x           y           z      points  spacing
  1. axis:    yes   14.806816    0.000000    0.000000    49     0.3022
  2. axis:    yes    0.000000   10.470000    0.000000    35     0.2991
  3. axis:    no     0.000000    0.000000   27.403408    90     0.3045

  Lengths:  14.806816  10.470000  27.403408
  Angles:   90.000000  90.000000  90.000000

Effective grid spacing dv^(1/3) = 0.3019

     iter     time        total  log10-change:
                         energy   eigst   dens
iter:   1 03:50:41  -135.915733
iter:   2 03:50:44  -131.417901   -0.87  -0.55
iter:   3 03:50:47  -129.655877   -0.97  -0.71
iter:   4 03:50:50  -129.994906   -1.49  -0.88
iter:   5 03:50:53  -129.230675   -1.95  -0.88
iter:   6 03:50:56  -128.630798   -1.95  -1.00
iter:   7 03:50:58  -128.790121   -1.77  -1.27
iter:   8 03:51:02  -128.613632   -2.00  -1.20
iter:   9 03:51:04  -128.582389   -2.77  -1.40
iter:  10 03:51:07  -128.602561c  -2.29  -1.54
iter:  11 03:51:10  -128.530477   -2.78  -1.52
iter:  12 03:51:13  -128.528662   -3.51  -2.02
iter:  13 03:51:16  -128.528709c  -3.71  -2.14
iter:  14 03:51:19  -128.528926c  -3.80  -2.25
iter:  15 03:51:22  -128.527346c  -4.16  -2.38
iter:  16 03:51:25  -128.526997c  -4.31  -2.43
iter:  17 03:51:28  -128.527193c  -4.27  -2.52
iter:  18 03:51:31  -128.527538c  -4.63  -2.78
iter:  19 03:51:34  -128.526898c  -4.69  -2.80
iter:  20 03:51:37  -128.526858c  -5.14  -2.98
iter:  21 03:51:40  -128.526949c  -4.90  -3.14
iter:  22 03:51:43  -128.526770c  -5.08  -3.28
iter:  23 03:51:46  -128.526594c  -5.02  -3.37
iter:  24 03:51:49  -128.526690c  -5.04  -3.46
iter:  25 03:51:52  -128.526481c  -5.05  -3.46
iter:  26 03:51:55  -128.526450c  -5.52c -3.78
iter:  27 03:51:58  -128.526421c  -5.42c -3.82
iter:  28 03:52:01  -128.526394c  -5.28  -3.88
iter:  29 03:52:04  -128.526314c  -5.34c -3.99
iter:  30 03:52:07  -128.526295c  -5.51c -4.00c

Converged after 30 iterations.

Dipole moment: (-5.680336, -4.407706, 0.350864) |e|*Ang

Energy contributions relative to reference atoms: (reference = -14803.510878)

Kinetic:       +114.600244
Potential:     -100.221782
External:        +0.000000
XC:            -141.714203
Entropy (-ST):   -1.392242
Local:           -0.494433
SIC:             +0.000000
--------------------------
Free energy:   -129.222416
Extrapolated:  -128.526295

Showing all kpts
 Kpt  Band  Eigenvalues  Occupancy
  0    34     -1.93944    1.52012
  0    35     -1.89298    1.33124
  0    36     -1.81994    0.97903
  0    37     -1.75620    0.67281

  1    34     -1.93770    1.51376
  1    35     -1.89318    1.33211
  1    36     -1.82019    0.98025
  1    37     -1.75590    0.67145


Fermi level: -1.82414

Gap: 0.073 eV
Transition (v -> c):
  (s=0, k=0, n=35, [0.25, -0.25, 0.00]) -> (s=0, k=1, n=36, [0.25, 0.25, 0.00])
Direct/indirect transitions are different
Direct gap: 0.073 eV
Transition at: (s=0, k=1, n=35, [0.25, 0.25, 0.00])

Forces in eV/Ang:
  0 Li    0.00131    0.00077    0.09968
  1 Li   -0.00079   -0.00097    0.10382
  2 Li    0.00349   -0.00733   -0.07523
  3 Li   -0.00718    0.01338   -0.08671
  4 Li   -0.02187   -0.00351    0.00727
  5 Li    0.00836    0.01713   -0.00431
  6 Li    0.12010   -0.09755   -0.28885
  7 Li   -0.09428    0.08672   -0.09982
  8 Li    0.00166   -0.00449    0.09727
  9 Li    0.00042   -0.00230    0.08354
 10 Li    0.00187    0.05384   -0.11920
 11 Li    0.00699    0.01569   -0.02448
 12 Li    0.00206    0.00051   -0.01076
 13 Li   -0.00640    0.00325   -0.03424
 14 Li    0.00689   -0.02066   -0.00971
 15 Li    0.01477    0.01205   -0.00950
 16 Li   -0.00008    0.00374    0.08854
 17 Li   -0.00129    0.00320    0.10299
 18 Li   -0.00341   -0.04034   -0.07845
 19 Li   -0.00577   -0.03493   -0.10117
 20 Li    0.01133   -0.00234   -0.02439
 21 Li    0.00392   -0.01320   -0.01354
 22 Li   -0.01746    0.00465   -0.01205
 23 Li   -0.00662   -0.01077   -0.02825
 24 Li    0.00000    0.00068    0.09049
 25 Li    0.00466    0.00045    0.08702
 26 Li   -0.00263    0.00106   -0.06831
 27 Li    0.00692    0.01168   -0.08447
 28 Li    0.00767    0.00083    0.02433
 29 Li    0.00231   -0.01039   -0.01321
 30 Li    0.03356   -0.00019   -0.02841
 31 Li   -0.02312    0.03120    0.00648
 32 Li    0.00149   -0.00287    0.08999
 33 Li    0.00578    0.00074    0.09278
 34 Li    0.00145   -0.00361   -0.05981
 35 Li   -0.00371   -0.00288   -0.00297
 36 Li   -0.00894   -0.00517   -0.01496
 37 Li    0.00309   -0.00015   -0.00198
 38 Li    0.00571    0.00749   -0.01094
 39 Li   -0.00718    0.00293    0.00276
 40 Li    0.00382    0.00200    0.09166
 41 Li    0.00465   -0.00066    0.08610
 42 Li    0.00120    0.00293   -0.05732
 43 Li    0.00720   -0.01028   -0.08028
 44 Li   -0.01098   -0.00061    0.00271
 45 Li    0.00482    0.00987   -0.01058
 46 Li    0.00356   -0.00738   -0.01172
 47 Li    0.00123   -0.02230   -0.01667
 48 Li   -0.00312   -0.00055    0.08885
 49 Li   -0.00253   -0.00054    0.08694
 50 Li   -0.00197   -0.00564   -0.07925
 51 Li    0.00102   -0.00127   -0.06664
 52 Li    0.00028    0.00534   -0.01766
 53 Li    0.00183   -0.00655    0.01719
 54 Li   -0.01138   -0.02818   -0.00788
 55 Li   -0.01767    0.00140   -0.01937
 56 Li   -0.00286    0.00095    0.08777
 57 Li   -0.00640   -0.00072    0.09253
 58 Li   -0.00418    0.00243   -0.06939
 59 Li   -0.00020   -0.00161   -0.05845
 60 Li   -0.00271   -0.00342   -0.01269
 61 Li    0.00443    0.00142    0.00782
 62 Li   -0.02556    0.03010   -0.03491
 63 Li   -0.00191    0.00412   -0.01077
 64 Li   -0.00339   -0.00098    0.09099
 65 Li   -0.00333    0.00152    0.08773
 66 Li   -0.00014    0.00449   -0.02911
 67 Li   -0.00098    0.00279   -0.06260
 68 Li   -0.00236   -0.00112   -0.00958
 69 Li    0.00177    0.00901   -0.01327
 70 Li    0.00085   -0.00706   -0.00358
 71 Li   -0.00304   -0.00514   -0.00993
 72 Li    0.02284    0.01735    0.27192

System changes: positions 

Initializing position-dependent things.

Density initialized from wave functions
       .-----------------------------------.  
      /|                                   |  
     / |                                   |  
    /  |                                   |  
   /   |                                   |  
  /    |                                   |  
 *     |                                   |  
 |     |                                   |  
 |     |                                   |  
 |     |                                   |  
 |     |                                   |  
 |     |                                   |  
 |     |                                   |  
 |    Li          Li                       |  
 |     |   Li                 Li           |  
 |     |               Li          Li      |  
 |  LLiLi       Li          Li      Li     |  
 |     | Li Li   Li  Li Li       Li      Li|  
 |Li   |  Li  Li          Li LiLi Li       |  
 |     Li      Li  Li Li                   |  
 |    Li          Li       Li Li       Li  |  
 |     |Li Li       Li Li       Li Li      |  
 |  Li |     Li Li       Li Li             |  
 |     | Li Li       Li Li       Li Li     |  
 |Li Li|      Li Li       Li Li            |  
 |     Li Li       Li Li       Li Li       |  
 | Li  |       Li          Li              |  
 |     |Li          Li          Li         |  
 Li    |     Li          Li                |  
 |     |                                   |  
 |     |                                   |  
 |     |                                   |  
 |     |                                   |  
 |     |                                   |  
 |     .-----------------------------------.  
 |    /                                   /   
 |   /                                   /    
 |  /                                   /     
 | /                                   /      
 |/                                   /       
 *-----------------------------------*        

Atomic positions and initial magnetic moments

Positions:
   0 Li     0.000000    0.000000   10.000000    ( 0.0000,  0.0000,  0.0000)
   1 Li     2.467803    1.745000   10.000000    ( 0.0000,  0.0000,  0.0000)
   2 Li     2.467803    0.000000   12.467803    ( 0.0000,  0.0000,  0.0000)
   3 Li     0.000000    1.745000   12.467803    ( 0.0000,  0.0000,  0.0000)
   4 Li     0.017794   -0.030237   14.816649    ( 0.0000,  0.0000,  0.0000)
   5 Li     2.458873    1.805525   14.773442    ( 0.0000,  0.0000,  0.0000)
   6 Li     2.425477    0.049717   16.954615    ( 0.0000,  0.0000,  0.0000)
   7 Li     0.086046    1.644556   17.193413    ( 0.0000,  0.0000,  0.0000)
   8 Li     0.000000    3.490000   10.000000    ( 0.0000,  0.0000,  0.0000)
   9 Li     2.467803    5.235000   10.000000    ( 0.0000,  0.0000,  0.0000)
  10 Li     2.467803    3.490000   12.467803    ( 0.0000,  0.0000,  0.0000)
  11 Li     0.000000    5.235000   12.467803    ( 0.0000,  0.0000,  0.0000)
  12 Li    -0.012217    3.478755   14.889258    ( 0.0000,  0.0000,  0.0000)
  13 Li     2.473860    5.214289   14.984502    ( 0.0000,  0.0000,  0.0000)
  14 Li     2.424345    3.343067   17.359957    ( 0.0000,  0.0000,  0.0000)
  15 Li     0.047705    5.187067   17.282189    ( 0.0000,  0.0000,  0.0000)
  16 Li     0.000000    6.980000   10.000000    ( 0.0000,  0.0000,  0.0000)
  17 Li     2.467803    8.725000   10.000000    ( 0.0000,  0.0000,  0.0000)
  18 Li     2.467803    6.980000   12.467803    ( 0.0000,  0.0000,  0.0000)
  19 Li     0.000000    8.725000   12.467803    ( 0.0000,  0.0000,  0.0000)
  20 Li    -0.012124    7.021429   14.976661    ( 0.0000,  0.0000,  0.0000)
  21 Li     2.473964    8.685258   14.809770    ( 0.0000,  0.0000,  0.0000)
  22 Li     2.443828    7.076081   17.303111    ( 0.0000,  0.0000,  0.0000)
  23 Li     0.086923    8.874257   17.395553    ( 0.0000,  0.0000,  0.0000)
  24 Li     4.935605    0.000000   10.000000    ( 0.0000,  0.0000,  0.0000)
  25 Li     7.403408    1.745000   10.000000    ( 0.0000,  0.0000,  0.0000)
  26 Li     7.403408    0.000000   12.467803    ( 0.0000,  0.0000,  0.0000)
  27 Li     4.935605    1.745000   12.467803    ( 0.0000,  0.0000,  0.0000)
  28 Li     4.919187    0.003960   14.871448    ( 0.0000,  0.0000,  0.0000)
  29 Li     7.406460    1.737002   14.896050    ( 0.0000,  0.0000,  0.0000)
  30 Li     7.363533    0.003038   17.249289    ( 0.0000,  0.0000,  0.0000)
  31 Li     4.828266    1.644001   17.374471    ( 0.0000,  0.0000,  0.0000)
  32 Li     4.935605    3.490000   10.000000    ( 0.0000,  0.0000,  0.0000)
  33 Li     7.403408    5.235000   10.000000    ( 0.0000,  0.0000,  0.0000)
  34 Li     7.403408    3.490000   12.467803    ( 0.0000,  0.0000,  0.0000)
  35 Li     4.935605    5.235000   12.467803    ( 0.0000,  0.0000,  0.0000)
  36 Li     4.949270    3.444544   14.943844    ( 0.0000,  0.0000,  0.0000)
  37 Li     7.398177    5.233594   14.898061    ( 0.0000,  0.0000,  0.0000)
  38 Li     7.351052    3.457413   17.239043    ( 0.0000,  0.0000,  0.0000)
  39 Li     4.861744    5.220209   17.255665    ( 0.0000,  0.0000,  0.0000)
  40 Li     4.935605    6.980000   10.000000    ( 0.0000,  0.0000,  0.0000)
  41 Li     7.403408    8.725000   10.000000    ( 0.0000,  0.0000,  0.0000)
  42 Li     7.403408    6.980000   12.467803    ( 0.0000,  0.0000,  0.0000)
  43 Li     4.935605    8.725000   12.467803    ( 0.0000,  0.0000,  0.0000)
  44 Li     4.945098    7.021447   14.946086    ( 0.0000,  0.0000,  0.0000)
  45 Li     7.406485    8.734398   14.893847    ( 0.0000,  0.0000,  0.0000)
  46 Li     7.351030    7.009548   17.239945    ( 0.0000,  0.0000,  0.0000)
  47 Li     4.822397    8.840908   17.369023    ( 0.0000,  0.0000,  0.0000)
  48 Li     9.871211    0.000000   10.000000    ( 0.0000,  0.0000,  0.0000)
  49 Li    12.339013    1.745000   10.000000    ( 0.0000,  0.0000,  0.0000)
  50 Li    12.339013    0.000000   12.467803    ( 0.0000,  0.0000,  0.0000)
  51 Li     9.871211    1.745000   12.467803    ( 0.0000,  0.0000,  0.0000)
  52 Li     9.869697    0.004005   14.898037    ( 0.0000,  0.0000,  0.0000)
  53 Li    12.345018    1.737040   14.882840    ( 0.0000,  0.0000,  0.0000)
  54 Li    12.422635    0.050411   17.317150    ( 0.0000,  0.0000,  0.0000)
  55 Li     9.891152    1.738937   17.239006    ( 0.0000,  0.0000,  0.0000)
  56 Li     9.871211    3.490000   10.000000    ( 0.0000,  0.0000,  0.0000)
  57 Li    12.339013    5.235000   10.000000    ( 0.0000,  0.0000,  0.0000)
  58 Li    12.339013    3.490000   12.467803    ( 0.0000,  0.0000,  0.0000)
  59 Li     9.871211    5.235000   12.467803    ( 0.0000,  0.0000,  0.0000)
  60 Li     9.869667    3.483209   14.893632    ( 0.0000,  0.0000,  0.0000)
  61 Li    12.338199    5.214271   14.923294    ( 0.0000,  0.0000,  0.0000)
  62 Li    12.434698    3.409987   17.306459    ( 0.0000,  0.0000,  0.0000)
  63 Li     9.897422    5.220221   17.235703    ( 0.0000,  0.0000,  0.0000)
  64 Li     9.871211    6.980000   10.000000    ( 0.0000,  0.0000,  0.0000)
  65 Li    12.339013    8.725000   10.000000    ( 0.0000,  0.0000,  0.0000)
  66 Li    12.339013    6.980000   12.467803    ( 0.0000,  0.0000,  0.0000)
  67 Li     9.871211    8.725000   12.467803    ( 0.0000,  0.0000,  0.0000)
  68 Li     9.873822    6.982794   14.895729    ( 0.0000,  0.0000,  0.0000)
  69 Li    12.329882    8.753729   14.918956    ( 0.0000,  0.0000,  0.0000)
  70 Li    12.415235    7.009551   17.249950    ( 0.0000,  0.0000,  0.0000)
  71 Li     9.897410    8.745846   17.233883    ( 0.0000,  0.0000,  0.0000)
  72 Li     1.645030    0.582125   19.325444    ( 0.0000,  0.0000,  0.0000)

Unit cell:
           periodic     x           y           z      points  spacing
  1. axis:    yes   14.806816    0.000000    0.000000    49     0.3022
  2. axis:    yes    0.000000   10.470000    0.000000    35     0.2991
  3. axis:    no     0.000000    0.000000   27.403408    90     0.3045

  Lengths:  14.806816  10.470000  27.403408
  Angles:   90.000000  90.000000  90.000000

Effective grid spacing dv^(1/3) = 0.3019

     iter     time        total  log10-change:
                         energy   eigst   dens
iter:   1 04:02:04  -128.528722   -4.68
iter:   2 04:02:07  -128.528286   -4.82  -2.66
iter:   3 04:02:10  -128.528316c  -5.49c -2.85
iter:   4 04:02:13  -128.528481c  -5.43c -3.24
iter:   5 04:02:17  -128.528354c  -5.72c -3.49
iter:   6 04:02:20  -128.528326c  -5.80c -3.57
iter:   7 04:02:22  -128.528343c  -5.91c -3.95
iter:   8 04:02:26  -128.528335c  -5.92c -4.00
iter:   9 04:02:29  -128.528300c  -5.87c -4.15c

Converged after 9 iterations.

Dipole moment: (-5.665478, -4.388536, 0.352858) |e|*Ang

Energy contributions relative to reference atoms: (reference = -14803.510878)

Kinetic:       +114.568798
Potential:     -100.211468
External:        +0.000000
XC:            -141.706079
Entropy (-ST):   -1.393104
Local:           -0.482999
SIC:             +0.000000
--------------------------
Free energy:   -129.224852
Extrapolated:  -128.528300

Showing all kpts
 Kpt  Band  Eigenvalues  Occupancy
  0    34     -1.93946    1.51997
  0    35     -1.89295    1.33083
  0    36     -1.81989    0.97846
  0    37     -1.75622    0.67261

  1    34     -1.93771    1.51355
  1    35     -1.89313    1.33162
  1    36     -1.82014    0.97968
  1    37     -1.75595    0.67140


Fermi level: -1.82420

Gap: 0.073 eV
Transition (v -> c):
  (s=0, k=0, n=35, [0.25, -0.25, 0.00]) -> (s=0, k=1, n=36, [0.25, 0.25, 0.00])
Direct/indirect transitions are different
Direct gap: 0.073 eV
Transition at: (s=0, k=1, n=35, [0.25, 0.25, 0.00])

Forces in eV/Ang:
  0 Li    0.00135    0.00079    0.09927
  1 Li   -0.00077   -0.00103    0.10340
  2 Li    0.00353   -0.00726   -0.07442
  3 Li   -0.00731    0.01340   -0.08646
  4 Li   -0.02153   -0.00362    0.00602
  5 Li    0.00815    0.01770   -0.00582
  6 Li    0.11506   -0.09420   -0.27712
  7 Li   -0.09071    0.08404   -0.09640
  8 Li    0.00169   -0.00445    0.09737
  9 Li    0.00024   -0.00222    0.08373
 10 Li    0.00189    0.05410   -0.11940
 11 Li    0.00699    0.01580   -0.02474
 12 Li    0.00200    0.00078   -0.01105
 13 Li   -0.00629    0.00282   -0.03379
 14 Li    0.00657   -0.02022   -0.00960
 15 Li    0.01470    0.01188   -0.00905
 16 Li    0.00004    0.00372    0.08874
 17 Li   -0.00125    0.00314    0.10277
 18 Li   -0.00343   -0.04064   -0.07870
 19 Li   -0.00590   -0.03507   -0.10117
 20 Li    0.01115   -0.00182   -0.02412
 21 Li    0.00382   -0.01417   -0.01478
 22 Li   -0.01713    0.00431   -0.01199
 23 Li   -0.00623   -0.01020   -0.02782
 24 Li   -0.00001    0.00065    0.09031
 25 Li    0.00463    0.00030    0.08664
 26 Li   -0.00248    0.00111   -0.06854
 27 Li    0.00709    0.01166   -0.08452
 28 Li    0.00760    0.00084    0.02361
 29 Li    0.00238   -0.01000   -0.01321
 30 Li    0.03286   -0.00015   -0.02799
 31 Li   -0.02210    0.03079    0.00666
 32 Li    0.00137   -0.00297    0.08994
 33 Li    0.00573    0.00072    0.09268
 34 Li    0.00131   -0.00372   -0.05969
 35 Li   -0.00371   -0.00275   -0.00321
 36 Li   -0.00886   -0.00516   -0.01471
 37 Li    0.00309   -0.00011   -0.00208
 38 Li    0.00557    0.00740   -0.01085
 39 Li   -0.00734    0.00270    0.00331
 40 Li    0.00370    0.00214    0.09189
 41 Li    0.00451   -0.00054    0.08586
 42 Li    0.00113    0.00293   -0.05727
 43 Li    0.00735   -0.01034   -0.08025
 44 Li   -0.01078   -0.00034    0.00261
 45 Li    0.00492    0.00946   -0.01066
 46 Li    0.00362   -0.00732   -0.01153
 47 Li    0.00201   -0.02246   -0.01637
 48 Li   -0.00318   -0.00043    0.08851
 49 Li   -0.00250   -0.00054    0.08674
 50 Li   -0.00212   -0.00559   -0.07959
 51 Li    0.00099   -0.00145   -0.06679
 52 Li    0.00008    0.00515   -0.01745
 53 Li    0.00206   -0.00644    0.01694
 54 Li   -0.01188   -0.02788   -0.00754
 55 Li   -0.01735    0.00133   -0.01915
 56 Li   -0.00275    0.00094    0.08747
 57 Li   -0.00636   -0.00072    0.09277
 58 Li   -0.00416    0.00245   -0.06934
 59 Li   -0.00014   -0.00154   -0.05837
 60 Li   -0.00281   -0.00314   -0.01256
 61 Li    0.00421    0.00143    0.00737
 62 Li   -0.02552    0.02990   -0.03453
 63 Li   -0.00216    0.00417   -0.01092
 64 Li   -0.00328   -0.00102    0.09084
 65 Li   -0.00319    0.00151    0.08752
 66 Li   -0.00010    0.00439   -0.02910
 67 Li   -0.00096    0.00295   -0.06262
 68 Li   -0.00237   -0.00128   -0.00943
 69 Li    0.00190    0.00871   -0.01310
 70 Li    0.00096   -0.00669   -0.00331
 71 Li   -0.00307   -0.00521   -0.00987
 72 Li    0.02355    0.01666    0.25964

System changes: positions 

Initializing position-dependent things.

Density initialized from wave functions
       .-----------------------------------.  
      /|                                   |  
     / |                                   |  
    /  |                                   |  
   /   |                                   |  
  /    |                                   |  
 *     |                                   |  
 |     |                                   |  
 |     |                                   |  
 |     |                                   |  
 |     |                                   |  
 |     |                                   |  
 |     |                                   |  
 |    Li          Li                       |  
 |     |   Li                 Li           |  
 |     |               Li          Li      |  
 |  LLiLi       Li          Li      Li     |  
 |     | Li Li   Li  Li Li       Li      Li|  
 |Li   |  Li  Li          Li LiLi Li       |  
 |     Li      Li  Li Li                   |  
 |    Li          Li       Li Li       Li  |  
 |     |Li Li       Li Li       Li Li      |  
 |  Li |     Li Li       Li Li             |  
 |     | Li Li       Li Li       Li Li     |  
 |Li Li|      Li Li       Li Li            |  
 |     Li Li       Li Li       Li Li       |  
 | Li  |       Li          Li              |  
 |     |Li          Li          Li         |  
 Li    |     Li          Li                |  
 |     |                                   |  
 |     |                                   |  
 |     |                                   |  
 |     |                                   |  
 |     |                                   |  
 |     .-----------------------------------.  
 |    /                                   /   
 |   /                                   /    
 |  /                                   /     
 | /                                   /      
 |/                                   /       
 *-----------------------------------*        

Atomic positions and initial magnetic moments

Positions:
   0 Li     0.000000    0.000000   10.000000    ( 0.0000,  0.0000,  0.0000)
   1 Li     2.467803    1.745000   10.000000    ( 0.0000,  0.0000,  0.0000)
   2 Li     2.467803    0.000000   12.467803    ( 0.0000,  0.0000,  0.0000)
   3 Li     0.000000    1.745000   12.467803    ( 0.0000,  0.0000,  0.0000)
   4 Li     0.017351   -0.030338   14.816739    ( 0.0000,  0.0000,  0.0000)
   5 Li     2.459030    1.805845   14.773381    ( 0.0000,  0.0000,  0.0000)
   6 Li     2.427786    0.047848   16.949187    ( 0.0000,  0.0000,  0.0000)
   7 Li     0.084154    1.646313   17.191220    ( 0.0000,  0.0000,  0.0000)
   8 Li     0.000000    3.490000   10.000000    ( 0.0000,  0.0000,  0.0000)
   9 Li     2.467803    5.235000   10.000000    ( 0.0000,  0.0000,  0.0000)
  10 Li     2.467803    3.490000   12.467803    ( 0.0000,  0.0000,  0.0000)
  11 Li     0.000000    5.235000   12.467803    ( 0.0000,  0.0000,  0.0000)
  12 Li    -0.012170    3.478817   14.888962    ( 0.0000,  0.0000,  0.0000)
  13 Li     2.473739    5.214329   14.983813    ( 0.0000,  0.0000,  0.0000)
  14 Li     2.424437    3.342655   17.359798    ( 0.0000,  0.0000,  0.0000)
  15 Li     0.047977    5.187260   17.282024    ( 0.0000,  0.0000,  0.0000)
  16 Li     0.000000    6.980000   10.000000    ( 0.0000,  0.0000,  0.0000)
  17 Li     2.467803    8.725000   10.000000    ( 0.0000,  0.0000,  0.0000)
  18 Li     2.467803    6.980000   12.467803    ( 0.0000,  0.0000,  0.0000)
  19 Li     0.000000    8.725000   12.467803    ( 0.0000,  0.0000,  0.0000)
  20 Li    -0.011893    7.021368   14.976183    ( 0.0000,  0.0000,  0.0000)
  21 Li     2.474047    8.685032   14.809562    ( 0.0000,  0.0000,  0.0000)
  22 Li     2.443459    7.076124   17.302850    ( 0.0000,  0.0000,  0.0000)
  23 Li     0.086752    8.874045   17.394957    ( 0.0000,  0.0000,  0.0000)
  24 Li     4.935605    0.000000   10.000000    ( 0.0000,  0.0000,  0.0000)
  25 Li     7.403408    1.745000   10.000000    ( 0.0000,  0.0000,  0.0000)
  26 Li     7.403408    0.000000   12.467803    ( 0.0000,  0.0000,  0.0000)
  27 Li     4.935605    1.745000   12.467803    ( 0.0000,  0.0000,  0.0000)
  28 Li     4.919350    0.003980   14.871938    ( 0.0000,  0.0000,  0.0000)
  29 Li     7.406505    1.736802   14.895788    ( 0.0000,  0.0000,  0.0000)
  30 Li     7.364217    0.003038   17.248714    ( 0.0000,  0.0000,  0.0000)
  31 Li     4.827836    1.644671   17.374547    ( 0.0000,  0.0000,  0.0000)
  32 Li     4.935605    3.490000   10.000000    ( 0.0000,  0.0000,  0.0000)
  33 Li     7.403408    5.235000   10.000000    ( 0.0000,  0.0000,  0.0000)
  34 Li     7.403408    3.490000   12.467803    ( 0.0000,  0.0000,  0.0000)
  35 Li     4.935605    5.235000   12.467803    ( 0.0000,  0.0000,  0.0000)
  36 Li     4.949087    3.444457   14.943522    ( 0.0000,  0.0000,  0.0000)
  37 Li     7.398241    5.233590   14.898018    ( 0.0000,  0.0000,  0.0000)
  38 Li     7.351190    3.457574   17.238819    ( 0.0000,  0.0000,  0.0000)
  39 Li     4.861596    5.220251   17.255721    ( 0.0000,  0.0000,  0.0000)
  40 Li     4.935605    6.980000   10.000000    ( 0.0000,  0.0000,  0.0000)
  41 Li     7.403408    8.725000   10.000000    ( 0.0000,  0.0000,  0.0000)
  42 Li     7.403408    6.980000   12.467803    ( 0.0000,  0.0000,  0.0000)
  43 Li     4.935605    8.725000   12.467803    ( 0.0000,  0.0000,  0.0000)
  44 Li     4.944871    7.021417   14.946117    ( 0.0000,  0.0000,  0.0000)
  45 Li     7.406581    8.734589   14.893634    ( 0.0000,  0.0000,  0.0000)
  46 Li     7.351128    7.009386   17.239709    ( 0.0000,  0.0000,  0.0000)
  47 Li     4.822447    8.840425   17.368631    ( 0.0000,  0.0000,  0.0000)
  48 Li     9.871211    0.000000   10.000000    ( 0.0000,  0.0000,  0.0000)
  49 Li    12.339013    1.745000   10.000000    ( 0.0000,  0.0000,  0.0000)
  50 Li    12.339013    0.000000   12.467803    ( 0.0000,  0.0000,  0.0000)
  51 Li     9.871211    1.745000   12.467803    ( 0.0000,  0.0000,  0.0000)
  52 Li     9.869699    0.004114   14.897684    ( 0.0000,  0.0000,  0.0000)
  53 Li    12.345067    1.736913   14.883171    ( 0.0000,  0.0000,  0.0000)
  54 Li    12.422424    0.049898   17.317051    ( 0.0000,  0.0000,  0.0000)
  55 Li     9.890821    1.738967   17.238630    ( 0.0000,  0.0000,  0.0000)
  56 Li     9.871211    3.490000   10.000000    ( 0.0000,  0.0000,  0.0000)
  57 Li    12.339013    5.235000   10.000000    ( 0.0000,  0.0000,  0.0000)
  58 Li    12.339013    3.490000   12.467803    ( 0.0000,  0.0000,  0.0000)
  59 Li     9.871211    5.235000   12.467803    ( 0.0000,  0.0000,  0.0000)
  60 Li     9.869610    3.483141   14.893380    ( 0.0000,  0.0000,  0.0000)
  61 Li    12.338277    5.214279   14.923468    ( 0.0000,  0.0000,  0.0000)
  62 Li    12.434203    3.410553   17.305824    ( 0.0000,  0.0000,  0.0000)
  63 Li     9.897407    5.220290   17.235490    ( 0.0000,  0.0000,  0.0000)
  64 Li     9.871211    6.980000   10.000000    ( 0.0000,  0.0000,  0.0000)
  65 Li    12.339013    8.725000   10.000000    ( 0.0000,  0.0000,  0.0000)
  66 Li    12.339013    6.980000   12.467803    ( 0.0000,  0.0000,  0.0000)
  67 Li     9.871211    8.725000   12.467803    ( 0.0000,  0.0000,  0.0000)
  68 Li     9.873777    6.982768   14.895541    ( 0.0000,  0.0000,  0.0000)
  69 Li    12.329914    8.753922   14.918716    ( 0.0000,  0.0000,  0.0000)
  70 Li    12.415251    7.009400   17.249887    ( 0.0000,  0.0000,  0.0000)
  71 Li     9.897374    8.745754   17.233690    ( 0.0000,  0.0000,  0.0000)
  72 Li     1.644700    0.583028   19.330757    ( 0.0000,  0.0000,  0.0000)

Unit cell:
           periodic     x           y           z      points  spacing
  1. axis:    yes   14.806816    0.000000    0.000000    49     0.3022
  2. axis:    yes    0.000000   10.470000    0.000000    35     0.2991
  3. axis:    no     0.000000    0.000000   27.403408    90     0.3045

  Lengths:  14.806816  10.470000  27.403408
  Angles:   90.000000  90.000000  90.000000

Effective grid spacing dv^(1/3) = 0.3019

     iter     time        total  log10-change:
                         energy   eigst   dens
iter:   1 04:04:31  -128.533883   -4.20
iter:   2 04:04:34  -128.532358   -4.50  -2.37
iter:   3 04:04:37  -128.532256c  -5.49c -2.56
iter:   4 04:04:40  -128.532602c  -5.20  -2.96
iter:   5 04:04:43  -128.532350c  -5.83c -3.21
iter:   6 04:04:46  -128.532331c  -6.06c -3.30
iter:   7 04:04:49  -128.532391c  -6.28c -3.69
iter:   8 04:04:52  -128.532382c  -6.45c -3.77
iter:   9 04:04:56  -128.532329c  -6.28c -3.95
iter:  10 04:04:58  -128.532339c  -6.69c -4.11c

Converged after 10 iterations.

Dipole moment: (-5.634352, -4.350245, 0.355451) |e|*Ang

Energy contributions relative to reference atoms: (reference = -14803.510878)

Kinetic:       +114.539542
Potential:     -100.194092
External:        +0.000000
XC:            -141.698234
Entropy (-ST):   -1.393335
Local:           -0.482888
SIC:             +0.000000
--------------------------
Free energy:   -129.229007
Extrapolated:  -128.532339

Showing all kpts
 Kpt  Band  Eigenvalues  Occupancy
  0    34     -1.93920    1.51988
  0    35     -1.89265    1.33056
  0    36     -1.81957    0.97803
  0    37     -1.75594    0.67244

  1    34     -1.93742    1.51339
  1    35     -1.89280    1.33120
  1    36     -1.81981    0.97924
  1    37     -1.75572    0.67143


Fermi level: -1.82396

Gap: 0.073 eV
Transition (v -> c):
  (s=0, k=0, n=35, [0.25, -0.25, 0.00]) -> (s=0, k=1, n=36, [0.25, 0.25, 0.00])
Direct/indirect transitions are different
Direct gap: 0.073 eV
Transition at: (s=0, k=1, n=35, [0.25, 0.25, 0.00])

Forces in eV/Ang:
  0 Li    0.00132    0.00080    0.09923
  1 Li   -0.00076   -0.00104    0.10339
  2 Li    0.00355   -0.00724   -0.07386
  3 Li   -0.00740    0.01340   -0.08652
  4 Li   -0.02087   -0.00369    0.00498
  5 Li    0.00765    0.01857   -0.00746
  6 Li    0.10565   -0.08811   -0.25628
  7 Li   -0.08419    0.07915   -0.09117
  8 Li    0.00166   -0.00451    0.09750
  9 Li    0.00022   -0.00223    0.08368
 10 Li    0.00189    0.05432   -0.11990
 11 Li    0.00699    0.01587   -0.02491
 12 Li    0.00192    0.00167   -0.01165
 13 Li   -0.00618    0.00237   -0.03294
 14 Li    0.00574   -0.01962   -0.00984
 15 Li    0.01444    0.01141   -0.00897
 16 Li    0.00005    0.00378    0.08879
 17 Li   -0.00122    0.00314    0.10283
 18 Li   -0.00344   -0.04089   -0.07912
 19 Li   -0.00596   -0.03512   -0.10142
 20 Li    0.01086   -0.00137   -0.02356
 21 Li    0.00358   -0.01630   -0.01709
 22 Li   -0.01662    0.00384   -0.01230
 23 Li   -0.00529   -0.00900   -0.02737
 24 Li    0.00004    0.00065    0.09025
 25 Li    0.00469    0.00020    0.08643
 26 Li   -0.00245    0.00113   -0.06888
 27 Li    0.00719    0.01153   -0.08469
 28 Li    0.00795    0.00094    0.02240
 29 Li    0.00237   -0.00947   -0.01310
 30 Li    0.03160   -0.00010   -0.02746
 31 Li   -0.02049    0.02990    0.00674
 32 Li    0.00137   -0.00304    0.08996
 33 Li    0.00577    0.00071    0.09263
 34 Li    0.00117   -0.00379   -0.05973
 35 Li   -0.00379   -0.00264   -0.00318
 36 Li   -0.00864   -0.00501   -0.01402
 37 Li    0.00284   -0.00006   -0.00216
 38 Li    0.00525    0.00732   -0.01082
 39 Li   -0.00746    0.00239    0.00342
 40 Li    0.00371    0.00224    0.09197
 41 Li    0.00452   -0.00047    0.08573
 42 Li    0.00102    0.00294   -0.05727
 43 Li    0.00744   -0.01029   -0.08026
 44 Li   -0.01048   -0.00011    0.00250
 45 Li    0.00488    0.00891   -0.01055
 46 Li    0.00357   -0.00721   -0.01147
 47 Li    0.00328   -0.02262   -0.01590
 48 Li   -0.00322   -0.00034    0.08834
 49 Li   -0.00255   -0.00057    0.08666
 50 Li   -0.00221   -0.00548   -0.07991
 51 Li    0.00104   -0.00154   -0.06709
 52 Li   -0.00008    0.00494   -0.01703
 53 Li    0.00204   -0.00625    0.01644
 54 Li   -0.01248   -0.02736   -0.00719
 55 Li   -0.01677    0.00129   -0.01896
 56 Li   -0.00274    0.00090    0.08731
 57 Li   -0.00643   -0.00074    0.09282
 58 Li   -0.00412    0.00240   -0.06916
 59 Li   -0.00008   -0.00154   -0.05860
 60 Li   -0.00279   -0.00287   -0.01230
 61 Li    0.00405    0.00155    0.00677
 62 Li   -0.02558    0.02987   -0.03385
 63 Li   -0.00235    0.00424   -0.01106
 64 Li   -0.00328   -0.00105    0.09074
 65 Li   -0.00317    0.00156    0.08741
 66 Li    0.00002    0.00430   -0.02904
 67 Li   -0.00088    0.00304   -0.06281
 68 Li   -0.00216   -0.00138   -0.00919
 69 Li    0.00194    0.00809   -0.01269
 70 Li    0.00110   -0.00631   -0.00327
 71 Li   -0.00312   -0.00529   -0.00990
 72 Li    0.02491    0.01528    0.23969

System changes: positions 

Initializing position-dependent things.

Density initialized from wave functions
       .-----------------------------------.  
      /|                                   |  
     / |                                   |  
    /  |                                   |  
   /   |                                   |  
  /    |                                   |  
 *     |                                   |  
 |     |                                   |  
 |     |                                   |  
 |     |                                   |  
 |     |                                   |  
 |     |                                   |  
 |     |                                   |  
 |    Li          Li                       |  
 |     |   Li                 Li           |  
 |     |               Li          Li      |  
 |  LLiLi       Li          Li      Li     |  
 |     | Li LiLi Li  Li Li       Li      Li|  
 |Li   |  Li              Li LiLi Li       |  
 |     Li      Li  Li Li                   |  
 |    Li          Li       Li Li       Li  |  
 |     |Li Li       Li Li       Li Li      |  
 |  Li |     Li Li       Li Li             |  
 |     | Li Li       Li Li       Li Li     |  
 |Li Li|      Li Li       Li Li            |  
 |     Li Li       Li Li       Li Li       |  
 | Li  |       Li          Li              |  
 |     |Li          Li          Li         |  
 Li    |     Li          Li                |  
 |     |                                   |  
 |     |                                   |  
 |     |                                   |  
 |     |                                   |  
 |     |                                   |  
 |     .-----------------------------------.  
 |    /                                   /   
 |   /                                   /    
 |  /                                   /     
 | /                                   /      
 |/                                   /       
 *-----------------------------------*        

Atomic positions and initial magnetic moments

Positions:
   0 Li     0.000000    0.000000   10.000000    ( 0.0000,  0.0000,  0.0000)
   1 Li     2.467803    1.745000   10.000000    ( 0.0000,  0.0000,  0.0000)
   2 Li     2.467803    0.000000   12.467803    ( 0.0000,  0.0000,  0.0000)
   3 Li     0.000000    1.745000   12.467803    ( 0.0000,  0.0000,  0.0000)
   4 Li     0.016693   -0.030491   14.816856    ( 0.0000,  0.0000,  0.0000)
   5 Li     2.459259    1.806343   14.773259    ( 0.0000,  0.0000,  0.0000)
   6 Li     2.431127    0.045121   16.941315    ( 0.0000,  0.0000,  0.0000)
   7 Li     0.081399    1.648889   17.187998    ( 0.0000,  0.0000,  0.0000)
   8 Li     0.000000    3.490000   10.000000    ( 0.0000,  0.0000,  0.0000)
   9 Li     2.467803    5.235000   10.000000    ( 0.0000,  0.0000,  0.0000)
  10 Li     2.467803    3.490000   12.467803    ( 0.0000,  0.0000,  0.0000)
  11 Li     0.000000    5.235000   12.467803    ( 0.0000,  0.0000,  0.0000)
  12 Li    -0.012101    3.478923   14.888509    ( 0.0000,  0.0000,  0.0000)
  13 Li     2.473558    5.214383   14.982788    ( 0.0000,  0.0000,  0.0000)
  14 Li     2.424566    3.342045   17.359555    ( 0.0000,  0.0000,  0.0000)
  15 Li     0.048385    5.187546   17.281778    ( 0.0000,  0.0000,  0.0000)
  16 Li     0.000000    6.980000   10.000000    ( 0.0000,  0.0000,  0.0000)
  17 Li     2.467803    8.725000   10.000000    ( 0.0000,  0.0000,  0.0000)
  18 Li     2.467803    6.980000   12.467803    ( 0.0000,  0.0000,  0.0000)
  19 Li     0.000000    8.725000   12.467803    ( 0.0000,  0.0000,  0.0000)
  20 Li    -0.011549    7.021285   14.975470    ( 0.0000,  0.0000,  0.0000)
  21 Li     2.474169    8.684659   14.809211    ( 0.0000,  0.0000,  0.0000)
  22 Li     2.442911    7.076182   17.302454    ( 0.0000,  0.0000,  0.0000)
  23 Li     0.086510    8.873744   17.394068    ( 0.0000,  0.0000,  0.0000)
  24 Li     4.935605    0.000000   10.000000    ( 0.0000,  0.0000,  0.0000)
  25 Li     7.403408    1.745000   10.000000    ( 0.0000,  0.0000,  0.0000)
  26 Li     7.403408    0.000000   12.467803    ( 0.0000,  0.0000,  0.0000)
  27 Li     4.935605    1.745000   12.467803    ( 0.0000,  0.0000,  0.0000)
  28 Li     4.919599    0.004013   14.872659    ( 0.0000,  0.0000,  0.0000)
  29 Li     7.406574    1.736509   14.895393    ( 0.0000,  0.0000,  0.0000)
  30 Li     7.365229    0.003038   17.247857    ( 0.0000,  0.0000,  0.0000)
  31 Li     4.827214    1.645666   17.374666    ( 0.0000,  0.0000,  0.0000)
  32 Li     4.935605    3.490000   10.000000    ( 0.0000,  0.0000,  0.0000)
  33 Li     7.403408    5.235000   10.000000    ( 0.0000,  0.0000,  0.0000)
  34 Li     7.403408    3.490000   12.467803    ( 0.0000,  0.0000,  0.0000)
  35 Li     4.935605    5.235000   12.467803    ( 0.0000,  0.0000,  0.0000)
  36 Li     4.948815    3.444327   14.943049    ( 0.0000,  0.0000,  0.0000)
  37 Li     7.398335    5.233585   14.897951    ( 0.0000,  0.0000,  0.0000)
  38 Li     7.351393    3.457814   17.238484    ( 0.0000,  0.0000,  0.0000)
  39 Li     4.861371    5.220310   17.255809    ( 0.0000,  0.0000,  0.0000)
  40 Li     4.935605    6.980000   10.000000    ( 0.0000,  0.0000,  0.0000)
  41 Li     7.403408    8.725000   10.000000    ( 0.0000,  0.0000,  0.0000)
  42 Li     7.403408    6.980000   12.467803    ( 0.0000,  0.0000,  0.0000)
  43 Li     4.935605    8.725000   12.467803    ( 0.0000,  0.0000,  0.0000)
  44 Li     4.944535    7.021378   14.946163    ( 0.0000,  0.0000,  0.0000)
  45 Li     7.406726    8.734867   14.893313    ( 0.0000,  0.0000,  0.0000)
  46 Li     7.351273    7.009145   17.239353    ( 0.0000,  0.0000,  0.0000)
  47 Li     4.822543    8.839694   17.368050    ( 0.0000,  0.0000,  0.0000)
  48 Li     9.871211    0.000000   10.000000    ( 0.0000,  0.0000,  0.0000)
  49 Li    12.339013    1.745000   10.000000    ( 0.0000,  0.0000,  0.0000)
  50 Li    12.339013    0.000000   12.467803    ( 0.0000,  0.0000,  0.0000)
  51 Li     9.871211    1.745000   12.467803    ( 0.0000,  0.0000,  0.0000)
  52 Li     9.869699    0.004274   14.897157    ( 0.0000,  0.0000,  0.0000)
  53 Li    12.345142    1.736726   14.883662    ( 0.0000,  0.0000,  0.0000)
  54 Li    12.422097    0.049132   17.316907    ( 0.0000,  0.0000,  0.0000)
  55 Li     9.890330    1.739012   17.238066    ( 0.0000,  0.0000,  0.0000)
  56 Li     9.871211    3.490000   10.000000    ( 0.0000,  0.0000,  0.0000)
  57 Li    12.339013    5.235000   10.000000    ( 0.0000,  0.0000,  0.0000)
  58 Li    12.339013    3.490000   12.467803    ( 0.0000,  0.0000,  0.0000)
  59 Li     9.871211    5.235000   12.467803    ( 0.0000,  0.0000,  0.0000)
  60 Li     9.869524    3.483044   14.893003    ( 0.0000,  0.0000,  0.0000)
  61 Li    12.338392    5.214294   14.923719    ( 0.0000,  0.0000,  0.0000)
  62 Li    12.433456    3.411407   17.304875    ( 0.0000,  0.0000,  0.0000)
  63 Li     9.897379    5.220395   17.235165    ( 0.0000,  0.0000,  0.0000)
  64 Li     9.871211    6.980000   10.000000    ( 0.0000,  0.0000,  0.0000)
  65 Li    12.339013    8.725000   10.000000    ( 0.0000,  0.0000,  0.0000)
  66 Li    12.339013    6.980000   12.467803    ( 0.0000,  0.0000,  0.0000)
  67 Li     9.871211    8.725000   12.467803    ( 0.0000,  0.0000,  0.0000)
  68 Li     9.873712    6.982728   14.895261    ( 0.0000,  0.0000,  0.0000)
  69 Li    12.329965    8.754204   14.918359    ( 0.0000,  0.0000,  0.0000)
  70 Li    12.415277    7.009178   17.249793    ( 0.0000,  0.0000,  0.0000)
  71 Li     9.897319    8.745612   17.233398    ( 0.0000,  0.0000,  0.0000)
  72 Li     1.644242    0.584353   19.338460    ( 0.0000,  0.0000,  0.0000)

Unit cell:
           periodic     x           y           z      points  spacing
  1. axis:    yes   14.806816    0.000000    0.000000    49     0.3022
  2. axis:    yes    0.000000   10.470000    0.000000    35     0.2991
  3. axis:    no     0.000000    0.000000   27.403408    90     0.3045

  Lengths:  14.806816  10.470000  27.403408
  Angles:   90.000000  90.000000  90.000000

Effective grid spacing dv^(1/3) = 0.3019

     iter     time        total  log10-change:
                         energy   eigst   dens
iter:   1 04:07:17  -128.542081   -3.84
iter:   2 04:07:20  -128.538290   -4.14  -2.19
iter:   3 04:07:23  -128.537707c  -5.20  -2.38
iter:   4 04:07:26  -128.538158c  -4.89  -2.79
iter:   5 04:07:29  -128.537793c  -5.63c -3.03
iter:   6 04:07:32  -128.537739c  -5.95c -3.14
iter:   7 04:07:35  -128.537836c  -6.26c -3.51
iter:   8 04:07:38  -128.537826c  -6.69c -3.60
iter:   9 04:07:42  -128.537749c  -6.59c -3.77
iter:  10 04:07:45  -128.537770c  -7.07c -3.93
iter:  11 04:07:48  -128.537787c  -6.82c -4.05c

Converged after 11 iterations.

Dipole moment: (-5.588276, -4.293654, 0.358981) |e|*Ang

Energy contributions relative to reference atoms: (reference = -14803.510878)

Kinetic:       +114.498172
Potential:     -100.168206
External:        +0.000000
XC:            -141.688247
Entropy (-ST):   -1.393351
Local:           -0.482830
SIC:             +0.000000
--------------------------
Free energy:   -129.234463
Extrapolated:  -128.537787

Showing all kpts
 Kpt  Band  Eigenvalues  Occupancy
  0    34     -1.93864    1.51978
  0    35     -1.89204    1.33017
  0    36     -1.81894    0.97752
  0    37     -1.75540    0.67240

  1    34     -1.93684    1.51319
  1    35     -1.89213    1.33060
  1    36     -1.81918    0.97872
  1    37     -1.75523    0.67164


Fermi level: -1.82343

Gap: 0.073 eV
Transition (v -> c):
  (s=0, k=0, n=35, [0.25, -0.25, 0.00]) -> (s=0, k=1, n=36, [0.25, 0.25, 0.00])
Direct/indirect transitions are different
Direct gap: 0.073 eV
Transition at: (s=0, k=1, n=35, [0.25, 0.25, 0.00])

Forces in eV/Ang:
  0 Li    0.00129    0.00081    0.09913
  1 Li   -0.00077   -0.00099    0.10333
  2 Li    0.00355   -0.00713   -0.07307
  3 Li   -0.00748    0.01332   -0.08643
  4 Li   -0.01996   -0.00367    0.00371
  5 Li    0.00688    0.01975   -0.00968
  6 Li    0.09220   -0.07925   -0.22638
  7 Li   -0.07477    0.07197   -0.08347
  8 Li    0.00167   -0.00456    0.09753
  9 Li    0.00026   -0.00229    0.08344
 10 Li    0.00195    0.05440   -0.12063
 11 Li    0.00689    0.01593   -0.02533
 12 Li    0.00188    0.00281   -0.01250
 13 Li   -0.00598    0.00167   -0.03154
 14 Li    0.00446   -0.01919   -0.00993
 15 Li    0.01414    0.01069   -0.00875
 16 Li    0.00001    0.00383    0.08868
 17 Li   -0.00122    0.00314    0.10281
 18 Li   -0.00339   -0.04111   -0.07987
 19 Li   -0.00607   -0.03503   -0.10175
 20 Li    0.01042   -0.00079   -0.02275
 21 Li    0.00321   -0.01919   -0.02053
 22 Li   -0.01598    0.00328   -0.01245
 23 Li   -0.00376   -0.00685   -0.02648
 24 Li    0.00008    0.00069    0.09012
 25 Li    0.00473    0.00023    0.08622
 26 Li   -0.00240    0.00114   -0.06926
 27 Li    0.00730    0.01137   -0.08476
 28 Li    0.00865    0.00118    0.02064
 29 Li    0.00225   -0.00876   -0.01304
 30 Li    0.02959    0.00003   -0.02658
 31 Li   -0.01856    0.02849    0.00697
 32 Li    0.00140   -0.00304    0.08996
 33 Li    0.00588    0.00073    0.09253
 34 Li    0.00107   -0.00375   -0.05982
 35 Li   -0.00371   -0.00255   -0.00323
 36 Li   -0.00829   -0.00480   -0.01308
 37 Li    0.00241   -0.00003   -0.00248
 38 Li    0.00466    0.00710   -0.01067
 39 Li   -0.00769    0.00193    0.00352
 40 Li    0.00380    0.00222    0.09194
 41 Li    0.00460   -0.00053    0.08556
 42 Li    0.00101    0.00287   -0.05737
 43 Li    0.00762   -0.01018   -0.08017
 44 Li   -0.00997    0.00008    0.00237
 45 Li    0.00476    0.00819   -0.01054
 46 Li    0.00335   -0.00702   -0.01129
 47 Li    0.00492   -0.02261   -0.01498
 48 Li   -0.00324   -0.00033    0.08819
 49 Li   -0.00258   -0.00060    0.08653
 50 Li   -0.00237   -0.00533   -0.08013
 51 Li    0.00113   -0.00157   -0.06747
 52 Li   -0.00009    0.00467   -0.01660
 53 Li    0.00187   -0.00611    0.01561
 54 Li   -0.01295   -0.02658   -0.00665
 55 Li   -0.01581    0.00128   -0.01860
 56 Li   -0.00280    0.00099    0.08714
 57 Li   -0.00660   -0.00073    0.09275
 58 Li   -0.00422    0.00232   -0.06890
 59 Li   -0.00011   -0.00152   -0.05897
 60 Li   -0.00270   -0.00261   -0.01211
 61 Li    0.00382    0.00172    0.00586
 62 Li   -0.02564    0.02971   -0.03266
 63 Li   -0.00249    0.00429   -0.01104
 64 Li   -0.00333   -0.00113    0.09062
 65 Li   -0.00320    0.00155    0.08731
 66 Li   -0.00002    0.00419   -0.02902
 67 Li   -0.00077    0.00304   -0.06310
 68 Li   -0.00185   -0.00138   -0.00909
 69 Li    0.00187    0.00740   -0.01219
 70 Li    0.00133   -0.00576   -0.00312
 71 Li   -0.00303   -0.00538   -0.00992
 72 Li    0.02683    0.01337    0.21112

System changes: positions 

Initializing position-dependent things.

Density initialized from wave functions
       .-----------------------------------.  
      /|                                   |  
     / |                                   |  
    /  |                                   |  
   /   |                                   |  
  /    |                                   |  
 *     |                                   |  
 |     |                                   |  
 |     |                                   |  
 |     |                                   |  
 |     |                                   |  
 |     |                                   |  
 |     |                                   |  
 |    Li          Li                       |  
 |     |   Li                 Li           |  
 |     |               Li          Li      |  
 |  LLiLi       Li          Li      Li     |  
 |     | Li LiLi Li  Li Li       Li      Li|  
 |Li   |  Li              Li LiLi Li       |  
 |     Li      Li  Li Li                   |  
 |    Li          Li       Li Li       Li  |  
 |     |Li Li       Li Li       Li Li      |  
 |  Li |     Li Li       Li Li             |  
 |     | Li Li       Li Li       Li Li     |  
 |Li Li|      Li Li       Li Li            |  
 |     Li Li       Li Li       Li Li       |  
 | Li  |       Li          Li              |  
 |     |Li          Li          Li         |  
 Li    |     Li          Li                |  
 |     |                                   |  
 |     |                                   |  
 |     |                                   |  
 |     |                                   |  
 |     |                                   |  
 |     .-----------------------------------.  
 |    /                                   /   
 |   /                                   /    
 |  /                                   /     
 | /                                   /      
 |/                                   /       
 *-----------------------------------*        

Atomic positions and initial magnetic moments

Positions:
   0 Li     0.000000    0.000000   10.000000    ( 0.0000,  0.0000,  0.0000)
   1 Li     2.467803    1.745000   10.000000    ( 0.0000,  0.0000,  0.0000)
   2 Li     2.467803    0.000000   12.467803    ( 0.0000,  0.0000,  0.0000)
   3 Li     0.000000    1.745000   12.467803    ( 0.0000,  0.0000,  0.0000)
   4 Li     0.015826   -0.030697   14.816986    ( 0.0000,  0.0000,  0.0000)
   5 Li     2.459553    1.807039   14.773045    ( 0.0000,  0.0000,  0.0000)
   6 Li     2.435358    0.041622   16.931310    ( 0.0000,  0.0000,  0.0000)
   7 Li     0.077879    1.652213   17.183820    ( 0.0000,  0.0000,  0.0000)
   8 Li     0.000000    3.490000   10.000000    ( 0.0000,  0.0000,  0.0000)
   9 Li     2.467803    5.235000   10.000000    ( 0.0000,  0.0000,  0.0000)
  10 Li     2.467803    3.490000   12.467803    ( 0.0000,  0.0000,  0.0000)
  11 Li     0.000000    5.235000   12.467803    ( 0.0000,  0.0000,  0.0000)
  12 Li    -0.012011    3.479086   14.887885    ( 0.0000,  0.0000,  0.0000)
  13 Li     2.473318    5.214441   14.981433    ( 0.0000,  0.0000,  0.0000)
  14 Li     2.424716    3.341235   17.359222    ( 0.0000,  0.0000,  0.0000)
  15 Li     0.048929    5.187919   17.281450    ( 0.0000,  0.0000,  0.0000)
  16 Li     0.000000    6.980000   10.000000    ( 0.0000,  0.0000,  0.0000)
  17 Li     2.467803    8.725000   10.000000    ( 0.0000,  0.0000,  0.0000)
  18 Li     2.467803    6.980000   12.467803    ( 0.0000,  0.0000,  0.0000)
  19 Li     0.000000    8.725000   12.467803    ( 0.0000,  0.0000,  0.0000)
  20 Li    -0.011096    7.021186   14.974525    ( 0.0000,  0.0000,  0.0000)
  21 Li     2.474326    8.684094   14.808665    ( 0.0000,  0.0000,  0.0000)
  22 Li     2.442187    7.076250   17.301916    ( 0.0000,  0.0000,  0.0000)
  23 Li     0.086215    8.873380   17.392888    ( 0.0000,  0.0000,  0.0000)
  24 Li     4.935605    0.000000   10.000000    ( 0.0000,  0.0000,  0.0000)
  25 Li     7.403408    1.745000   10.000000    ( 0.0000,  0.0000,  0.0000)
  26 Li     7.403408    0.000000   12.467803    ( 0.0000,  0.0000,  0.0000)
  27 Li     4.935605    1.745000   12.467803    ( 0.0000,  0.0000,  0.0000)
  28 Li     4.919947    0.004060   14.873594    ( 0.0000,  0.0000,  0.0000)
  29 Li     7.406666    1.736129   14.894862    ( 0.0000,  0.0000,  0.0000)
  30 Li     7.366552    0.003040   17.246720    ( 0.0000,  0.0000,  0.0000)
  31 Li     4.826418    1.646978   17.374833    ( 0.0000,  0.0000,  0.0000)
  32 Li     4.935605    3.490000   10.000000    ( 0.0000,  0.0000,  0.0000)
  33 Li     7.403408    5.235000   10.000000    ( 0.0000,  0.0000,  0.0000)
  34 Li     7.403408    3.490000   12.467803    ( 0.0000,  0.0000,  0.0000)
  35 Li     4.935605    5.235000   12.467803    ( 0.0000,  0.0000,  0.0000)
  36 Li     4.948455    3.444154   14.942430    ( 0.0000,  0.0000,  0.0000)
  37 Li     7.398454    5.233579   14.897856    ( 0.0000,  0.0000,  0.0000)
  38 Li     7.351654    3.458133   17.238034    ( 0.0000,  0.0000,  0.0000)
  39 Li     4.861062    5.220380   17.255933    ( 0.0000,  0.0000,  0.0000)
  40 Li     4.935605    6.980000   10.000000    ( 0.0000,  0.0000,  0.0000)
  41 Li     7.403408    8.725000   10.000000    ( 0.0000,  0.0000,  0.0000)
  42 Li     7.403408    6.980000   12.467803    ( 0.0000,  0.0000,  0.0000)
  43 Li     4.935605    8.725000   12.467803    ( 0.0000,  0.0000,  0.0000)
  44 Li     4.944093    7.021331   14.946223    ( 0.0000,  0.0000,  0.0000)
  45 Li     7.406920    8.735227   14.892882    ( 0.0000,  0.0000,  0.0000)
  46 Li     7.351465    7.008824   17.238879    ( 0.0000,  0.0000,  0.0000)
  47 Li     4.822707    8.838708   17.367286    ( 0.0000,  0.0000,  0.0000)
  48 Li     9.871211    0.000000   10.000000    ( 0.0000,  0.0000,  0.0000)
  49 Li    12.339013    1.745000   10.000000    ( 0.0000,  0.0000,  0.0000)
  50 Li    12.339013    0.000000   12.467803    ( 0.0000,  0.0000,  0.0000)
  51 Li     9.871211    1.745000   12.467803    ( 0.0000,  0.0000,  0.0000)
  52 Li     9.869697    0.004484   14.896457    ( 0.0000,  0.0000,  0.0000)
  53 Li    12.345241    1.736477   14.884310    ( 0.0000,  0.0000,  0.0000)
  54 Li    12.421641    0.048112   17.316723    ( 0.0000,  0.0000,  0.0000)
  55 Li     9.889684    1.739071   17.237313    ( 0.0000,  0.0000,  0.0000)
  56 Li     9.871211    3.490000   10.000000    ( 0.0000,  0.0000,  0.0000)
  57 Li    12.339013    5.235000   10.000000    ( 0.0000,  0.0000,  0.0000)
  58 Li    12.339013    3.490000   12.467803    ( 0.0000,  0.0000,  0.0000)
  59 Li     9.871211    5.235000   12.467803    ( 0.0000,  0.0000,  0.0000)
  60 Li     9.869409    3.482919   14.892499    ( 0.0000,  0.0000,  0.0000)
  61 Li    12.338541    5.214319   14.924039    ( 0.0000,  0.0000,  0.0000)
  62 Li    12.432447    3.412556   17.303617    ( 0.0000,  0.0000,  0.0000)
  63 Li     9.897335    5.220539   17.234726    ( 0.0000,  0.0000,  0.0000)
  64 Li     9.871211    6.980000   10.000000    ( 0.0000,  0.0000,  0.0000)
  65 Li    12.339013    8.725000   10.000000    ( 0.0000,  0.0000,  0.0000)
  66 Li    12.339013    6.980000   12.467803    ( 0.0000,  0.0000,  0.0000)
  67 Li     9.871211    8.725000   12.467803    ( 0.0000,  0.0000,  0.0000)
  68 Li     9.873630    6.982672   14.894888    ( 0.0000,  0.0000,  0.0000)
  69 Li    12.330033    8.754568   14.917888    ( 0.0000,  0.0000,  0.0000)
  70 Li    12.415318    7.008892   17.249671    ( 0.0000,  0.0000,  0.0000)
  71 Li     9.897243    8.745419   17.233004    ( 0.0000,  0.0000,  0.0000)
  72 Li     1.643705    0.586069   19.348255    ( 0.0000,  0.0000,  0.0000)

Unit cell:
           periodic     x           y           z      points  spacing
  1. axis:    yes   14.806816    0.000000    0.000000    49     0.3022
  2. axis:    yes    0.000000   10.470000    0.000000    35     0.2991
  3. axis:    no     0.000000    0.000000   27.403408    90     0.3045

  Lengths:  14.806816  10.470000  27.403408
  Angles:   90.000000  90.000000  90.000000

Effective grid spacing dv^(1/3) = 0.3019

     iter     time        total  log10-change:
                         energy   eigst   dens
iter:   1 04:10:21  -128.553824   -3.53
iter:   2 04:10:24  -128.545624   -3.80  -2.02
iter:   3 04:10:27  -128.543954c  -4.89  -2.22
iter:   4 04:10:30  -128.544450c  -4.59  -2.63
iter:   5 04:10:33  -128.543950c  -5.38c -2.90
iter:   6 04:10:36  -128.543829c  -5.71c -3.01
iter:   7 04:10:39  -128.543970c  -6.05c -3.37
iter:   8 04:10:43  -128.543965c  -6.62c -3.49
iter:   9 04:10:46  -128.543855c  -6.60c -3.63
iter:  10 04:10:49  -128.543887c  -7.21c -3.79
iter:  11 04:10:52  -128.543911c  -6.89c -3.93
iter:  12 04:10:55  -128.543870c  -7.14c -3.99
iter:  13 04:10:58  -128.543891c  -7.39c -4.12c

Converged after 13 iterations.

Dipole moment: (-5.529883, -4.221031, 0.364526) |e|*Ang

Energy contributions relative to reference atoms: (reference = -14803.510878)

Kinetic:       +114.446636
Potential:     -100.134639
External:        +0.000000
XC:            -141.676296
Entropy (-ST):   -1.393360
Local:           -0.482913
SIC:             +0.000000
--------------------------
Free energy:   -129.240571
Extrapolated:  -128.543891

Showing all kpts
 Kpt  Band  Eigenvalues  Occupancy
  0    34     -1.93770    1.51976
  0    35     -1.89105    1.32994
  0    36     -1.81786    0.97681
  0    37     -1.75442    0.67217

  1    34     -1.93588    1.51306
  1    35     -1.89110    1.33013
  1    36     -1.81810    0.97800
  1    37     -1.75429    0.67159


Fermi level: -1.82250

Gap: 0.073 eV
Transition (v -> c):
  (s=0, k=0, n=35, [0.25, -0.25, 0.00]) -> (s=0, k=1, n=36, [0.25, 0.25, 0.00])
Direct/indirect transitions are different
Direct gap: 0.073 eV
Transition at: (s=0, k=1, n=35, [0.25, 0.25, 0.00])

Forces in eV/Ang:
  0 Li    0.00134    0.00071    0.09910
  1 Li   -0.00083   -0.00078    0.10334
  2 Li    0.00357   -0.00714   -0.07201
  3 Li   -0.00743    0.01328   -0.08616
  4 Li   -0.01891   -0.00379    0.00135
  5 Li    0.00608    0.02120   -0.01327
  6 Li    0.07620   -0.06854   -0.19047
  7 Li   -0.06379    0.06357   -0.07474
  8 Li    0.00185   -0.00447    0.09750
  9 Li    0.00023   -0.00234    0.08316
 10 Li    0.00193    0.05452   -0.12144
 11 Li    0.00695    0.01602   -0.02574
 12 Li    0.00171    0.00455   -0.01399
 13 Li   -0.00584    0.00114   -0.02994
 14 Li    0.00306   -0.01786   -0.01084
 15 Li    0.01343    0.01010   -0.00928
 16 Li    0.00009    0.00385    0.08852
 17 Li   -0.00133    0.00297    0.10282
 18 Li   -0.00343   -0.04128   -0.08058
 19 Li   -0.00596   -0.03497   -0.10197
 20 Li    0.00998   -0.00040   -0.02203
 21 Li    0.00293   -0.02301   -0.02549
 22 Li   -0.01493    0.00216   -0.01349
 23 Li   -0.00220   -0.00503   -0.02618
 24 Li    0.00002    0.00070    0.08999
 25 Li    0.00469    0.00032    0.08607
 26 Li   -0.00246    0.00111   -0.06945
 27 Li    0.00722    0.01111   -0.08452
 28 Li    0.00967    0.00132    0.01810
 29 Li    0.00202   -0.00791   -0.01304
 30 Li    0.02715    0.00009   -0.02578
 31 Li   -0.01561    0.02671    0.00655
 32 Li    0.00124   -0.00292    0.08996
 33 Li    0.00593    0.00078    0.09251
 34 Li    0.00093   -0.00365   -0.05981
 35 Li   -0.00382   -0.00245   -0.00318
 36 Li   -0.00776   -0.00446   -0.01217
 37 Li    0.00184    0.00002   -0.00287
 38 Li    0.00413    0.00694   -0.01073
 39 Li   -0.00778    0.00174    0.00312
 40 Li    0.00369    0.00212    0.09188
 41 Li    0.00463   -0.00069    0.08544
 42 Li    0.00100    0.00279   -0.05737
 43 Li    0.00751   -0.00998   -0.07957
 44 Li   -0.00951    0.00029    0.00213
 45 Li    0.00448    0.00732   -0.01059
 46 Li    0.00307   -0.00682   -0.01127
 47 Li    0.00739   -0.02301   -0.01452
 48 Li   -0.00320   -0.00039    0.08817
 49 Li   -0.00250   -0.00061    0.08637
 50 Li   -0.00246   -0.00514   -0.08006
 51 Li    0.00129   -0.00157   -0.06768
 52 Li    0.00011    0.00432   -0.01615
 53 Li    0.00131   -0.00585    0.01432
 54 Li   -0.01421   -0.02556   -0.00660
 55 Li   -0.01450    0.00141   -0.01839
 56 Li   -0.00285    0.00117    0.08706
 57 Li   -0.00657   -0.00064    0.09269
 58 Li   -0.00417    0.00220   -0.06826
 59 Li   -0.00016   -0.00145   -0.05922
 60 Li   -0.00242   -0.00237   -0.01186
 61 Li    0.00370    0.00195    0.00478
 62 Li   -0.02625    0.02992   -0.03159
 63 Li   -0.00247    0.00435   -0.01111
 64 Li   -0.00337   -0.00123    0.09060
 65 Li   -0.00308    0.00145    0.08723
 66 Li    0.00008    0.00410   -0.02883
 67 Li   -0.00062    0.00296   -0.06327
 68 Li   -0.00139   -0.00128   -0.00895
 69 Li    0.00155    0.00648   -0.01177
 70 Li    0.00127   -0.00550   -0.00335
 71 Li   -0.00289   -0.00562   -0.01023
 72 Li    0.02943    0.01097    0.17730

System changes: positions 

Initializing position-dependent things.

Density initialized from wave functions
       .-----------------------------------.  
      /|                                   |  
     / |                                   |  
    /  |                                   |  
   /   |                                   |  
  /    |                                   |  
 *     |                                   |  
 |     |                                   |  
 |     |                                   |  
 |     |                                   |  
 |     |                                   |  
 |     |                                   |  
 |     |                                   |  
 |    Li          Li                       |  
 |     |   Li                 Li           |  
 |     |               Li          Li      |  
 |  LLiLi       Li          Li      Li     |  
 |     | Li LiLi Li  Li Li       Li      Li|  
 |Li   |  Li              Li LiLi Li       |  
 |     Li      Li  Li Li                   |  
 |    Li          Li       Li Li       Li  |  
 |     |Li Li       Li Li       Li Li      |  
 |  Li |     Li Li       Li Li             |  
 |     | Li Li       Li Li       Li Li     |  
 |Li Li|      Li Li       Li Li            |  
 |     Li Li       Li Li       Li Li       |  
 | Li  |       Li          Li              |  
 |     |Li          Li          Li         |  
 Li    |     Li          Li                |  
 |     |                                   |  
 |     |                                   |  
 |     |                                   |  
 |     |                                   |  
 |     |                                   |  
 |     .-----------------------------------.  
 |    /                                   /   
 |   /                                   /    
 |  /                                   /     
 | /                                   /      
 |/                                   /       
 *-----------------------------------*        

Atomic positions and initial magnetic moments

Positions:
   0 Li     0.000000    0.000000   10.000000    ( 0.0000,  0.0000,  0.0000)
   1 Li     2.467803    1.745000   10.000000    ( 0.0000,  0.0000,  0.0000)
   2 Li     2.467803    0.000000   12.467803    ( 0.0000,  0.0000,  0.0000)
   3 Li     0.000000    1.745000   12.467803    ( 0.0000,  0.0000,  0.0000)
   4 Li     0.014753   -0.030959   14.817096    ( 0.0000,  0.0000,  0.0000)
   5 Li     2.459906    1.807969   14.772677    ( 0.0000,  0.0000,  0.0000)
   6 Li     2.440302    0.037459   16.919561    ( 0.0000,  0.0000,  0.0000)
   7 Li     0.073708    1.656207   17.178760    ( 0.0000,  0.0000,  0.0000)
   8 Li     0.000000    3.490000   10.000000    ( 0.0000,  0.0000,  0.0000)
   9 Li     2.467803    5.235000   10.000000    ( 0.0000,  0.0000,  0.0000)
  10 Li     2.467803    3.490000   12.467803    ( 0.0000,  0.0000,  0.0000)
  11 Li     0.000000    5.235000   12.467803    ( 0.0000,  0.0000,  0.0000)
  12 Li    -0.011900    3.479335   14.887060    ( 0.0000,  0.0000,  0.0000)
  13 Li     2.473016    5.214498   14.979754    ( 0.0000,  0.0000,  0.0000)
  14 Li     2.424871    3.340234   17.358779    ( 0.0000,  0.0000,  0.0000)
  15 Li     0.049609    5.188378   17.281026    ( 0.0000,  0.0000,  0.0000)
  16 Li     0.000000    6.980000   10.000000    ( 0.0000,  0.0000,  0.0000)
  17 Li     2.467803    8.725000   10.000000    ( 0.0000,  0.0000,  0.0000)
  18 Li     2.467803    6.980000   12.467803    ( 0.0000,  0.0000,  0.0000)
  19 Li     0.000000    8.725000   12.467803    ( 0.0000,  0.0000,  0.0000)
  20 Li    -0.010532    7.021079   14.973343    ( 0.0000,  0.0000,  0.0000)
  21 Li     2.474515    8.683268   14.807834    ( 0.0000,  0.0000,  0.0000)
  22 Li     2.441293    7.076312   17.301213    ( 0.0000,  0.0000,  0.0000)
  23 Li     0.085889    8.872975   17.391406    ( 0.0000,  0.0000,  0.0000)
  24 Li     4.935605    0.000000   10.000000    ( 0.0000,  0.0000,  0.0000)
  25 Li     7.403408    1.745000   10.000000    ( 0.0000,  0.0000,  0.0000)
  26 Li     7.403408    0.000000   12.467803    ( 0.0000,  0.0000,  0.0000)
  27 Li     4.935605    1.745000   12.467803    ( 0.0000,  0.0000,  0.0000)
  28 Li     4.920412    0.004126   14.874718    ( 0.0000,  0.0000,  0.0000)
  29 Li     7.406778    1.735669   14.894186    ( 0.0000,  0.0000,  0.0000)
  30 Li     7.368167    0.003045   17.245297    ( 0.0000,  0.0000,  0.0000)
  31 Li     4.825479    1.648598   17.375047    ( 0.0000,  0.0000,  0.0000)
  32 Li     4.935605    3.490000   10.000000    ( 0.0000,  0.0000,  0.0000)
  33 Li     7.403408    5.235000   10.000000    ( 0.0000,  0.0000,  0.0000)
  34 Li     7.403408    3.490000   12.467803    ( 0.0000,  0.0000,  0.0000)
  35 Li     4.935605    5.235000   12.467803    ( 0.0000,  0.0000,  0.0000)
  36 Li     4.948011    3.443941   14.941673    ( 0.0000,  0.0000,  0.0000)
  37 Li     7.398591    5.233573   14.897725    ( 0.0000,  0.0000,  0.0000)
  38 Li     7.351969    3.458533   17.237463    ( 0.0000,  0.0000,  0.0000)
  39 Li     4.860665    5.220461   17.256088    ( 0.0000,  0.0000,  0.0000)
  40 Li     4.935605    6.980000   10.000000    ( 0.0000,  0.0000,  0.0000)
  41 Li     7.403408    8.725000   10.000000    ( 0.0000,  0.0000,  0.0000)
  42 Li     7.403408    6.980000   12.467803    ( 0.0000,  0.0000,  0.0000)
  43 Li     4.935605    8.725000   12.467803    ( 0.0000,  0.0000,  0.0000)
  44 Li     4.943545    7.021280   14.946295    ( 0.0000,  0.0000,  0.0000)
  45 Li     7.407162    8.735661   14.892332    ( 0.0000,  0.0000,  0.0000)
  46 Li     7.351701    7.008422   17.238277    ( 0.0000,  0.0000,  0.0000)
  47 Li     4.822980    8.837447   17.366336    ( 0.0000,  0.0000,  0.0000)
  48 Li     9.871211    0.000000   10.000000    ( 0.0000,  0.0000,  0.0000)
  49 Li    12.339013    1.745000   10.000000    ( 0.0000,  0.0000,  0.0000)
  50 Li    12.339013    0.000000   12.467803    ( 0.0000,  0.0000,  0.0000)
  51 Li     9.871211    1.745000   12.467803    ( 0.0000,  0.0000,  0.0000)
  52 Li     9.869695    0.004742   14.895580    ( 0.0000,  0.0000,  0.0000)
  53 Li    12.345357    1.736167   14.885104    ( 0.0000,  0.0000,  0.0000)
  54 Li    12.421032    0.046836   17.316493    ( 0.0000,  0.0000,  0.0000)
  55 Li     9.888894    1.739148   17.236361    ( 0.0000,  0.0000,  0.0000)
  56 Li     9.871211    3.490000   10.000000    ( 0.0000,  0.0000,  0.0000)
  57 Li    12.339013    5.235000   10.000000    ( 0.0000,  0.0000,  0.0000)
  58 Li    12.339013    3.490000   12.467803    ( 0.0000,  0.0000,  0.0000)
  59 Li     9.871211    5.235000   12.467803    ( 0.0000,  0.0000,  0.0000)
  60 Li     9.869268    3.482768   14.891866    ( 0.0000,  0.0000,  0.0000)
  61 Li    12.338728    5.214357   14.924413    ( 0.0000,  0.0000,  0.0000)
  62 Li    12.431150    3.414024   17.302042    ( 0.0000,  0.0000,  0.0000)
  63 Li     9.897275    5.220726   17.234165    ( 0.0000,  0.0000,  0.0000)
  64 Li     9.871211    6.980000   10.000000    ( 0.0000,  0.0000,  0.0000)
  65 Li    12.339013    8.725000   10.000000    ( 0.0000,  0.0000,  0.0000)
  66 Li    12.339013    6.980000   12.467803    ( 0.0000,  0.0000,  0.0000)
  67 Li     9.871211    8.725000   12.467803    ( 0.0000,  0.0000,  0.0000)
  68 Li     9.873536    6.982601   14.894417    ( 0.0000,  0.0000,  0.0000)
  69 Li    12.330116    8.755005   14.917300    ( 0.0000,  0.0000,  0.0000)
  70 Li    12.415373    7.008542   17.249513    ( 0.0000,  0.0000,  0.0000)
  71 Li     9.897147    8.745167   17.232497    ( 0.0000,  0.0000,  0.0000)
  72 Li     1.643154    0.588142   19.359775    ( 0.0000,  0.0000,  0.0000)

Unit cell:
           periodic     x           y           z      points  spacing
  1. axis:    yes   14.806816    0.000000    0.000000    49     0.3022
  2. axis:    yes    0.000000   10.470000    0.000000    35     0.2991
  3. axis:    no     0.000000    0.000000   27.403408    90     0.3045

  Lengths:  14.806816  10.470000  27.403408
  Angles:   90.000000  90.000000  90.000000

Effective grid spacing dv^(1/3) = 0.3019

     iter     time        total  log10-change:
                         energy   eigst   dens
iter:   1 04:13:55  -128.563277   -3.41
iter:   2 04:13:58  -128.552469   -3.69  -1.96
iter:   3 04:14:01  -128.550146c  -4.77  -2.17
iter:   4 04:14:04  -128.550638c  -4.47  -2.58
iter:   5 04:14:07  -128.550069c  -5.28  -2.84
iter:   6 04:14:10  -128.549917c  -5.60c -2.97
iter:   7 04:14:13  -128.550081c  -5.92c -3.30
iter:   8 04:14:16  -128.550066c  -6.55c -3.41
iter:   9 04:14:19  -128.549939c  -6.53c -3.57
iter:  10 04:14:22  -128.549979c  -7.20c -3.71
iter:  11 04:14:25  -128.550009c  -6.87c -3.86
iter:  12 04:14:28  -128.549961c  -7.21c -3.92
iter:  13 04:14:31  -128.549976c  -7.54c -4.05c

Converged after 13 iterations.

Dipole moment: (-5.460463, -4.133206, 0.370154) |e|*Ang

Energy contributions relative to reference atoms: (reference = -14803.510878)

Kinetic:       +114.396102
Potential:     -100.102207
External:        +0.000000
XC:            -141.664395
Entropy (-ST):   -1.393332
Local:           -0.482811
SIC:             +0.000000
--------------------------
Free energy:   -129.246642
Extrapolated:  -128.549976

Showing all kpts
 Kpt  Band  Eigenvalues  Occupancy
  0    34     -1.93660    1.51963
  0    35     -1.88990    1.32958
  0    36     -1.81665    0.97608
  0    37     -1.75335    0.67216

  1    34     -1.93474    1.51281
  1    35     -1.88988    1.32949
  1    36     -1.81688    0.97725
  1    37     -1.75326    0.67175


Fermi level: -1.82143

Gap: 0.073 eV
Transition (v -> c):
  (s=0, k=1, n=35, [0.25, 0.25, 0.00]) -> (s=0, k=1, n=36, [0.25, 0.25, 0.00])
No difference between direct/indirect transitions

Forces in eV/Ang:
  0 Li    0.00134    0.00069    0.09915
  1 Li   -0.00085   -0.00074    0.10344
  2 Li    0.00361   -0.00709   -0.07084
  3 Li   -0.00748    0.01324   -0.08596
  4 Li   -0.01745   -0.00387   -0.00103
  5 Li    0.00495    0.02271   -0.01690
  6 Li    0.05783   -0.05605   -0.14912
  7 Li   -0.05086    0.05343   -0.06375
  8 Li    0.00188   -0.00451    0.09771
  9 Li    0.00024   -0.00238    0.08310
 10 Li    0.00194    0.05487   -0.12258
 11 Li    0.00696    0.01620   -0.02632
 12 Li    0.00146    0.00652   -0.01553
 13 Li   -0.00552    0.00026   -0.02791
 14 Li    0.00136   -0.01659   -0.01140
 15 Li    0.01256    0.00909   -0.00956
 16 Li    0.00011    0.00391    0.08861
 17 Li   -0.00133    0.00298    0.10302
 18 Li   -0.00344   -0.04177   -0.08176
 19 Li   -0.00599   -0.03499   -0.10243
 20 Li    0.00925    0.00031   -0.02095
 21 Li    0.00247   -0.02729   -0.03082
 22 Li   -0.01367    0.00120   -0.01433
 23 Li   -0.00040   -0.00251   -0.02528
 24 Li    0.00006    0.00071    0.08998
 25 Li    0.00468    0.00029    0.08602
 26 Li   -0.00238    0.00110   -0.06995
 27 Li    0.00730    0.01084   -0.08456
 28 Li    0.01065    0.00153    0.01524
 29 Li    0.00197   -0.00679   -0.01293
 30 Li    0.02409    0.00023   -0.02470
 31 Li   -0.01224    0.02446    0.00650
 32 Li    0.00118   -0.00297    0.09015
 33 Li    0.00600    0.00077    0.09254
 34 Li    0.00081   -0.00363   -0.05983
 35 Li   -0.00391   -0.00228   -0.00310
 36 Li   -0.00710   -0.00395   -0.01086
 37 Li    0.00120    0.00012   -0.00336
 38 Li    0.00336    0.00674   -0.01074
 39 Li   -0.00786    0.00115    0.00284
 40 Li    0.00368    0.00219    0.09205
 41 Li    0.00464   -0.00069    0.08543
 42 Li    0.00094    0.00274   -0.05737
 43 Li    0.00763   -0.00982   -0.07925
 44 Li   -0.00872    0.00053    0.00183
 45 Li    0.00436    0.00614   -0.01054
 46 Li    0.00288   -0.00662   -0.01127
 47 Li    0.00998   -0.02309   -0.01351
 48 Li   -0.00322   -0.00037    0.08816
 49 Li   -0.00248   -0.00065    0.08635
[...]
 11 Li    0.00698    0.01640   -0.02717
 12 Li    0.00112    0.00867   -0.01724
 13 Li   -0.00518   -0.00060   -0.02549
 14 Li   -0.00046   -0.01499   -0.01212
 15 Li    0.01147    0.00803   -0.00996
 16 Li    0.00014    0.00395    0.08849
 17 Li   -0.00138    0.00288    0.10304
 18 Li   -0.00346   -0.04232   -0.08330
 19 Li   -0.00597   -0.03495   -0.10296
 20 Li    0.00840    0.00094   -0.01970
 21 Li    0.00202   -0.03164   -0.03648
 22 Li   -0.01212    0.00004   -0.01534
 23 Li    0.00142    0.00003   -0.02442
 24 Li    0.00007    0.00071    0.08980
 25 Li    0.00465    0.00031    0.08594
 26 Li   -0.00225    0.00108   -0.07050
 27 Li    0.00733    0.01053   -0.08446
 28 Li    0.01170    0.00173    0.01201
 29 Li    0.00179   -0.00548   -0.01283
 30 Li    0.02052    0.00037   -0.02341
 31 Li   -0.00853    0.02175    0.00624
 32 Li    0.00107   -0.00292    0.09023
 33 Li    0.00607    0.00079    0.09257
 34 Li    0.00074   -0.00350   -0.05992
 35 Li   -0.00395   -0.00213   -0.00315
 36 Li   -0.00624   -0.00343   -0.00942
 37 Li    0.00052    0.00019   -0.00399
 38 Li    0.00247    0.00651   -0.01073
 39 Li   -0.00797    0.00062    0.00252
 40 Li    0.00364    0.00217    0.09207
 41 Li    0.00465   -0.00077    0.08538
 42 Li    0.00101    0.00261   -0.05745
 43 Li    0.00770   -0.00961   -0.07871
 44 Li   -0.00782    0.00073    0.00152
 45 Li    0.00416    0.00482   -0.01053
 46 Li    0.00260   -0.00641   -0.01116
 47 Li    0.01274   -0.02311   -0.01250
 48 Li   -0.00323   -0.00040    0.08814
 49 Li   -0.00241   -0.00066    0.08618
 50 Li   -0.00282   -0.00465   -0.08036
 51 Li    0.00140   -0.00151   -0.06873
 52 Li    0.00018    0.00327   -0.01470
 53 Li    0.00039   -0.00520    0.01130
 54 Li   -0.01646   -0.02268   -0.00585
 55 Li   -0.01112    0.00165   -0.01769
 56 Li   -0.00295    0.00132    0.08711
 57 Li   -0.00667   -0.00066    0.09281
 58 Li   -0.00432    0.00198   -0.06712
 59 Li   -0.00031   -0.00137   -0.05994
 60 Li   -0.00211   -0.00147   -0.01108
 61 Li    0.00317    0.00253    0.00164
 62 Li   -0.02661    0.02953   -0.02828
 63 Li   -0.00307    0.00467   -0.01132
 64 Li   -0.00344   -0.00131    0.09067
 65 Li   -0.00293    0.00144    0.08729
 66 Li    0.00021    0.00373   -0.02859
 67 Li   -0.00043    0.00280   -0.06394
 68 Li   -0.00053   -0.00120   -0.00854
 69 Li    0.00095    0.00409   -0.01016
 70 Li    0.00156   -0.00405   -0.00353
 71 Li   -0.00257   -0.00629   -0.01091
 72 Li    0.03431    0.00593    0.09698

System changes: positions 

Initializing position-dependent things.

Density initialized from wave functions
       .-----------------------------------.  
      /|                                   |  
     / |                                   |  
    /  |                                   |  
   /   |                                   |  
  /    |                                   |  
 *     |                                   |  
 |     |                                   |  
 |     |                                   |  
 |     |                                   |  
 |     |                                   |  
 |     |                                   |  
 |     |                                   |  
 |    Li          Li                       |  
 |     |   Li                 Li           |  
 |     |               Li          Li      |  
 |  LLiLi       Li          Li      Li     |  
 |     | Li LiLi Li  Li Li       Li      Li|  
 |Li   |  Li              Li LiLi Li       |  
 |     Li      Li  Li Li                   |  
 |    Li          Li       Li Li       Li  |  
 |     |Li Li       Li Li       Li Li      |  
 |  Li |     Li Li       Li Li             |  
 |     | Li Li       Li Li       Li Li     |  
 |Li Li|      Li Li       Li Li            |  
 |     Li Li       Li Li       Li Li       |  
 | Li  |       Li          Li              |  
 |     |Li          Li          Li         |  
 Li    |     Li          Li                |  
 |     |                                   |  
 |     |                                   |  
 |     |                                   |  
 |     |                                   |  
 |     |                                   |  
 |     .-----------------------------------.  
 |    /                                   /   
 |   /                                   /    
 |  /                                   /     
 | /                                   /      
 |/                                   /       
 *-----------------------------------*        

Atomic positions and initial magnetic moments

Positions:
   0 Li     0.000000    0.000000   10.000000    ( 0.0000,  0.0000,  0.0000)
   1 Li     2.467803    1.745000   10.000000    ( 0.0000,  0.0000,  0.0000)
   2 Li     2.467803    0.000000   12.467803    ( 0.0000,  0.0000,  0.0000)
   3 Li     0.000000    1.745000   12.467803    ( 0.0000,  0.0000,  0.0000)
   4 Li     0.011999   -0.031681   14.817084    ( 0.0000,  0.0000,  0.0000)
   5 Li     2.460738    1.810747   14.771148    ( 0.0000,  0.0000,  0.0000)
   6 Li     2.451404    0.027683   16.892827    ( 0.0000,  0.0000,  0.0000)
   7 Li     0.064001    1.665809   17.166381    ( 0.0000,  0.0000,  0.0000)
   8 Li     0.000000    3.490000   10.000000    ( 0.0000,  0.0000,  0.0000)
   9 Li     2.467803    5.235000   10.000000    ( 0.0000,  0.0000,  0.0000)
  10 Li     2.467803    3.490000   12.467803    ( 0.0000,  0.0000,  0.0000)
  11 Li     0.000000    5.235000   12.467803    ( 0.0000,  0.0000,  0.0000)
  12 Li    -0.011630    3.480260   14.884620    ( 0.0000,  0.0000,  0.0000)
  13 Li     2.472220    5.214552   14.975413    ( 0.0000,  0.0000,  0.0000)
  14 Li     2.425086    3.337666   17.357455    ( 0.0000,  0.0000,  0.0000)
  15 Li     0.051382    5.189534   17.279816    ( 0.0000,  0.0000,  0.0000)
  16 Li     0.000000    6.980000   10.000000    ( 0.0000,  0.0000,  0.0000)
  17 Li     2.467803    8.725000   10.000000    ( 0.0000,  0.0000,  0.0000)
  18 Li     2.467803    6.980000   12.467803    ( 0.0000,  0.0000,  0.0000)
  19 Li     0.000000    8.725000   12.467803    ( 0.0000,  0.0000,  0.0000)
  20 Li    -0.009075    7.020883   14.970229    ( 0.0000,  0.0000,  0.0000)
  21 Li     2.474974    8.680399   14.804792    ( 0.0000,  0.0000,  0.0000)
  22 Li     2.439013    7.076358   17.299176    ( 0.0000,  0.0000,  0.0000)
  23 Li     0.085263    8.872206   17.387462    ( 0.0000,  0.0000,  0.0000)
  24 Li     4.935605    0.000000   10.000000    ( 0.0000,  0.0000,  0.0000)
  25 Li     7.403408    1.745000   10.000000    ( 0.0000,  0.0000,  0.0000)
  26 Li     7.403408    0.000000   12.467803    ( 0.0000,  0.0000,  0.0000)
  27 Li     4.935605    1.745000   12.467803    ( 0.0000,  0.0000,  0.0000)
  28 Li     4.921819    0.004334   14.877418    ( 0.0000,  0.0000,  0.0000)
  29 Li     7.407068    1.734553   14.892338    ( 0.0000,  0.0000,  0.0000)
  30 Li     7.372191    0.003075   17.241540    ( 0.0000,  0.0000,  0.0000)
  31 Li     4.823346    1.652731   17.375644    ( 0.0000,  0.0000,  0.0000)
  32 Li     4.935605    3.490000   10.000000    ( 0.0000,  0.0000,  0.0000)
  33 Li     7.403408    5.235000   10.000000    ( 0.0000,  0.0000,  0.0000)
  34 Li     7.403408    3.490000   12.467803    ( 0.0000,  0.0000,  0.0000)
  35 Li     4.935605    5.235000   12.467803    ( 0.0000,  0.0000,  0.0000)
  36 Li     4.946879    3.443407   14.939773    ( 0.0000,  0.0000,  0.0000)
  37 Li     7.398881    5.233569   14.897300    ( 0.0000,  0.0000,  0.0000)
  38 Li     7.352720    3.459599   17.235896    ( 0.0000,  0.0000,  0.0000)
  39 Li     4.859557    5.220622   17.256487    ( 0.0000,  0.0000,  0.0000)
  40 Li     4.935605    6.980000   10.000000    ( 0.0000,  0.0000,  0.0000)
  41 Li     7.403408    8.725000   10.000000    ( 0.0000,  0.0000,  0.0000)
  42 Li     7.403408    6.980000   12.467803    ( 0.0000,  0.0000,  0.0000)
  43 Li     4.935605    8.725000   12.467803    ( 0.0000,  0.0000,  0.0000)
  44 Li     4.942141    7.021185   14.946469    ( 0.0000,  0.0000,  0.0000)
  45 Li     7.407803    8.736699   14.890823    ( 0.0000,  0.0000,  0.0000)
  46 Li     7.352306    7.007353   17.236633    ( 0.0000,  0.0000,  0.0000)
  47 Li     4.824089    8.833968   17.363874    ( 0.0000,  0.0000,  0.0000)
  48 Li     9.871211    0.000000   10.000000    ( 0.0000,  0.0000,  0.0000)
  49 Li    12.339013    1.745000   10.000000    ( 0.0000,  0.0000,  0.0000)
  50 Li    12.339013    0.000000   12.467803    ( 0.0000,  0.0000,  0.0000)
  51 Li     9.871211    1.745000   12.467803    ( 0.0000,  0.0000,  0.0000)
  52 Li     9.869694    0.005387   14.893261    ( 0.0000,  0.0000,  0.0000)
  53 Li    12.345613    1.735354   14.887109    ( 0.0000,  0.0000,  0.0000)
  54 Li    12.419201    0.043473   17.315893    ( 0.0000,  0.0000,  0.0000)
  55 Li     9.886914    1.739369   17.233781    ( 0.0000,  0.0000,  0.0000)
  56 Li     9.871211    3.490000   10.000000    ( 0.0000,  0.0000,  0.0000)
  57 Li    12.339013    5.235000   10.000000    ( 0.0000,  0.0000,  0.0000)
  58 Li    12.339013    3.490000   12.467803    ( 0.0000,  0.0000,  0.0000)
  59 Li     9.871211    5.235000   12.467803    ( 0.0000,  0.0000,  0.0000)
  60 Li     9.868902    3.482409   14.890175    ( 0.0000,  0.0000,  0.0000)
  61 Li    12.339211    5.214508   14.925240    ( 0.0000,  0.0000,  0.0000)
  62 Li    12.427541    3.418065   17.297890    ( 0.0000,  0.0000,  0.0000)
  63 Li     9.897065    5.221265   17.232603    ( 0.0000,  0.0000,  0.0000)
  64 Li     9.871211    6.980000   10.000000    ( 0.0000,  0.0000,  0.0000)
  65 Li    12.339013    8.725000   10.000000    ( 0.0000,  0.0000,  0.0000)
  66 Li    12.339013    6.980000   12.467803    ( 0.0000,  0.0000,  0.0000)
  67 Li     9.871211    8.725000   12.467803    ( 0.0000,  0.0000,  0.0000)
  68 Li     9.873337    6.982410   14.893153    ( 0.0000,  0.0000,  0.0000)
  69 Li    12.330315    8.756045   14.915766    ( 0.0000,  0.0000,  0.0000)
  70 Li    12.415545    7.007673   17.249069    ( 0.0000,  0.0000,  0.0000)
  71 Li     9.896888    8.744431   17.231062    ( 0.0000,  0.0000,  0.0000)
  72 Li     1.642358    0.593216   19.386096    ( 0.0000,  0.0000,  0.0000)

Unit cell:
           periodic     x           y           z      points  spacing
  1. axis:    yes   14.806816    0.000000    0.000000    49     0.3022
  2. axis:    yes    0.000000   10.470000    0.000000    35     0.2991
  3. axis:    no     0.000000    0.000000   27.403408    90     0.3045

  Lengths:  14.806816  10.470000  27.403408
  Angles:   90.000000  90.000000  90.000000

Effective grid spacing dv^(1/3) = 0.3019

     iter     time        total  log10-change:
                         energy   eigst   dens
iter:   1 04:21:36  -128.584702   -3.15
iter:   2 04:21:40  -128.564978   -3.42  -1.83
iter:   3 04:21:43  -128.560254c  -4.54  -2.04
iter:   4 04:21:46  -128.560686c  -4.24  -2.45
iter:   5 04:21:49  -128.559937c  -5.05  -2.75
iter:   6 04:21:53  -128.559691c  -5.41c -2.86
iter:   7 04:21:56  -128.559878c  -5.78c -3.21
iter:   8 04:21:59  -128.559908c  -6.29c -3.35
iter:   9 04:22:03  -128.559735c  -6.36c -3.46
iter:  10 04:22:06  -128.559786c  -7.05c -3.61
iter:  11 04:22:09  -128.559824c  -6.72c -3.77
iter:  12 04:22:12  -128.559754c  -7.10c -3.81
iter:  13 04:22:16  -128.559808c  -7.31c -3.96
iter:  14 04:22:19  -128.559777c  -7.52c -4.08c

Converged after 14 iterations.

Dipole moment: (-5.298896, -3.920924, 0.383292) |e|*Ang

Energy contributions relative to reference atoms: (reference = -14803.510878)

Kinetic:       +114.301387
Potential:     -100.039184
External:        +0.000000
XC:            -141.642550
Entropy (-ST):   -1.393195
Local:           -0.482833
SIC:             +0.000000
--------------------------
Free energy:   -129.256375
Extrapolated:  -128.559777

Showing all kpts
 Kpt  Band  Eigenvalues  Occupancy
  0    34     -1.93413    1.51920
  0    35     -1.88729    1.32843
  0    36     -1.81391    0.97415
  0    37     -1.75120    0.67307

  1    34     -1.93218    1.51204
  1    35     -1.88717    1.32789
  1    36     -1.81412    0.97523
  1    37     -1.75112    0.67273


Fermi level: -1.81908

Gap: 0.073 eV
Transition (v -> c):
  (s=0, k=1, n=35, [0.25, 0.25, 0.00]) -> (s=0, k=1, n=36, [0.25, 0.25, 0.00])
No difference between direct/indirect transitions

Forces in eV/Ang:
  0 Li    0.00134    0.00058    0.09902
  1 Li   -0.00091   -0.00051    0.10343
  2 Li    0.00368   -0.00696   -0.06829
  3 Li   -0.00750    0.01313   -0.08550
  4 Li   -0.01350   -0.00392   -0.00642
  5 Li    0.00223    0.02484   -0.02400
  6 Li    0.01954   -0.02885   -0.06206
  7 Li   -0.02347    0.03092   -0.03902
  8 Li    0.00203   -0.00449    0.09788
  9 Li    0.00024   -0.00248    0.08269
 10 Li    0.00196    0.05577   -0.12586
 11 Li    0.00705    0.01671   -0.02818
 12 Li    0.00068    0.01097   -0.01891
 13 Li   -0.00471   -0.00157   -0.02278
 14 Li   -0.00239   -0.01328   -0.01275
 15 Li    0.01020    0.00673   -0.01037
 16 Li    0.00016    0.00401    0.08848
 17 Li   -0.00138    0.00286    0.10321
 18 Li   -0.00350   -0.04320   -0.08532
 19 Li   -0.00597   -0.03497   -0.10369
 20 Li    0.00730    0.00161   -0.01822
 21 Li    0.00146   -0.03569   -0.04171
 22 Li   -0.01036   -0.00095   -0.01633
 23 Li    0.00319    0.00275   -0.02322
 24 Li    0.00011    0.00072    0.08967
 25 Li    0.00463    0.00028    0.08583
 26 Li   -0.00212    0.00107   -0.07125
 27 Li    0.00737    0.01019   -0.08452
 28 Li    0.01254    0.00193    0.00850
 29 Li    0.00168   -0.00396   -0.01256
 30 Li    0.01657    0.00053   -0.02191
 31 Li   -0.00466    0.01858    0.00613
 32 Li    0.00099   -0.00295    0.09037
 33 Li    0.00615    0.00079    0.09254
 34 Li    0.00063   -0.00343   -0.06008
 35 Li   -0.00409   -0.00190   -0.00315
 36 Li   -0.00525   -0.00273   -0.00774
 37 Li   -0.00027    0.00031   -0.00461
 38 Li    0.00152    0.00621   -0.01070
 39 Li   -0.00807   -0.00007    0.00217
 40 Li    0.00361    0.00224    0.09216
 41 Li    0.00465   -0.00078    0.08532
 42 Li    0.00098    0.00252   -0.05759
 43 Li    0.00779   -0.00940   -0.07827
 44 Li   -0.00668    0.00082    0.00110
 45 Li    0.00398    0.00327   -0.01036
 46 Li    0.00236   -0.00619   -0.01107
 47 Li    0.01537   -0.02279   -0.01116
 48 Li   -0.00324   -0.00038    0.08807
 49 Li   -0.00236   -0.00070    0.08605
 50 Li   -0.00301   -0.00433   -0.08063
 51 Li    0.00146   -0.00147   -0.06948
 52 Li    0.00019    0.00260   -0.01368
 53 Li   -0.00008   -0.00473    0.00945
 54 Li   -0.01736   -0.02078   -0.00534
 55 Li   -0.00916    0.00180   -0.01721
 56 Li   -0.00299    0.00138    0.08709
 57 Li   -0.00674   -0.00070    0.09286
 58 Li   -0.00439    0.00184   -0.06649
 59 Li   -0.00035   -0.00132   -0.06044
 60 Li   -0.00192   -0.00088   -0.01049
 61 Li    0.00287    0.00295   -0.00029
 62 Li   -0.02641    0.02901   -0.02618
 63 Li   -0.00353    0.00490   -0.01140
 64 Li   -0.00348   -0.00134    0.09065
 65 Li   -0.00285    0.00146    0.08730
 66 Li    0.00034    0.00349   -0.02851
 67 Li   -0.00033    0.00272   -0.06444
 68 Li   -0.00003   -0.00119   -0.00823
 69 Li    0.00063    0.00260   -0.00912
 70 Li    0.00181   -0.00313   -0.00362
 71 Li   -0.00246   -0.00668   -0.01128
 72 Li    0.03627    0.00358    0.05516

Timing:                                      incl.     excl.
-------------------------------------------------------------------
Density initialized from wave functions:     3.606     3.606   0.0% |
 Symmetrize density:                         0.000     0.000   0.0% |
Forces:                                     22.482    22.482   0.3% |
Hamiltonian:                                 7.900     0.016   0.0% |
 Atomic:                                     3.809     0.014   0.0% |
  XC Correction:                             3.795     3.795   0.0% |
 Calculate atomic Hamiltonians:              3.012     3.012   0.0% |
 Communicate:                                0.000     0.000   0.0% |
 Initialize Hamiltonian:                     0.001     0.001   0.0% |
 Poisson:                                    0.025     0.025   0.0% |
 XC 3D grid:                                 1.038     1.038   0.0% |
LCAO initialization:                         9.329     0.003   0.0% |
 LCAO eigensolver:                           0.261     0.000   0.0% |
  Calculate projections:                     0.003     0.003   0.0% |
  DenseAtomicCorrection:                     0.030     0.030   0.0% |
  Distribute overlap matrix:                 0.000     0.000   0.0% |
  Orbital Layouts:                           0.052     0.052   0.0% |
  Potential matrix:                          0.173     0.173   0.0% |
  Sum over cells:                            0.003     0.003   0.0% |
 LCAO to grid:                               8.630     8.630   0.1% |
 Set positions (LCAO WFS):                   0.435     0.114   0.0% |
  Basic WFS set positions:                   0.001     0.001   0.0% |
  Basis functions set positions:             0.000     0.000   0.0% |
  P tci:                                     0.214     0.214   0.0% |
  ST tci:                                    0.095     0.095   0.0% |
  mktci:                                     0.011     0.011   0.0% |
PWDescriptor:                                0.006     0.006   0.0% |
Redistribute:                                0.009     0.009   0.0% |
SCF-cycle:                                 338.070     0.047   0.0% |
 Davidson:                                 186.440    38.727   0.5% |
  Apply H:                                  31.356    31.025   0.4% |
   HMM T:                                    0.330     0.330   0.0% |
  Subspace diag:                            35.789     0.028   0.0% |
   calc_h_matrix:                           32.801     2.269   0.0% |
    Apply H:                                30.531    30.206   0.4% |
     HMM T:                                  0.325     0.325   0.0% |
   diagonalize:                              0.122     0.122   0.0% |
   rotate_psi:                               2.838     2.838   0.0% |
  calc. matrices:                           73.782    10.911   0.1% |
   Apply H:                                 62.871    62.204   0.8% |
    HMM T:                                   0.666     0.666   0.0% |
  diagonalize:                               0.963     0.963   0.0% |
  rotate_psi:                                5.824     5.824   0.1% |
 Density:                                   48.225     0.001   0.0% |
  Atomic density matrices:                   0.201     0.201   0.0% |
  Mix:                                      32.681    32.681   0.4% |
  Multipole moments:                         0.044     0.044   0.0% |
  Pseudo density:                           15.298    15.298   0.2% |
   Symmetrize density:                       0.001     0.001   0.0% |
 Hamiltonian:                              102.453     0.167   0.0% |
  Atomic:                                   49.144     0.180   0.0% |
   XC Correction:                           48.964    48.964   0.6% |
  Calculate atomic Hamiltonians:            39.044    39.044   0.5% |
  Communicate:                               0.000     0.000   0.0% |
  Poisson:                                   0.108     0.108   0.0% |
  XC 3D grid:                               13.990    13.990   0.2% |
 Orthonormalize:                             0.905     0.001   0.0% |
  calc_s_matrix:                             0.085     0.085   0.0% |
  inverse-cholesky:                          0.003     0.003   0.0% |
  projections:                               0.670     0.670   0.0% |
  rotate_psi_s:                              0.145     0.145   0.0% |
Set symmetry:                                0.000     0.000   0.0% |
Other:                                    7633.707  7633.707  95.2% |-------------------------------------|
-------------------------------------------------------------------
Total:                                              8015.109 100.0%

Memory usage: 3.31 GiB
Date: Mon Nov 24 06:02:17 2025
