
  ___ ___ ___ _ _ _  
 |   |   |_  | | | | 
 | | | | | . | | | | 
 |__ |  _|___|_____|  25.7.0
 |___|_|             

User:   tew@Mathuss-MacBook-Air-357.local
Date:   Mon Nov 24 03:48:42 2025
Arch:   arm64
Pid:    82977
CWD:    /Users/tew/Documents/Project/GitHub/chem-com
Python: 3.13.5
gpaw:   /Users/tew/Documents/Project/GitHub/chem-com/.venv/lib/python3.13/site-packages/gpaw
_gpaw:  /Users/tew/Documents/Project/GitHub/chem-com/.venv/lib/python3.13/site-packages/
        _gpaw.cpython-313-darwin.so
ase:    /Users/tew/Documents/Project/GitHub/chem-com/.venv/lib/python3.13/site-packages/ase (version 3.26.0)
numpy:  /Users/tew/Documents/Project/GitHub/chem-com/.venv/lib/python3.13/site-packages/numpy (version 2.3.5)
scipy:  /Users/tew/Documents/Project/GitHub/chem-com/.venv/lib/python3.13/site-packages/scipy (version 1.16.3)
libxc:  2.x.y
units:  Angstrom and eV
cores: 1
OpenMP: False
OMP_NUM_THREADS: 1

Input parameters:
  convergence: {density: 0.0001,
                eigenstates: 5e-06}
  kpts: [2 2 1]
  mode: {ecut: 200.0,
         name: pw}
  xc: PBE

System changes: positions, numbers, cell, pbc, initial_charges, initial_magmoms 

Initialize ...

species:
  Li:
    name: Lithium
    id: 830b4218f175192f93f959cfc0aad614
    Z: 3.0
    valence: 1
    core: 2
    charge: 0.0
    file: /Users/tew/Documents/Project/GitHub/chem-com/.venv/lib/python3.13/site-packages/gpaw_data/setups/Li.PBE.gz
    compensation charges: {type: gauss,
                           rc: 0.33,
                           lmax: 2}
    cutoffs: {filter: 1.91,
              core: 2.55}
    projectors:
      #              energy  rcut
      - 2s(1.00)    -2.874   1.058
      - 2p(0.00)    -1.090   1.058
      -  s          24.337   1.058
  
    # Using partial waves for Li as LCAO basis

Reference energy: -14803.510878  # eV

Spin-paired calculation

Convergence criteria:
 Maximum [total energy] change in last 3 cyles: 0.0005 eV / valence electron
 Maximum integral of absolute [dens]ity change: 0.0001 electrons / valence electron
 Maximum integral of absolute [eigenst]ate change: 5e-06 eV^2 / valence electron
 Maximum number of scf [iter]ations: 333
 (Square brackets indicate name in SCF output, whereas a 'c' in
 the SCF output indicates the quantity has converged.)

Symmetries present (total): 2

  ( 1  0  0)  (-1  0  0)
  ( 0  1  0)  ( 0  1  0)
  ( 0  0  1)  ( 0  0  1)

4 k-points: 2 x 2 x 1 Monkhorst-Pack grid
1 k-point in the irreducible part of the Brillouin zone
       k-points in crystal coordinates                weights
   0:     0.25000000    0.25000000    0.00000000          4/4

Wave functions: Plane wave expansion
  Cutoff energy: 200.000 eV
  Number of coefficients (min, max): 27323, 27323
  Pulay-stress correction: 0.000000 eV/Ang^3 (de/decut=0.000000)
  Using Numpy's FFT
  ScaLapack parameters: grid=1x1, blocksize=None
  Wavefunction extrapolation:
    Improved wavefunction reuse through dual PAW basis 

Occupation numbers: Fermi-Dirac:
  width: 0.1000  # eV
 

Eigensolver
   Davidson(niter=2) 

Densities:
  Coarse grid: 49*35*90 grid
  Fine grid: 98*70*180 grid
  Total Charge: 0.000000 

Density mixing:
  Method: separate
  Backend: pulay
  Linear mixing parameter: 0.05
  old densities: 5
  Damping of long wavelength oscillations: 50 

Hamiltonian:
  XC and Coulomb potentials evaluated on a 98*70*180 grid
  Using the PBE Exchange-Correlation functional
  External potential:
    NoExternalPotential
 

XC parameters: PBE with 2 nearest neighbor stencil

Memory estimate:
  Process memory now: 2312.47 MiB
  Calculator: 142.34 MiB
    Density: 71.24 MiB
      Arrays: 30.62 MiB
      Localized functions: 28.85 MiB
      Mixer: 11.78 MiB
    Hamiltonian: 20.61 MiB
      Arrays: 20.02 MiB
      XC: 0.00 MiB
      Poisson: 0.00 MiB
      vbar: 0.59 MiB
    Wavefunctions: 50.49 MiB
      Arrays psit_nG: 20.01 MiB
      Eigensolver: 22.45 MiB
      Projections: 0.27 MiB
      Projectors: 1.46 MiB
      PW-descriptor: 6.30 MiB

Total number of cores used: 1

Number of atoms: 73
Number of atomic orbitals: 292
Number of bands in calculation: 48
Number of valence electrons: 73
Bands to converge: occupied

... initialized

Initializing position-dependent things.

Density initialized from atomic densities
Creating initial wave functions:
  48 bands from LCAO basis set

       .-----------------------------------.  
      /|                                   |  
     / |                                   |  
    /  |                                   |  
   /   |                                   |  
  /    |                                   |  
 *     |                                   |  
 |     |                                   |  
 |     |                                   |  
 |     |                                   |  
 |     |                                   |  
 |     |                                   |  
 |     |                                   |  
 |    Li                                   |  
 |     |          Li          Li           |  
 |Li   |   Li          Li          Li      |  
 |  Li LiLi Li  Li          Li   Li Li     |  
 |   Li|             Li Li                 |  
 |Li   Li Li  Li Li       Li LiLi Li       |  
 |     |           Li Li                   |  
 | Li Li       Li Li       Li Li           |  
 |     |Li Li       Li Li       Li Li      |  
 |  Li |     Li Li       Li Li             |  
 |     | Li Li       Li Li       Li Li     |  
 |Li Li|      Li Li       Li Li            |  
 |     Li Li       Li Li       Li Li       |  
 | Li  |       Li          Li              |  
 |     |Li          Li          Li         |  
 Li    |     Li          Li                |  
 |     |                                   |  
 |     |                                   |  
 |     |                                   |  
 |     |                                   |  
 |     |                                   |  
 |     .-----------------------------------.  
 |    /                                   /   
 |   /                                   /    
 |  /                                   /     
 | /                                   /      
 |/                                   /       
 *-----------------------------------*        

Atomic positions and initial magnetic moments

Positions:
   0 Li     0.000000    0.000000   10.000000    ( 0.0000,  0.0000,  0.0000)
   1 Li     2.467803    1.745000   10.000000    ( 0.0000,  0.0000,  0.0000)
   2 Li     2.467803    0.000000   12.467803    ( 0.0000,  0.0000,  0.0000)
   3 Li     0.000000    1.745000   12.467803    ( 0.0000,  0.0000,  0.0000)
   4 Li     0.000000   -0.090563   14.730325    ( 0.0000,  0.0000,  0.0000)
   5 Li     2.440779    1.745001   14.859732    ( 0.0000,  0.0000,  0.0000)
   6 Li     2.337292    0.152003   17.431667    ( 0.0000,  0.0000,  0.0000)
   7 Li     0.000000    1.745001   16.720239    ( 0.0000,  0.0000,  0.0000)
   8 Li     0.000000    3.490000   10.000000    ( 0.0000,  0.0000,  0.0000)
   9 Li     2.467803    5.235000   10.000000    ( 0.0000,  0.0000,  0.0000)
  10 Li     2.467803    3.490000   12.467803    ( 0.0000,  0.0000,  0.0000)
  11 Li     0.000000    5.235000   12.467803    ( 0.0000,  0.0000,  0.0000)
  12 Li     0.000000    3.580562   14.730326    ( 0.0000,  0.0000,  0.0000)
  13 Li     2.486162    5.172800   14.968940    ( 0.0000,  0.0000,  0.0000)
  14 Li     2.337292    3.337998   17.431669    ( 0.0000,  0.0000,  0.0000)
  15 Li     0.000000    5.090910   17.324220    ( 0.0000,  0.0000,  0.0000)
  16 Li     0.000000    6.980000   10.000000    ( 0.0000,  0.0000,  0.0000)
  17 Li     2.467803    8.725000   10.000000    ( 0.0000,  0.0000,  0.0000)
  18 Li     2.467803    6.980000   12.467803    ( 0.0000,  0.0000,  0.0000)
  19 Li     0.000000    8.725000   12.467803    ( 0.0000,  0.0000,  0.0000)
  20 Li     0.000000    6.980001   14.992817    ( 0.0000,  0.0000,  0.0000)
  21 Li     2.486162    8.787200   14.968939    ( 0.0000,  0.0000,  0.0000)
  22 Li     2.396443    6.980001   17.261286    ( 0.0000,  0.0000,  0.0000)
  23 Li     0.000000    8.869089   17.324218    ( 0.0000,  0.0000,  0.0000)
  24 Li     4.935605    0.000000   10.000000    ( 0.0000,  0.0000,  0.0000)
  25 Li     7.403408    1.745000   10.000000    ( 0.0000,  0.0000,  0.0000)
  26 Li     7.403408    0.000000   12.467803    ( 0.0000,  0.0000,  0.0000)
  27 Li     4.935605    1.745000   12.467803    ( 0.0000,  0.0000,  0.0000)
  28 Li     4.940154    0.011849   14.894130    ( 0.0000,  0.0000,  0.0000)
  29 Li     7.403408    1.745001   14.900253    ( 0.0000,  0.0000,  0.0000)
  30 Li     7.403408    0.009117   17.228799    ( 0.0000,  0.0000,  0.0000)
  31 Li     4.875282    1.745001   17.259961    ( 0.0000,  0.0000,  0.0000)
  32 Li     4.935605    3.490000   10.000000    ( 0.0000,  0.0000,  0.0000)
  33 Li     7.403408    5.235000   10.000000    ( 0.0000,  0.0000,  0.0000)
  34 Li     7.403408    3.490000   12.467803    ( 0.0000,  0.0000,  0.0000)
  35 Li     4.935605    5.235000   12.467803    ( 0.0000,  0.0000,  0.0000)
  36 Li     4.940154    3.478151   14.894130    ( 0.0000,  0.0000,  0.0000)
  37 Li     7.403408    5.230787   14.893568    ( 0.0000,  0.0000,  0.0000)
  38 Li     7.403408    3.480883   17.228801    ( 0.0000,  0.0000,  0.0000)
  39 Li     4.856955    5.190561   17.244318    ( 0.0000,  0.0000,  0.0000)
  40 Li     4.935605    6.980000   10.000000    ( 0.0000,  0.0000,  0.0000)
  41 Li     7.403408    8.725000   10.000000    ( 0.0000,  0.0000,  0.0000)
  42 Li     7.403408    6.980000   12.467803    ( 0.0000,  0.0000,  0.0000)
  43 Li     4.935605    8.725000   12.467803    ( 0.0000,  0.0000,  0.0000)
  44 Li     4.927706    6.980000   14.900324    ( 0.0000,  0.0000,  0.0000)
  45 Li     7.403408    8.729212   14.893567    ( 0.0000,  0.0000,  0.0000)
  46 Li     7.403408    6.980000   17.231532    ( 0.0000,  0.0000,  0.0000)
  47 Li     4.856955    8.769439   17.244318    ( 0.0000,  0.0000,  0.0000)
  48 Li     9.871211    0.000000   10.000000    ( 0.0000,  0.0000,  0.0000)
  49 Li    12.339013    1.745000   10.000000    ( 0.0000,  0.0000,  0.0000)
  50 Li    12.339013    0.000000   12.467803    ( 0.0000,  0.0000,  0.0000)
  51 Li     9.871211    1.745000   12.467803    ( 0.0000,  0.0000,  0.0000)
  52 Li     9.866662    0.011849   14.894130    ( 0.0000,  0.0000,  0.0000)
  53 Li    12.366037    1.745001   14.859732    ( 0.0000,  0.0000,  0.0000)
  54 Li    12.469524    0.152003   17.431667    ( 0.0000,  0.0000,  0.0000)
  55 Li     9.931534    1.745001   17.259961    ( 0.0000,  0.0000,  0.0000)
  56 Li     9.871211    3.490000   10.000000    ( 0.0000,  0.0000,  0.0000)
  57 Li    12.339013    5.235000   10.000000    ( 0.0000,  0.0000,  0.0000)
  58 Li    12.339013    3.490000   12.467803    ( 0.0000,  0.0000,  0.0000)
  59 Li     9.871211    5.235000   12.467803    ( 0.0000,  0.0000,  0.0000)
  60 Li     9.866662    3.478151   14.894130    ( 0.0000,  0.0000,  0.0000)
  61 Li    12.320654    5.172800   14.968940    ( 0.0000,  0.0000,  0.0000)
  62 Li    12.469524    3.337998   17.431669    ( 0.0000,  0.0000,  0.0000)
  63 Li     9.949861    5.190561   17.244318    ( 0.0000,  0.0000,  0.0000)
  64 Li     9.871211    6.980000   10.000000    ( 0.0000,  0.0000,  0.0000)
  65 Li    12.339013    8.725000   10.000000    ( 0.0000,  0.0000,  0.0000)
  66 Li    12.339013    6.980000   12.467803    ( 0.0000,  0.0000,  0.0000)
  67 Li     9.871211    8.725000   12.467803    ( 0.0000,  0.0000,  0.0000)
  68 Li     9.879110    6.980000   14.900324    ( 0.0000,  0.0000,  0.0000)
  69 Li    12.320654    8.787200   14.968939    ( 0.0000,  0.0000,  0.0000)
  70 Li    12.410373    6.980001   17.261286    ( 0.0000,  0.0000,  0.0000)
  71 Li     9.949861    8.769439   17.244318    ( 0.0000,  0.0000,  0.0000)
  72 Li     0.000000    1.745003   19.322724    ( 0.0000,  0.0000,  0.0000)

Unit cell:
           periodic     x           y           z      points  spacing
  1. axis:    yes   14.806816    0.000000    0.000000    49     0.3022
  2. axis:    yes    0.000000   10.470000    0.000000    35     0.2991
  3. axis:    no     0.000000    0.000000   27.403408    90     0.3045

  Lengths:  14.806816  10.470000  27.403408
  Angles:   90.000000  90.000000  90.000000

Effective grid spacing dv^(1/3) = 0.3019

     iter     time        total  log10-change:
                         energy   eigst   dens
iter:   1 04:00:32  -136.055474
iter:   2 04:00:35  -131.486583   -0.87  -0.55
iter:   3 04:00:37  -129.705907   -0.96  -0.70
iter:   4 04:00:39  -130.033188   -1.49  -0.88
iter:   5 04:00:41  -129.247609   -1.90  -0.89
iter:   6 04:00:43  -128.656620   -1.85  -1.01
iter:   7 04:00:46  -128.840756   -1.83  -1.30
iter:   8 04:00:48  -128.682580   -1.96  -1.20
iter:   9 04:00:50  -128.644287   -2.72  -1.40
iter:  10 04:00:52  -128.698880   -2.15  -1.55
iter:  11 04:00:55  -128.591439   -2.66  -1.45
iter:  12 04:00:57  -128.593463   -3.27  -1.99
iter:  13 04:01:00  -128.591726c  -3.47  -2.12
iter:  14 04:01:02  -128.591805c  -3.61  -2.16
iter:  15 04:01:04  -128.589547c  -3.81  -2.33
iter:  16 04:01:06  -128.589215c  -4.13  -2.33
iter:  17 04:01:08  -128.590108c  -4.26  -2.65
iter:  18 04:01:10  -128.589765c  -4.63  -2.72
iter:  19 04:01:13  -128.589316c  -4.69  -2.76
iter:  20 04:01:15  -128.589213c  -4.96  -2.87
iter:  21 04:01:17  -128.589605c  -4.82  -3.00
iter:  22 04:01:19  -128.589035c  -4.88  -3.07
iter:  23 04:01:21  -128.589037c  -5.24  -3.30
iter:  24 04:01:23  -128.589054c  -5.34c -3.55
iter:  25 04:01:25  -128.589006c  -5.39c -3.63
iter:  26 04:01:27  -128.588982c  -5.52c -3.73
iter:  27 04:01:30  -128.588927c  -5.54c -3.97
iter:  28 04:01:32  -128.588901c  -5.66c -4.07c

Converged after 28 iterations.

Dipole moment: (-0.000000, -3.450437, 0.352057) |e|*Ang

Energy contributions relative to reference atoms: (reference = -14803.510878)

Kinetic:       +113.892180
Potential:      -99.739614
External:        +0.000000
XC:            -141.555835
Entropy (-ST):   -1.387341
Local:           -0.491962
SIC:             +0.000000
--------------------------
Free energy:   -129.282572
Extrapolated:  -128.588901

 Band  Eigenvalues  Occupancy
    0     -5.09836    2.00000
    1     -4.84034    2.00000
    2     -4.58239    2.00000
    3     -4.51572    2.00000
    4     -4.32950    2.00000
    5     -4.31960    2.00000
    6     -4.25280    2.00000
    7     -4.00082    2.00000
    8     -3.81250    2.00000
    9     -3.74981    2.00000
   10     -3.72874    2.00000
   11     -3.55528    2.00000
   12     -3.53471    2.00000
   13     -3.47333    2.00000
   14     -3.29134    2.00000
   15     -3.23838    2.00000
   16     -3.19523    2.00000
   17     -3.04144    1.99999
   18     -2.97132    1.99998
   19     -2.95161    1.99997
   20     -2.93561    1.99997
   21     -2.79960    1.99988
   22     -2.74284    1.99980
   23     -2.69533    1.99967
   24     -2.64859    1.99948
   25     -2.56161    1.99876
   26     -2.47143    1.99694
   27     -2.31972    1.98611
   28     -2.27463    1.97828
   29     -2.16338    1.93536
   30     -2.06072    1.82942
   31     -2.03101    1.77700
   32     -1.97252    1.63231
   33     -1.95539    1.57811
   34     -1.93930    1.52208
   35     -1.89140    1.32718
   36     -1.81703    0.96784
   37     -1.75973    0.69169
   38     -1.73993    0.60504
   39     -1.68485    0.40006
   40     -1.66284    0.33422
   41     -1.56098    0.13512
   42     -1.51694    0.08913
   43     -1.47641    0.06032
   44     -1.46859    0.05591
   45     -1.43875    0.04179
   46     -1.42727    0.03734
   47     -1.37012    0.02126

Fermi level: -1.82347

Gap: 0.074 eV
Transition (v -> c):
  (s=0, k=0, n=35, [0.25, 0.25, 0.00]) -> (s=0, k=0, n=36, [0.25, 0.25, 0.00])
No difference between direct/indirect transitions

Forces in eV/Ang:
  0 Li    0.00000    0.00073    0.10699
  1 Li   -0.00096    0.00000    0.09402
  2 Li    0.00961   -0.01819   -0.08617
  3 Li    0.00000    0.00000   -0.06130
  4 Li    0.00000   -0.04057   -0.01819
  5 Li    0.04247    0.00000    0.01088
  6 Li    0.00095   -0.03171   -0.03063
  7 Li    0.00000   -0.00000   -0.01677
  8 Li    0.00000   -0.00074    0.10698
  9 Li   -0.00037   -0.00420    0.09256
 10 Li    0.00961    0.01819   -0.08617
 11 Li    0.00000    0.07503   -0.14016
 12 Li    0.00000    0.04057   -0.01819
 13 Li   -0.01790   -0.00222   -0.01352
 14 Li    0.00095    0.03171   -0.03063
 15 Li    0.00000   -0.01744   -0.01793
 16 Li    0.00000    0.00001    0.07918
 17 Li   -0.00037    0.00420    0.09256
 18 Li   -0.00934    0.00000    0.02100
 19 Li    0.00000   -0.07504   -0.14015
 20 Li    0.00000   -0.00000   -0.04794
 21 Li   -0.01790    0.00222   -0.01352
 22 Li   -0.01518    0.00000    0.01343
 23 Li    0.00000    0.01744   -0.01793
 24 Li    0.00434    0.00027    0.08536
 25 Li    0.00000    0.00001    0.09043
 26 Li    0.00000    0.00243   -0.06632
 27 Li   -0.00176    0.00000   -0.07193
 28 Li    0.00706    0.01476   -0.01317
 29 Li    0.00000    0.00000   -0.02323
 30 Li    0.00000   -0.00196   -0.00781
 31 Li    0.03214    0.00000   -0.02289
 32 Li    0.00434   -0.00027    0.08536
 33 Li    0.00000    0.00062    0.08910
 34 Li    0.00000   -0.00243   -0.06632
 35 Li    0.00209   -0.00500   -0.05686
 36 Li    0.00706   -0.01476   -0.01317
 37 Li    0.00000    0.00252   -0.01452
 38 Li    0.00000    0.00196   -0.00781
 39 Li    0.00466    0.00976   -0.00926
 40 Li    0.00678    0.00000    0.09456
 41 Li    0.00000   -0.00063    0.08910
 42 Li    0.00000    0.00000   -0.06135
 43 Li    0.00209    0.00500   -0.05686
 44 Li    0.00268    0.00000    0.00723
 45 Li    0.00000   -0.00251   -0.01452
 46 Li    0.00000    0.00000   -0.01075
 47 Li    0.00466   -0.00976   -0.00926
 48 Li   -0.00434    0.00027    0.08536
 49 Li    0.00096    0.00000    0.09402
 50 Li   -0.00961   -0.01819   -0.08617
 51 Li    0.00176    0.00000   -0.07193
 52 Li   -0.00706    0.01476   -0.01317
 53 Li   -0.04247    0.00000    0.01088
 54 Li   -0.00095   -0.03171   -0.03063
 55 Li   -0.03214    0.00000   -0.02289
 56 Li   -0.00434   -0.00027    0.08536
 57 Li    0.00037   -0.00420    0.09256
 58 Li   -0.00961    0.01819   -0.08617
 59 Li   -0.00209   -0.00500   -0.05686
 60 Li   -0.00706   -0.01476   -0.01317
 61 Li    0.01790   -0.00222   -0.01352
 62 Li   -0.00095    0.03171   -0.03063
 63 Li   -0.00466    0.00976   -0.00926
 64 Li   -0.00678    0.00000    0.09456
 65 Li    0.00037    0.00420    0.09256
 66 Li    0.00934    0.00000    0.02100
 67 Li   -0.00209    0.00500   -0.05686
 68 Li   -0.00268    0.00000    0.00723
 69 Li    0.01790    0.00222   -0.01352
 70 Li    0.01518    0.00000    0.01343
 71 Li   -0.00466   -0.00976   -0.00926
 72 Li    0.00000   -0.00000    0.02414

Timing:                              incl.     excl.
-----------------------------------------------------------
Forces:                              2.744     2.744   0.0% |
Hamiltonian:                         0.970     0.002   0.0% |
 Atomic:                             0.454     0.002   0.0% |
  XC Correction:                     0.453     0.453   0.0% |
 Calculate atomic Hamiltonians:      0.364     0.364   0.0% |
 Communicate:                        0.000     0.000   0.0% |
 Initialize Hamiltonian:             0.001     0.001   0.0% |
 Poisson:                            0.002     0.002   0.0% |
 XC 3D grid:                         0.147     0.147   0.0% |
LCAO initialization:                 5.155     0.003   0.0% |
 LCAO eigensolver:                   0.218     0.000   0.0% |
  Calculate projections:             0.005     0.005   0.0% |
  DenseAtomicCorrection:             0.015     0.015   0.0% |
  Distribute overlap matrix:         0.000     0.000   0.0% |
  Orbital Layouts:                   0.026     0.026   0.0% |
  Potential matrix:                  0.169     0.169   0.0% |
  Sum over cells:                    0.002     0.002   0.0% |
 LCAO to grid:                       4.546     4.546   0.1% |
 Set positions (LCAO WFS):           0.389     0.091   0.0% |
  Basic WFS set positions:           0.001     0.001   0.0% |
  Basis functions set positions:     0.000     0.000   0.0% |
  P tci:                             0.200     0.200   0.0% |
  ST tci:                            0.084     0.084   0.0% |
  mktci:                             0.012     0.012   0.0% |
PWDescriptor:                        0.004     0.004   0.0% |
SCF-cycle:                          60.122     0.013   0.0% |
 Davidson:                          23.367     4.866   0.1% |
  Apply H:                           4.016     3.973   0.0% |
   HMM T:                            0.043     0.043   0.0% |
  Subspace diag:                     4.335     0.002   0.0% |
   calc_h_matrix:                    3.972     0.277   0.0% |
    Apply H:                         3.695     3.654   0.0% |
     HMM T:                          0.040     0.040   0.0% |
   diagonalize:                      0.015     0.015   0.0% |
   rotate_psi:                       0.347     0.347   0.0% |
  calc. matrices:                    9.295     1.377   0.0% |
   Apply H:                          7.917     7.833   0.1% |
    HMM T:                           0.084     0.084   0.0% |
  diagonalize:                       0.121     0.121   0.0% |
  rotate_psi:                        0.734     0.734   0.0% |
 Density:                           10.506     0.000   0.0% |
  Atomic density matrices:           0.044     0.044   0.0% |
  Mix:                               8.415     8.415   0.1% |
  Multipole moments:                 0.011     0.011   0.0% |
  Pseudo density:                    2.035     1.991   0.0% |
   Symmetrize density:               0.044     0.044   0.0% |
 Hamiltonian:                       26.183     0.043   0.0% |
  Atomic:                           12.617     0.045   0.0% |
   XC Correction:                   12.573    12.573   0.2% |
  Calculate atomic Hamiltonians:     9.919     9.919   0.1% |
  Communicate:                       0.000     0.000   0.0% |
  Poisson:                           0.028     0.028   0.0% |
  XC 3D grid:                        3.576     3.576   0.0% |
 Orthonormalize:                     0.054     0.000   0.0% |
  calc_s_matrix:                     0.008     0.008   0.0% |
  inverse-cholesky:                  0.001     0.001   0.0% |
  projections:                       0.038     0.038   0.0% |
  rotate_psi_s:                      0.007     0.007   0.0% |
Set symmetry:                        0.000     0.000   0.0% |
Other:                            7946.114  7946.114  99.1% |---------------------------------------|
-----------------------------------------------------------
Total:                                      8015.110 100.0%

Memory usage: 3.31 GiB
Date: Mon Nov 24 06:02:17 2025
