
  ___ ___ ___ _ _ _  
 |   |   |_  | | | | 
 | | | | | . | | | | 
 |__ |  _|___|_____|  25.7.0
 |___|_|             

User:   tew@Mathuss-MacBook-Air-357.local
Date:   Mon Nov 24 03:48:42 2025
Arch:   arm64
Pid:    82977
CWD:    /Users/tew/Documents/Project/GitHub/chem-com
Python: 3.13.5
gpaw:   /Users/tew/Documents/Project/GitHub/chem-com/.venv/lib/python3.13/site-packages/gpaw
_gpaw:  /Users/tew/Documents/Project/GitHub/chem-com/.venv/lib/python3.13/site-packages/
        _gpaw.cpython-313-darwin.so
ase:    /Users/tew/Documents/Project/GitHub/chem-com/.venv/lib/python3.13/site-packages/ase (version 3.26.0)
numpy:  /Users/tew/Documents/Project/GitHub/chem-com/.venv/lib/python3.13/site-packages/numpy (version 2.3.5)
scipy:  /Users/tew/Documents/Project/GitHub/chem-com/.venv/lib/python3.13/site-packages/scipy (version 1.16.3)
libxc:  2.x.y
units:  Angstrom and eV
cores: 1
OpenMP: False
OMP_NUM_THREADS: 1

Input parameters:
  convergence: {density: 0.0001,
                eigenstates: 5e-06}
  kpts: [2 2 1]
  mode: {ecut: 200.0,
         name: pw}
  xc: PBE

System changes: positions, numbers, cell, pbc, initial_charges, initial_magmoms 

Initialize ...

species:
  Li:
    name: Lithium
    id: 830b4218f175192f93f959cfc0aad614
    Z: 3.0
    valence: 1
    core: 2
    charge: 0.0
    file: /Users/tew/Documents/Project/GitHub/chem-com/.venv/lib/python3.13/site-packages/gpaw_data/setups/Li.PBE.gz
    compensation charges: {type: gauss,
                           rc: 0.33,
                           lmax: 2}
    cutoffs: {filter: 1.91,
              core: 2.55}
    projectors:
      #              energy  rcut
      - 2s(1.00)    -2.874   1.058
      - 2p(0.00)    -1.090   1.058
      -  s          24.337   1.058
  
    # Using partial waves for Li as LCAO basis

Reference energy: -14803.510878  # eV

Spin-paired calculation

Convergence criteria:
 Maximum [total energy] change in last 3 cyles: 0.0005 eV / valence electron
 Maximum integral of absolute [dens]ity change: 0.0001 electrons / valence electron
 Maximum integral of absolute [eigenst]ate change: 5e-06 eV^2 / valence electron
 Maximum number of scf [iter]ations: 333
 (Square brackets indicate name in SCF output, whereas a 'c' in
 the SCF output indicates the quantity has converged.)

Symmetries present (total): 1

  ( 1  0  0)
  ( 0  1  0)
  ( 0  0  1)

4 k-points: 2 x 2 x 1 Monkhorst-Pack grid
2 k-points in the irreducible part of the Brillouin zone
       k-points in crystal coordinates                weights
   0:     0.25000000   -0.25000000    0.00000000          2/4
   1:     0.25000000    0.25000000    0.00000000          2/4

Wave functions: Plane wave expansion
  Cutoff energy: 200.000 eV
  Number of coefficients (min, max): 27323, 27323
  Pulay-stress correction: 0.000000 eV/Ang^3 (de/decut=0.000000)
  Using Numpy's FFT
  ScaLapack parameters: grid=1x1, blocksize=None
  Wavefunction extrapolation:
    Improved wavefunction reuse through dual PAW basis 

Occupation numbers: Fermi-Dirac:
  width: 0.1000  # eV
 

Eigensolver
   Davidson(niter=2) 

Densities:
  Coarse grid: 49*35*90 grid
  Fine grid: 98*70*180 grid
  Total Charge: 0.000000 

Density mixing:
  Method: separate
  Backend: pulay
  Linear mixing parameter: 0.05
  old densities: 5
  Damping of long wavelength oscillations: 50 

Hamiltonian:
  XC and Coulomb potentials evaluated on a 98*70*180 grid
  Using the PBE Exchange-Correlation functional
  External potential:
    NoExternalPotential
 

XC parameters: PBE with 2 nearest neighbor stencil

Memory estimate:
  Process memory now: 2312.47 MiB
  Calculator: 164.50 MiB
    Density: 71.24 MiB
      Arrays: 30.62 MiB
      Localized functions: 28.85 MiB
      Mixer: 11.78 MiB
    Hamiltonian: 20.61 MiB
      Arrays: 20.02 MiB
      XC: 0.00 MiB
      Poisson: 0.00 MiB
      vbar: 0.59 MiB
    Wavefunctions: 72.65 MiB
      Arrays psit_nG: 40.02 MiB
      Eigensolver: 22.45 MiB
      Projections: 0.53 MiB
      Projectors: 2.92 MiB
      PW-descriptor: 6.72 MiB

Total number of cores used: 1

Number of atoms: 73
Number of atomic orbitals: 292
Number of bands in calculation: 48
Number of valence electrons: 73
Bands to converge: occupied

... initialized

Initializing position-dependent things.

Density initialized from atomic densities
Creating initial wave functions:
  48 bands from LCAO basis set

       .-----------------------------------.  
      /|                                   |  
     / |                                   |  
    /  |                                   |  
   /   |                                   |  
  /    |                                   |  
 *     |                                   |  
 |     |                                   |  
 |     |                                   |  
 |     |                                   |  
 |     |                                   |  
 |     |                                   |  
 |     |                                   |  
 |    Li                                   |  
 |     |          Li          Li           |  
 | Li  |   Li          Li          Li      |  
 |  Li LiLi Li  Li          Li   Li Li     |  
 |     |         Li  Li Li               Li|  
 |Li   Li Li  Li          Li LiLi Li       |  
 |     |           Li Li                   |  
 |    Li       Li Li       Li Li       Li  |  
 |     |Li Li       Li Li       Li Li      |  
 |  Li |     Li Li       Li Li             |  
 |     | Li Li       Li Li       Li Li     |  
 |Li Li|      Li Li       Li Li            |  
 |     Li Li       Li Li       Li Li       |  
 | Li  |       Li          Li              |  
 |     |Li          Li          Li         |  
 Li    |     Li          Li                |  
 |     |                                   |  
 |     |                                   |  
 |     |                                   |  
 |     |                                   |  
 |     |                                   |  
 |     .-----------------------------------.  
 |    /                                   /   
 |   /                                   /    
 |  /                                   /     
 | /                                   /      
 |/                                   /       
 *-----------------------------------*        

Atomic positions and initial magnetic moments

Positions:
   0 Li     0.000000    0.000000   10.000000    ( 0.0000,  0.0000,  0.0000)
   1 Li     2.467803    1.745000   10.000000    ( 0.0000,  0.0000,  0.0000)
   2 Li     2.467803    0.000000   12.467803    ( 0.0000,  0.0000,  0.0000)
   3 Li     0.000000    1.745000   12.467803    ( 0.0000,  0.0000,  0.0000)
   4 Li     0.004504   -0.075469   14.751893    ( 0.0000,  0.0000,  0.0000)
   5 Li     2.445282    1.760093   14.838165    ( 0.0000,  0.0000,  0.0000)
   6 Li     2.359044    0.126669   17.313097    ( 0.0000,  0.0000,  0.0000)
   7 Li     0.021753    1.719667   16.838811    ( 0.0000,  0.0000,  0.0000)
   8 Li     0.000000    3.490000   10.000000    ( 0.0000,  0.0000,  0.0000)
   9 Li     2.467803    5.235000   10.000000    ( 0.0000,  0.0000,  0.0000)
  10 Li     2.467803    3.490000   12.467803    ( 0.0000,  0.0000,  0.0000)
  11 Li     0.000000    5.235000   12.467803    ( 0.0000,  0.0000,  0.0000)
  12 Li    -0.003060    3.555103   14.770096    ( 0.0000,  0.0000,  0.0000)
  13 Li     2.483102    5.183167   14.972917    ( 0.0000,  0.0000,  0.0000)
  14 Li     2.359043    3.339317   17.413761    ( 0.0000,  0.0000,  0.0000)
  15 Li     0.011892    5.114925   17.313733    ( 0.0000,  0.0000,  0.0000)
  16 Li     0.000000    6.980000   10.000000    ( 0.0000,  0.0000,  0.0000)
  17 Li     2.467803    8.725000   10.000000    ( 0.0000,  0.0000,  0.0000)
  18 Li     2.467803    6.980000   12.467803    ( 0.0000,  0.0000,  0.0000)
  19 Li     0.000000    8.725000   12.467803    ( 0.0000,  0.0000,  0.0000)
  20 Li    -0.003060    6.990366   14.988838    ( 0.0000,  0.0000,  0.0000)
  21 Li     2.483102    8.761741   14.929171    ( 0.0000,  0.0000,  0.0000)
  22 Li     2.408335    7.004015   17.271775    ( 0.0000,  0.0000,  0.0000)
  23 Li     0.021753    8.870409   17.342127    ( 0.0000,  0.0000,  0.0000)
  24 Li     4.935605    0.000000   10.000000    ( 0.0000,  0.0000,  0.0000)
  25 Li     7.403408    1.745000   10.000000    ( 0.0000,  0.0000,  0.0000)
  26 Li     7.403408    0.000000   12.467803    ( 0.0000,  0.0000,  0.0000)
  27 Li     4.935605    1.745000   12.467803    ( 0.0000,  0.0000,  0.0000)
  28 Li     4.934892    0.009874   14.888397    ( 0.0000,  0.0000,  0.0000)
  29 Li     7.404165    1.743027   14.899235    ( 0.0000,  0.0000,  0.0000)
  30 Li     7.393353    0.007597   17.233994    ( 0.0000,  0.0000,  0.0000)
  31 Li     4.863583    1.719667   17.288579    ( 0.0000,  0.0000,  0.0000)
  32 Li     4.935605    3.490000   10.000000    ( 0.0000,  0.0000,  0.0000)
  33 Li     7.403408    5.235000   10.000000    ( 0.0000,  0.0000,  0.0000)
  34 Li     7.403408    3.490000   12.467803    ( 0.0000,  0.0000,  0.0000)
  35 Li     4.935605    5.235000   12.467803    ( 0.0000,  0.0000,  0.0000)
  36 Li     4.942456    3.469760   14.906599    ( 0.0000,  0.0000,  0.0000)
  37 Li     7.402092    5.231490   14.894696    ( 0.0000,  0.0000,  0.0000)
  38 Li     7.390301    3.474995   17.231390    ( 0.0000,  0.0000,  0.0000)
  39 Li     4.858170    5.197968   17.247149    ( 0.0000,  0.0000,  0.0000)
  40 Li     4.935605    6.980000   10.000000    ( 0.0000,  0.0000,  0.0000)
  41 Li     7.403408    8.725000   10.000000    ( 0.0000,  0.0000,  0.0000)
  42 Li     7.403408    6.980000   12.467803    ( 0.0000,  0.0000,  0.0000)
  43 Li     4.935605    8.725000   12.467803    ( 0.0000,  0.0000,  0.0000)
  44 Li     4.932083    6.990365   14.911760    ( 0.0000,  0.0000,  0.0000)
  45 Li     7.404165    8.730484   14.893664    ( 0.0000,  0.0000,  0.0000)
  46 Li     7.390301    6.987407   17.233665    ( 0.0000,  0.0000,  0.0000)
  47 Li     4.848311    8.787366   17.275544    ( 0.0000,  0.0000,  0.0000)
  48 Li     9.871211    0.000000   10.000000    ( 0.0000,  0.0000,  0.0000)
  49 Li    12.339013    1.745000   10.000000    ( 0.0000,  0.0000,  0.0000)
  50 Li    12.339013    0.000000   12.467803    ( 0.0000,  0.0000,  0.0000)
  51 Li     9.871211    1.745000   12.467803    ( 0.0000,  0.0000,  0.0000)
  52 Li     9.867421    0.009874   14.895151    ( 0.0000,  0.0000,  0.0000)
  53 Li    12.360777    1.743027   14.865467    ( 0.0000,  0.0000,  0.0000)
  54 Li    12.457827    0.126669   17.403050    ( 0.0000,  0.0000,  0.0000)
  55 Li     9.921480    1.743481   17.254769    ( 0.0000,  0.0000,  0.0000)
  56 Li     9.871211    3.490000   10.000000    ( 0.0000,  0.0000,  0.0000)
  57 Li    12.339013    5.235000   10.000000    ( 0.0000,  0.0000,  0.0000)
  58 Li    12.339013    3.490000   12.467803    ( 0.0000,  0.0000,  0.0000)
  59 Li     9.871211    5.235000   12.467803    ( 0.0000,  0.0000,  0.0000)
  60 Li     9.867420    3.479425   14.894037    ( 0.0000,  0.0000,  0.0000)
  61 Li    12.325030    5.183167   14.957506    ( 0.0000,  0.0000,  0.0000)
  62 Li    12.460879    3.355925   17.400446    ( 0.0000,  0.0000,  0.0000)
  63 Li     9.936753    5.197968   17.242191    ( 0.0000,  0.0000,  0.0000)
  64 Li     9.871211    6.980000   10.000000    ( 0.0000,  0.0000,  0.0000)
  65 Li    12.339013    8.725000   10.000000    ( 0.0000,  0.0000,  0.0000)
  66 Li    12.339013    6.980000   12.467803    ( 0.0000,  0.0000,  0.0000)
  67 Li     9.871211    8.725000   12.467803    ( 0.0000,  0.0000,  0.0000)
  68 Li     9.877793    6.980701   14.899199    ( 0.0000,  0.0000,  0.0000)
  69 Li    12.322957    8.778808   14.956473    ( 0.0000,  0.0000,  0.0000)
  70 Li    12.411587    6.987408   17.258460    ( 0.0000,  0.0000,  0.0000)
  71 Li     9.936752    8.763552   17.241734    ( 0.0000,  0.0000,  0.0000)
  72 Li     0.411301    1.454169   19.322724    ( 0.0000,  0.0000,  0.0000)

Unit cell:
           periodic     x           y           z      points  spacing
  1. axis:    yes   14.806816    0.000000    0.000000    49     0.3022
  2. axis:    yes    0.000000   10.470000    0.000000    35     0.2991
  3. axis:    no     0.000000    0.000000   27.403408    90     0.3045

  Lengths:  14.806816  10.470000  27.403408
  Angles:   90.000000  90.000000  90.000000

Effective grid spacing dv^(1/3) = 0.3019

     iter     time        total  log10-change:
                         energy   eigst   dens
iter:   1 03:57:39  -135.981432
iter:   2 03:57:42  -131.460021   -0.87  -0.55
iter:   3 03:57:45  -129.688601   -0.96  -0.70
iter:   4 03:57:48  -130.011187   -1.50  -0.88
iter:   5 03:57:51  -129.244944   -1.93  -0.89
iter:   6 03:57:54  -128.661688   -1.94  -1.01
iter:   7 03:57:57  -128.832174   -1.77  -1.28
iter:   8 03:58:00  -128.659690   -1.97  -1.19
iter:   9 03:58:03  -128.623713   -2.75  -1.40
iter:  10 03:58:06  -128.626974c  -2.32  -1.54
iter:  11 03:58:09  -128.570607   -2.78  -1.55
iter:  12 03:58:12  -128.566450   -3.47  -2.01
iter:  13 03:58:16  -128.566245c  -3.71  -2.13
iter:  14 03:58:19  -128.572619c  -3.44  -2.25
iter:  15 03:58:22  -128.564943c  -3.56  -2.12
iter:  16 03:58:25  -128.564512c  -4.27  -2.34
iter:  17 03:58:28  -128.565667c  -4.30  -2.63
iter:  18 03:58:31  -128.565116c  -4.72  -2.65
iter:  19 03:58:34  -128.564517c  -4.67  -2.76
iter:  20 03:58:37  -128.564614c  -4.99  -2.89
iter:  21 03:58:40  -128.564567c  -5.22  -2.98
iter:  22 03:58:43  -128.564275c  -4.92  -3.06
iter:  23 03:58:46  -128.564410c  -5.24  -3.00
iter:  24 03:58:49  -128.564470c  -5.27  -3.26
iter:  25 03:58:52  -128.564381c  -5.52c -3.48
iter:  26 03:58:55  -128.564293c  -5.49c -3.59
iter:  27 03:58:58  -128.564294c  -5.74c -3.67
iter:  28 03:59:01  -128.564297c  -5.64c -3.76
iter:  29 03:59:04  -128.564213c  -5.56c -3.86
iter:  30 03:59:07  -128.564223c  -5.71c -3.89
iter:  31 03:59:10  -128.564238c  -5.82c -4.02c

Converged after 31 iterations.

Dipole moment: (-6.311681, -3.512606, 0.353372) |e|*Ang

Energy contributions relative to reference atoms: (reference = -14803.510878)

Kinetic:       +114.194312
Potential:      -99.952548
External:        +0.000000
XC:            -141.631394
Entropy (-ST):   -1.390570
Local:           -0.479322
SIC:             +0.000000
--------------------------
Free energy:   -129.259523
Extrapolated:  -128.564238

Showing all kpts
 Kpt  Band  Eigenvalues  Occupancy
  0    34     -1.93990    1.52256
  0    35     -1.89221    1.32875
  0    36     -1.81863    0.97354
  0    37     -1.75844    0.68379

  1    34     -1.93932    1.52048
  1    35     -1.89219    1.32866
  1    36     -1.81866    0.97370
  1    37     -1.75833    0.68332


Fermi level: -1.82392

Gap: 0.074 eV
Transition (v -> c):
  (s=0, k=1, n=35, [0.25, 0.25, 0.00]) -> (s=0, k=1, n=36, [0.25, 0.25, 0.00])
No difference between direct/indirect transitions

Forces in eV/Ang:
  0 Li    0.00040    0.00101    0.10500
  1 Li   -0.00137   -0.00044    0.09657
  2 Li    0.00890   -0.01598   -0.08844
  3 Li   -0.00174    0.00373   -0.06759
  4 Li   -0.00339   -0.02753   -0.01173
  5 Li    0.03081    0.00032    0.00996
  6 Li    0.03756   -0.05176   -0.03148
  7 Li   -0.05876    0.04905   -0.22951
  8 Li    0.00068   -0.00212    0.10471
  9 Li   -0.00017   -0.00411    0.09054
 10 Li    0.00804    0.02630   -0.09334
 11 Li    0.00158    0.05660   -0.10855
 12 Li   -0.00292    0.02481   -0.01564
 13 Li   -0.01414    0.00006   -0.01901
 14 Li    0.00450    0.02183   -0.03105
 15 Li    0.01267   -0.01535   -0.01207
 16 Li   -0.00031    0.00121    0.08087
 17 Li   -0.00120    0.00453    0.09446
 18 Li   -0.00829   -0.00682   -0.00110
 19 Li   -0.00067   -0.06426   -0.12960
 20 Li    0.00344   -0.00189   -0.03997
 21 Li   -0.00897    0.00201   -0.01092
 22 Li   -0.01402   -0.00927   -0.00012
 23 Li   -0.00602    0.02658   -0.00744
 24 Li    0.00366    0.00043    0.08556
 25 Li    0.00168    0.00030    0.08943
 26 Li   -0.00035    0.00182   -0.06652
 27 Li   -0.00021    0.00280   -0.07607
 28 Li    0.00083    0.01051    0.00500
 29 Li   -0.00035   -0.00265   -0.02036
 30 Li    0.00869   -0.00165   -0.01309
 31 Li    0.02793    0.01674   -0.01839
 32 Li    0.00390   -0.00087    0.08615
 33 Li    0.00172    0.00112    0.08973
 34 Li    0.00052   -0.00266   -0.06451
 35 Li    0.00118   -0.00476   -0.04311
 36 Li    0.00215   -0.01163   -0.01248
 37 Li    0.00134    0.00205   -0.01236
 38 Li    0.00157    0.00362   -0.00851
 39 Li    0.00218    0.00833   -0.00628
 40 Li    0.00697    0.00028    0.09348
 41 Li    0.00146   -0.00110    0.08811
 42 Li   -0.00000    0.00085   -0.05978
 43 Li    0.00294    0.00135   -0.06343
 44 Li   -0.00069   -0.00114    0.00778
 45 Li    0.00149    0.00015   -0.01378
 46 Li    0.00107   -0.00219   -0.01058
 47 Li    0.01908   -0.02224   -0.02734
 48 Li   -0.00463   -0.00010    0.08572
 49 Li    0.00077   -0.00045    0.09198
 50 Li   -0.00876   -0.01494   -0.08568
 51 Li    0.00252   -0.00063   -0.07009
 52 Li   -0.00437    0.01252   -0.01237
 53 Li   -0.02160    0.00017    0.02005
 54 Li    0.01981   -0.02900   -0.00501
 55 Li   -0.03647   -0.00025   -0.02818
 56 Li   -0.00472    0.00020    0.08531
 57 Li   -0.00182   -0.00306    0.09182
 58 Li   -0.00879    0.01431   -0.08428
 59 Li   -0.00169   -0.00388   -0.05730
 60 Li   -0.00591   -0.01250   -0.01090
 61 Li    0.01415   -0.00066   -0.00383
 62 Li    0.01476    0.01626   -0.00745
 63 Li   -0.00448    0.00885   -0.01113
 64 Li   -0.00652   -0.00037    0.09353
 65 Li   -0.00050    0.00359    0.09104
 66 Li    0.00639    0.00148    0.00872
 67 Li   -0.00158    0.00419   -0.05863
 68 Li   -0.00308    0.00028    0.00251
 69 Li    0.01303    0.00399   -0.01444
 70 Li    0.01078   -0.00061    0.00773
 71 Li   -0.00575   -0.00855   -0.01023
 72 Li   -0.03689   -0.00881    0.16729

System changes: positions 

Initializing position-dependent things.

Density initialized from wave functions
       .-----------------------------------.  
      /|                                   |  
     / |                                   |  
    /  |                                   |  
   /   |                                   |  
  /    |                                   |  
 *     |                                   |  
 |     |                                   |  
 |     |                                   |  
 |     |                                   |  
 |     |                                   |  
 |     |                                   |  
 |     |                                   |  
 |    Li                                   |  
 |     |          Li          Li           |  
 | Li  |   Li          Li          Li      |  
 |  Li LiLi Li  Li          Li   Li Li     |  
 |     |         Li  Li Li               Li|  
 |Li   Li Li  Li          Li LiLi Li       |  
 |     |           Li Li                   |  
 |    Li       Li Li       Li Li       Li  |  
 |     |Li Li       Li Li       Li Li      |  
 |  Li |     Li Li       Li Li             |  
 |     | Li Li       Li Li       Li Li     |  
 |Li Li|      Li Li       Li Li            |  
 |     Li Li       Li Li       Li Li       |  
 | Li  |       Li          Li              |  
 |     |Li          Li          Li         |  
 Li    |     Li          Li                |  
 |     |                                   |  
 |     |                                   |  
 |     |                                   |  
 |     |                                   |  
 |     |                                   |  
 |     .-----------------------------------.  
 |    /                                   /   
 |   /                                   /    
 |  /                                   /     
 | /                                   /      
 |/                                   /       
 *-----------------------------------*        

Atomic positions and initial magnetic moments

Positions:
   0 Li     0.000000    0.000000   10.000000    ( 0.0000,  0.0000,  0.0000)
   1 Li     2.467803    1.745000   10.000000    ( 0.0000,  0.0000,  0.0000)
   2 Li     2.467803    0.000000   12.467803    ( 0.0000,  0.0000,  0.0000)
   3 Li     0.000000    1.745000   12.467803    ( 0.0000,  0.0000,  0.0000)
   4 Li     0.004476   -0.075725   14.751804    ( 0.0000,  0.0000,  0.0000)
   5 Li     2.445596    1.760115   14.838237    ( 0.0000,  0.0000,  0.0000)
   6 Li     2.359447    0.126119   17.312630    ( 0.0000,  0.0000,  0.0000)
   7 Li     0.021193    1.720125   16.836668    ( 0.0000,  0.0000,  0.0000)
   8 Li     0.000000    3.490000   10.000000    ( 0.0000,  0.0000,  0.0000)
   9 Li     2.467803    5.235000   10.000000    ( 0.0000,  0.0000,  0.0000)
  10 Li     2.467803    3.490000   12.467803    ( 0.0000,  0.0000,  0.0000)
  11 Li     0.000000    5.235000   12.467803    ( 0.0000,  0.0000,  0.0000)
  12 Li    -0.003093    3.555318   14.769990    ( 0.0000,  0.0000,  0.0000)
  13 Li     2.482956    5.183181   14.972732    ( 0.0000,  0.0000,  0.0000)
  14 Li     2.359116    3.339537   17.413427    ( 0.0000,  0.0000,  0.0000)
  15 Li     0.012034    5.114802   17.313599    ( 0.0000,  0.0000,  0.0000)
  16 Li     0.000000    6.980000   10.000000    ( 0.0000,  0.0000,  0.0000)
  17 Li     2.467803    8.725000   10.000000    ( 0.0000,  0.0000,  0.0000)
  18 Li     2.467803    6.980000   12.467803    ( 0.0000,  0.0000,  0.0000)
  19 Li     0.000000    8.725000   12.467803    ( 0.0000,  0.0000,  0.0000)
  20 Li    -0.003030    6.990360   14.988433    ( 0.0000,  0.0000,  0.0000)
  21 Li     2.483008    8.761729   14.929011    ( 0.0000,  0.0000,  0.0000)
  22 Li     2.408211    7.003953   17.271787    ( 0.0000,  0.0000,  0.0000)
  23 Li     0.021720    8.870676   17.342076    ( 0.0000,  0.0000,  0.0000)
  24 Li     4.935605    0.000000   10.000000    ( 0.0000,  0.0000,  0.0000)
  25 Li     7.403408    1.745000   10.000000    ( 0.0000,  0.0000,  0.0000)
  26 Li     7.403408    0.000000   12.467803    ( 0.0000,  0.0000,  0.0000)
  27 Li     4.935605    1.745000   12.467803    ( 0.0000,  0.0000,  0.0000)
  28 Li     4.934893    0.009977   14.888440    ( 0.0000,  0.0000,  0.0000)
  29 Li     7.404163    1.742998   14.899030    ( 0.0000,  0.0000,  0.0000)
  30 Li     7.393427    0.007579   17.233869    ( 0.0000,  0.0000,  0.0000)
  31 Li     4.863847    1.719802   17.288432    ( 0.0000,  0.0000,  0.0000)
  32 Li     4.935605    3.490000   10.000000    ( 0.0000,  0.0000,  0.0000)
  33 Li     7.403408    5.235000   10.000000    ( 0.0000,  0.0000,  0.0000)
  34 Li     7.403408    3.490000   12.467803    ( 0.0000,  0.0000,  0.0000)
  35 Li     4.935605    5.235000   12.467803    ( 0.0000,  0.0000,  0.0000)
  36 Li     4.942480    3.469633   14.906490    ( 0.0000,  0.0000,  0.0000)
  37 Li     7.402104    5.231511   14.894574    ( 0.0000,  0.0000,  0.0000)
  38 Li     7.390300    3.475024   17.231308    ( 0.0000,  0.0000,  0.0000)
  39 Li     4.858194    5.198061   17.247089    ( 0.0000,  0.0000,  0.0000)
  40 Li     4.935605    6.980000   10.000000    ( 0.0000,  0.0000,  0.0000)
  41 Li     7.403408    8.725000   10.000000    ( 0.0000,  0.0000,  0.0000)
  42 Li     7.403408    6.980000   12.467803    ( 0.0000,  0.0000,  0.0000)
  43 Li     4.935605    8.725000   12.467803    ( 0.0000,  0.0000,  0.0000)
  44 Li     4.932081    6.990367   14.911853    ( 0.0000,  0.0000,  0.0000)
  45 Li     7.404181    8.730487   14.893526    ( 0.0000,  0.0000,  0.0000)
  46 Li     7.390295    6.987395   17.233562    ( 0.0000,  0.0000,  0.0000)
  47 Li     4.848490    8.787167   17.275310    ( 0.0000,  0.0000,  0.0000)
  48 Li     9.871211    0.000000   10.000000    ( 0.0000,  0.0000,  0.0000)
  49 Li    12.339013    1.745000   10.000000    ( 0.0000,  0.0000,  0.0000)
  50 Li    12.339013    0.000000   12.467803    ( 0.0000,  0.0000,  0.0000)
  51 Li     9.871211    1.745000   12.467803    ( 0.0000,  0.0000,  0.0000)
  52 Li     9.867378    0.009997   14.895029    ( 0.0000,  0.0000,  0.0000)
  53 Li    12.360554    1.743026   14.865675    ( 0.0000,  0.0000,  0.0000)
  54 Li    12.458010    0.126347   17.402964    ( 0.0000,  0.0000,  0.0000)
  55 Li     9.921103    1.743477   17.254481    ( 0.0000,  0.0000,  0.0000)
  56 Li     9.871211    3.490000   10.000000    ( 0.0000,  0.0000,  0.0000)
  57 Li    12.339013    5.235000   10.000000    ( 0.0000,  0.0000,  0.0000)
  58 Li    12.339013    3.490000   12.467803    ( 0.0000,  0.0000,  0.0000)
  59 Li     9.871211    5.235000   12.467803    ( 0.0000,  0.0000,  0.0000)
  60 Li     9.867362    3.479301   14.893928    ( 0.0000,  0.0000,  0.0000)
  61 Li    12.325177    5.183173   14.957453    ( 0.0000,  0.0000,  0.0000)
  62 Li    12.461016    3.356110   17.400331    ( 0.0000,  0.0000,  0.0000)
  63 Li     9.936691    5.198066   17.242077    ( 0.0000,  0.0000,  0.0000)
  64 Li     9.871211    6.980000   10.000000    ( 0.0000,  0.0000,  0.0000)
  65 Li    12.339013    8.725000   10.000000    ( 0.0000,  0.0000,  0.0000)
  66 Li    12.339013    6.980000   12.467803    ( 0.0000,  0.0000,  0.0000)
  67 Li     9.871211    8.725000   12.467803    ( 0.0000,  0.0000,  0.0000)
  68 Li     9.877761    6.980705   14.899222    ( 0.0000,  0.0000,  0.0000)
  69 Li    12.323091    8.778837   14.956313    ( 0.0000,  0.0000,  0.0000)
  70 Li    12.411696    6.987411   17.258534    ( 0.0000,  0.0000,  0.0000)
  71 Li     9.936678    8.763459   17.241628    ( 0.0000,  0.0000,  0.0000)
  72 Li     0.411459    1.453709   19.324397    ( 0.0000,  0.0000,  0.0000)

Unit cell:
           periodic     x           y           z      points  spacing
  1. axis:    yes   14.806816    0.000000    0.000000    49     0.3022
  2. axis:    yes    0.000000   10.470000    0.000000    35     0.2991
  3. axis:    no     0.000000    0.000000   27.403408    90     0.3045

  Lengths:  14.806816  10.470000  27.403408
  Angles:   90.000000  90.000000  90.000000

Effective grid spacing dv^(1/3) = 0.3019

     iter     time        total  log10-change:
                         energy   eigst   dens
iter:   1 04:03:36  -128.565131   -4.80
iter:   2 04:03:40  -128.564988   -5.12  -2.72
iter:   3 04:03:43  -128.565120c  -5.73c -2.92
iter:   4 04:03:46  -128.565318c  -5.67c -3.32
iter:   5 04:03:49  -128.565199c  -6.08c -3.64
iter:   6 04:03:52  -128.565198c  -6.20c -3.78
iter:   7 04:03:55  -128.565234c  -6.24c -4.10c

Converged after 7 iterations.

Dipole moment: (-6.302356, -3.502844, 0.353792) |e|*Ang

Energy contributions relative to reference atoms: (reference = -14803.510878)

Kinetic:       +114.194956
Potential:      -99.951677
External:        +0.000000
XC:            -141.630515
Entropy (-ST):   -1.390901
Local:           -0.482547
SIC:             +0.000000
--------------------------
Free energy:   -129.260685
Extrapolated:  -128.565234

Showing all kpts
 Kpt  Band  Eigenvalues  Occupancy
  0    34     -1.93990    1.52242
  0    35     -1.89217    1.32841
  0    36     -1.81862    0.97329
  0    37     -1.75848    0.68379

  1    34     -1.93932    1.52031
  1    35     -1.89216    1.32833
  1    36     -1.81866    0.97346
  1    37     -1.75838    0.68334


Fermi level: -1.82397

Gap: 0.074 eV
Transition (v -> c):
  (s=0, k=1, n=35, [0.25, 0.25, 0.00]) -> (s=0, k=1, n=36, [0.25, 0.25, 0.00])
No difference between direct/indirect transitions

Forces in eV/Ang:
  0 Li    0.00041    0.00102    0.10507
  1 Li   -0.00138   -0.00045    0.09667
  2 Li    0.00902   -0.01589   -0.08840
  3 Li   -0.00173    0.00364   -0.06694
  4 Li   -0.00327   -0.02755   -0.01208
  5 Li    0.03027    0.00026    0.00953
  6 Li    0.03658   -0.05061   -0.03074
  7 Li   -0.05690    0.04779   -0.22155
  8 Li    0.00067   -0.00209    0.10475
  9 Li   -0.00021   -0.00409    0.09061
 10 Li    0.00819    0.02623   -0.09334
 11 Li    0.00159    0.05690   -0.10876
 12 Li   -0.00283    0.02518   -0.01614
 13 Li   -0.01397   -0.00032   -0.01873
 14 Li    0.00440    0.02127   -0.03072
 15 Li    0.01243   -0.01501   -0.01211
 16 Li   -0.00023    0.00118    0.08092
 17 Li   -0.00122    0.00451    0.09462
 18 Li   -0.00834   -0.00684   -0.00109
 19 Li   -0.00070   -0.06450   -0.12985
 20 Li    0.00338   -0.00169   -0.03956
 21 Li   -0.00879    0.00208   -0.01077
 22 Li   -0.01400   -0.00899    0.00024
 23 Li   -0.00585    0.02606   -0.00740
 24 Li    0.00360    0.00039    0.08563
 25 Li    0.00174    0.00027    0.08936
 26 Li   -0.00035    0.00184   -0.06655
 27 Li   -0.00017    0.00278   -0.07620
 28 Li    0.00054    0.01035    0.00493
 29 Li   -0.00023   -0.00258   -0.02004
 30 Li    0.00847   -0.00160   -0.01307
 31 Li    0.02756    0.01656   -0.01809
 32 Li    0.00381   -0.00082    0.08620
 33 Li    0.00172    0.00111    0.08975
 34 Li    0.00053   -0.00264   -0.06450
 35 Li    0.00126   -0.00477   -0.04295
 36 Li    0.00194   -0.01135   -0.01233
 37 Li    0.00139    0.00221   -0.01236
 38 Li    0.00153    0.00362   -0.00856
 39 Li    0.00185    0.00800   -0.00607
 40 Li    0.00695    0.00027    0.09347
 41 Li    0.00146   -0.00106    0.08810
 42 Li    0.00006    0.00081   -0.05967
 43 Li    0.00300    0.00138   -0.06321
 44 Li   -0.00055   -0.00114    0.00728
 45 Li    0.00154   -0.00007   -0.01375
 46 Li    0.00121   -0.00223   -0.01071
 47 Li    0.01861   -0.02195   -0.02702
 48 Li   -0.00463   -0.00010    0.08574
 49 Li    0.00080   -0.00044    0.09210
 50 Li   -0.00886   -0.01488   -0.08564
 51 Li    0.00243   -0.00064   -0.07022
 52 Li   -0.00430    0.01216   -0.01243
 53 Li   -0.02122    0.00012    0.01954
 54 Li    0.01926   -0.02848   -0.00477
 55 Li   -0.03551   -0.00028   -0.02778
 56 Li   -0.00469    0.00022    0.08532
 57 Li   -0.00179   -0.00310    0.09187
 58 Li   -0.00895    0.01426   -0.08419
 59 Li   -0.00176   -0.00383   -0.05709
 60 Li   -0.00588   -0.01212   -0.01099
 61 Li    0.01397   -0.00099   -0.00372
 62 Li    0.01425    0.01609   -0.00724
 63 Li   -0.00422    0.00871   -0.01097
 64 Li   -0.00651   -0.00038    0.09351
 65 Li   -0.00047    0.00361    0.09111
 66 Li    0.00637    0.00147    0.00879
 67 Li   -0.00159    0.00417   -0.05845
 68 Li   -0.00311    0.00026    0.00213
 69 Li    0.01288    0.00412   -0.01411
 70 Li    0.01091   -0.00044    0.00811
 71 Li   -0.00535   -0.00843   -0.01009
 72 Li   -0.03717   -0.00858    0.16008

System changes: positions 

Initializing position-dependent things.

Density initialized from wave functions
       .-----------------------------------.  
      /|                                   |  
     / |                                   |  
    /  |                                   |  
   /   |                                   |  
  /    |                                   |  
 *     |                                   |  
 |     |                                   |  
 |     |                                   |  
 |     |                                   |  
 |     |                                   |  
 |     |                                   |  
 |     |                                   |  
 |    Li                                   |  
 |     |          Li          Li           |  
 | Li  |   Li          Li          Li      |  
 |  Li LiLi Li  Li          Li   Li Li     |  
 |     |         Li  Li Li               Li|  
 |Li   Li Li  Li          Li LiLi Li       |  
 |     |           Li Li                   |  
 |    Li       Li Li       Li Li       Li  |  
 |     |Li Li       Li Li       Li Li      |  
 |  Li |     Li Li       Li Li             |  
 |     | Li Li       Li Li       Li Li     |  
 |Li Li|      Li Li       Li Li            |  
 |     Li Li       Li Li       Li Li       |  
 | Li  |       Li          Li              |  
 |     |Li          Li          Li         |  
 Li    |     Li          Li                |  
 |     |                                   |  
 |     |                                   |  
 |     |                                   |  
 |     |                                   |  
 |     |                                   |  
 |     .-----------------------------------.  
 |    /                                   /   
 |   /                                   /    
 |  /                                   /     
 | /                                   /      
 |/                                   /       
 *-----------------------------------*        

Atomic positions and initial magnetic moments

Positions:
   0 Li     0.000000    0.000000   10.000000    ( 0.0000,  0.0000,  0.0000)
   1 Li     2.467803    1.745000   10.000000    ( 0.0000,  0.0000,  0.0000)
   2 Li     2.467803    0.000000   12.467803    ( 0.0000,  0.0000,  0.0000)
   3 Li     0.000000    1.745000   12.467803    ( 0.0000,  0.0000,  0.0000)
   4 Li     0.004421   -0.076238   14.751619    ( 0.0000,  0.0000,  0.0000)
   5 Li     2.446219    1.760159   14.838377    ( 0.0000,  0.0000,  0.0000)
   6 Li     2.360245    0.125030   17.311707    ( 0.0000,  0.0000,  0.0000)
   7 Li     0.020090    1.721031   16.832456    ( 0.0000,  0.0000,  0.0000)
   8 Li     0.000000    3.490000   10.000000    ( 0.0000,  0.0000,  0.0000)
   9 Li     2.467803    5.235000   10.000000    ( 0.0000,  0.0000,  0.0000)
  10 Li     2.467803    3.490000   12.467803    ( 0.0000,  0.0000,  0.0000)
  11 Li     0.000000    5.235000   12.467803    ( 0.0000,  0.0000,  0.0000)
  12 Li    -0.003158    3.555755   14.769772    ( 0.0000,  0.0000,  0.0000)
  13 Li     2.482667    5.183204   14.972364    ( 0.0000,  0.0000,  0.0000)
  14 Li     2.359260    3.339972   17.412763    ( 0.0000,  0.0000,  0.0000)
  15 Li     0.012315    5.114559   17.313330    ( 0.0000,  0.0000,  0.0000)
  16 Li     0.000000    6.980000   10.000000    ( 0.0000,  0.0000,  0.0000)
  17 Li     2.467803    8.725000   10.000000    ( 0.0000,  0.0000,  0.0000)
  18 Li     2.467803    6.980000   12.467803    ( 0.0000,  0.0000,  0.0000)
  19 Li     0.000000    8.725000   12.467803    ( 0.0000,  0.0000,  0.0000)
  20 Li    -0.002969    6.990351   14.987627    ( 0.0000,  0.0000,  0.0000)
  21 Li     2.482823    8.761705   14.928693    ( 0.0000,  0.0000,  0.0000)
  22 Li     2.407960    7.003831   17.271815    ( 0.0000,  0.0000,  0.0000)
  23 Li     0.021656    8.871206   17.341972    ( 0.0000,  0.0000,  0.0000)
  24 Li     4.935605    0.000000   10.000000    ( 0.0000,  0.0000,  0.0000)
  25 Li     7.403408    1.745000   10.000000    ( 0.0000,  0.0000,  0.0000)
  26 Li     7.403408    0.000000   12.467803    ( 0.0000,  0.0000,  0.0000)
  27 Li     4.935605    1.745000   12.467803    ( 0.0000,  0.0000,  0.0000)
  28 Li     4.934893    0.010180   14.888525    ( 0.0000,  0.0000,  0.0000)
  29 Li     7.404159    1.742940   14.898623    ( 0.0000,  0.0000,  0.0000)
  30 Li     7.393573    0.007542   17.233620    ( 0.0000,  0.0000,  0.0000)
  31 Li     4.864373    1.720071   17.288139    ( 0.0000,  0.0000,  0.0000)
  32 Li     4.935605    3.490000   10.000000    ( 0.0000,  0.0000,  0.0000)
  33 Li     7.403408    5.235000   10.000000    ( 0.0000,  0.0000,  0.0000)
  34 Li     7.403408    3.490000   12.467803    ( 0.0000,  0.0000,  0.0000)
  35 Li     4.935605    5.235000   12.467803    ( 0.0000,  0.0000,  0.0000)
  36 Li     4.942527    3.469382   14.906273    ( 0.0000,  0.0000,  0.0000)
  37 Li     7.402128    5.231555   14.894329    ( 0.0000,  0.0000,  0.0000)
  38 Li     7.390298    3.475082   17.231143    ( 0.0000,  0.0000,  0.0000)
  39 Li     4.858237    5.198243   17.246973    ( 0.0000,  0.0000,  0.0000)
  40 Li     4.935605    6.980000   10.000000    ( 0.0000,  0.0000,  0.0000)
  41 Li     7.403408    8.725000   10.000000    ( 0.0000,  0.0000,  0.0000)
  42 Li     7.403408    6.980000   12.467803    ( 0.0000,  0.0000,  0.0000)
  43 Li     4.935605    8.725000   12.467803    ( 0.0000,  0.0000,  0.0000)
  44 Li     4.932080    6.990371   14.912032    ( 0.0000,  0.0000,  0.0000)
  45 Li     7.404214    8.730491   14.893250    ( 0.0000,  0.0000,  0.0000)
  46 Li     7.390285    6.987369   17.233354    ( 0.0000,  0.0000,  0.0000)
  47 Li     4.848846    8.786769   17.274845    ( 0.0000,  0.0000,  0.0000)
  48 Li     9.871211    0.000000   10.000000    ( 0.0000,  0.0000,  0.0000)
  49 Li    12.339013    1.745000   10.000000    ( 0.0000,  0.0000,  0.0000)
  50 Li    12.339013    0.000000   12.467803    ( 0.0000,  0.0000,  0.0000)
  51 Li     9.871211    1.745000   12.467803    ( 0.0000,  0.0000,  0.0000)
  52 Li     9.867293    0.010239   14.894783    ( 0.0000,  0.0000,  0.0000)
  53 Li    12.360112    1.743024   14.866086    ( 0.0000,  0.0000,  0.0000)
  54 Li    12.458371    0.125707   17.402794    ( 0.0000,  0.0000,  0.0000)
  55 Li     9.920357    1.743468   17.253907    ( 0.0000,  0.0000,  0.0000)
  56 Li     9.871211    3.490000   10.000000    ( 0.0000,  0.0000,  0.0000)
  57 Li    12.339013    5.235000   10.000000    ( 0.0000,  0.0000,  0.0000)
  58 Li    12.339013    3.490000   12.467803    ( 0.0000,  0.0000,  0.0000)
  59 Li     9.871211    5.235000   12.467803    ( 0.0000,  0.0000,  0.0000)
  60 Li     9.867246    3.479058   14.893708    ( 0.0000,  0.0000,  0.0000)
  61 Li    12.325470    5.183183   14.957349    ( 0.0000,  0.0000,  0.0000)
  62 Li    12.461284    3.356479   17.400105    ( 0.0000,  0.0000,  0.0000)
  63 Li     9.936571    5.198260   17.241850    ( 0.0000,  0.0000,  0.0000)
  64 Li     9.871211    6.980000   10.000000    ( 0.0000,  0.0000,  0.0000)
  65 Li    12.339013    8.725000   10.000000    ( 0.0000,  0.0000,  0.0000)
  66 Li    12.339013    6.980000   12.467803    ( 0.0000,  0.0000,  0.0000)
  67 Li     9.871211    8.725000   12.467803    ( 0.0000,  0.0000,  0.0000)
  68 Li     9.877696    6.980712   14.899266    ( 0.0000,  0.0000,  0.0000)
  69 Li    12.323356    8.778897   14.955996    ( 0.0000,  0.0000,  0.0000)
  70 Li    12.411917    6.987419   17.258686    ( 0.0000,  0.0000,  0.0000)
  71 Li     9.936534    8.763274   17.241418    ( 0.0000,  0.0000,  0.0000)
  72 Li     0.411756    1.452800   19.327671    ( 0.0000,  0.0000,  0.0000)

Unit cell:
           periodic     x           y           z      points  spacing
  1. axis:    yes   14.806816    0.000000    0.000000    49     0.3022
  2. axis:    yes    0.000000   10.470000    0.000000    35     0.2991
  3. axis:    no     0.000000    0.000000   27.403408    90     0.3045

  Lengths:  14.806816  10.470000  27.403408
  Angles:   90.000000  90.000000  90.000000

Effective grid spacing dv^(1/3) = 0.3019

     iter     time        total  log10-change:
                         energy   eigst   dens
iter:   1 04:06:14  -128.568850   -4.19
iter:   2 04:06:17  -128.567148   -4.38  -2.33
iter:   3 04:06:20  -128.566999c  -5.50c -2.57
iter:   4 04:06:23  -128.567388c  -5.28  -2.98
iter:   5 04:06:26  -128.567222c  -6.04c -3.33
iter:   6 04:06:29  -128.567140c  -6.25c -3.46
iter:   7 04:06:32  -128.567188c  -6.57c -3.76
iter:   8 04:06:35  -128.567215c  -6.67c -4.01c

Converged after 8 iterations.

Dipole moment: (-6.283494, -3.482869, 0.355605) |e|*Ang

Energy contributions relative to reference atoms: (reference = -14803.510878)

Kinetic:       +114.180712
Potential:      -99.943365
External:        +0.000000
XC:            -141.626656
Entropy (-ST):   -1.391014
Local:           -0.482399
SIC:             +0.000000
--------------------------
Free energy:   -129.262722
Extrapolated:  -128.567215

Showing all kpts
 Kpt  Band  Eigenvalues  Occupancy
  0    34     -1.93966    1.52216
  0    35     -1.89195    1.32813
  0    36     -1.81839    0.97296
  0    37     -1.75833    0.68385

  1    34     -1.93908    1.52002
  1    35     -1.89193    1.32807
  1    36     -1.81842    0.97312
  1    37     -1.75823    0.68342


Fermi level: -1.82380

Gap: 0.074 eV
Transition (v -> c):
  (s=0, k=1, n=35, [0.25, 0.25, 0.00]) -> (s=0, k=1, n=36, [0.25, 0.25, 0.00])
No difference between direct/indirect transitions

Forces in eV/Ang:
  0 Li    0.00041    0.00102    0.10490
  1 Li   -0.00137   -0.00046    0.09648
  2 Li    0.00906   -0.01587   -0.08846
  3 Li   -0.00172    0.00361   -0.06612
  4 Li   -0.00306   -0.02793   -0.01335
  5 Li    0.02952    0.00019    0.00860
  6 Li    0.03459   -0.04825   -0.02971
  7 Li   -0.05300    0.04524   -0.20573
  8 Li    0.00066   -0.00208    0.10461
  9 Li   -0.00022   -0.00412    0.09061
 10 Li    0.00826    0.02621   -0.09349
 11 Li    0.00160    0.05714   -0.10938
 12 Li   -0.00268    0.02630   -0.01785
 13 Li   -0.01356   -0.00056   -0.01826
 14 Li    0.00407    0.02007   -0.03033
 15 Li    0.01205   -0.01412   -0.01252
 16 Li   -0.00021    0.00118    0.08077
 17 Li   -0.00122    0.00454    0.09462
 18 Li   -0.00836   -0.00686   -0.00141
 19 Li   -0.00070   -0.06470   -0.13049
 20 Li    0.00332   -0.00145   -0.03843
 21 Li   -0.00844    0.00181   -0.01065
 22 Li   -0.01381   -0.00861    0.00021
 23 Li   -0.00545    0.02498   -0.00775
 24 Li    0.00356    0.00042    0.08552
 25 Li    0.00174    0.00024    0.08930
 26 Li   -0.00033    0.00191   -0.06692
 27 Li   -0.00006    0.00273   -0.07650
 28 Li    0.00041    0.00997    0.00483
 29 Li   -0.00018   -0.00247   -0.01948
 30 Li    0.00813   -0.00164   -0.01314
 31 Li    0.02721    0.01624   -0.01774
 32 Li    0.00376   -0.00084    0.08613
 33 Li    0.00170    0.00113    0.08981
 34 Li    0.00052   -0.00269   -0.06481
 35 Li    0.00122   -0.00471   -0.04306
 36 Li    0.00184   -0.01074   -0.01204
 37 Li    0.00134    0.00223   -0.01210
 38 Li    0.00152    0.00373   -0.00875
 39 Li    0.00160    0.00767   -0.00604
 40 Li    0.00698    0.00027    0.09354
 41 Li    0.00145   -0.00107    0.08811
 42 Li    0.00009    0.00078   -0.06002
 43 Li    0.00298    0.00137   -0.06320
 44 Li   -0.00056   -0.00120    0.00669
 45 Li    0.00153   -0.00018   -0.01344
 46 Li    0.00134   -0.00227   -0.01082
 47 Li    0.01825   -0.02169   -0.02661
 48 Li   -0.00459   -0.00006    0.08565
 49 Li    0.00078   -0.00044    0.09192
 50 Li   -0.00891   -0.01481   -0.08570
 51 Li    0.00229   -0.00066   -0.07060
 52 Li   -0.00420    0.01152   -0.01235
 53 Li   -0.02106    0.00007    0.01841
 54 Li    0.01812   -0.02740   -0.00461
 55 Li   -0.03405   -0.00031   -0.02723
 56 Li   -0.00465    0.00020    0.08525
 57 Li   -0.00178   -0.00314    0.09190
 58 Li   -0.00903    0.01422   -0.08422
 59 Li   -0.00174   -0.00376   -0.05718
 60 Li   -0.00579   -0.01147   -0.01093
 61 Li    0.01358   -0.00127   -0.00345
 62 Li    0.01307    0.01576   -0.00701
 63 Li   -0.00391    0.00847   -0.01088
 64 Li   -0.00651   -0.00038    0.09357
 65 Li   -0.00047    0.00365    0.09114
 66 Li    0.00639    0.00143    0.00859
 67 Li   -0.00154    0.00414   -0.05854
 68 Li   -0.00292    0.00025    0.00178
 69 Li    0.01247    0.00408   -0.01356
 70 Li    0.01098   -0.00031    0.00811
 71 Li   -0.00492   -0.00824   -0.01005
 72 Li   -0.03769   -0.00799    0.14739

System changes: positions 

Initializing position-dependent things.

Density initialized from wave functions
       .-----------------------------------.  
      /|                                   |  
     / |                                   |  
    /  |                                   |  
   /   |                                   |  
  /    |                                   |  
 *     |                                   |  
 |     |                                   |  
 |     |                                   |  
 |     |                                   |  
 |     |                                   |  
 |     |                                   |  
 |     |                                   |  
 |    Li                                   |  
 |     |          Li          Li           |  
 | Li  |   Li          Li          Li      |  
 |  Li LiLi Li  Li          Li   Li Li     |  
 |     |         Li  Li Li               Li|  
 |Li   Li Li  Li          Li LiLi Li       |  
 |     |           Li Li                   |  
 |    Li       Li Li       Li Li       Li  |  
 |     |Li Li       Li Li       Li Li      |  
 |  Li |     Li Li       Li Li             |  
 |     | Li Li       Li Li       Li Li     |  
 |Li Li|      Li Li       Li Li            |  
 |     Li Li       Li Li       Li Li       |  
 | Li  |       Li          Li              |  
 |     |Li          Li          Li         |  
 Li    |     Li          Li                |  
 |     |                                   |  
 |     |                                   |  
 |     |                                   |  
 |     |                                   |  
 |     |                                   |  
 |     .-----------------------------------.  
 |    /                                   /   
 |   /                                   /    
 |  /                                   /     
 | /                                   /      
 |/                                   /       
 *-----------------------------------*        

Atomic positions and initial magnetic moments

Positions:
   0 Li     0.000000    0.000000   10.000000    ( 0.0000,  0.0000,  0.0000)
   1 Li     2.467803    1.745000   10.000000    ( 0.0000,  0.0000,  0.0000)
   2 Li     2.467803    0.000000   12.467803    ( 0.0000,  0.0000,  0.0000)
   3 Li     0.000000    1.745000   12.467803    ( 0.0000,  0.0000,  0.0000)
   4 Li     0.004340   -0.077019   14.751322    ( 0.0000,  0.0000,  0.0000)
   5 Li     2.447145    1.760223   14.838577    ( 0.0000,  0.0000,  0.0000)
   6 Li     2.361418    0.123424   17.310341    ( 0.0000,  0.0000,  0.0000)
   7 Li     0.018480    1.722363   16.826326    ( 0.0000,  0.0000,  0.0000)
   8 Li     0.000000    3.490000   10.000000    ( 0.0000,  0.0000,  0.0000)
   9 Li     2.467803    5.235000   10.000000    ( 0.0000,  0.0000,  0.0000)
  10 Li     2.467803    3.490000   12.467803    ( 0.0000,  0.0000,  0.0000)
  11 Li     0.000000    5.235000   12.467803    ( 0.0000,  0.0000,  0.0000)
  12 Li    -0.003254    3.556431   14.769415    ( 0.0000,  0.0000,  0.0000)
  13 Li     2.482238    5.183233   14.971816    ( 0.0000,  0.0000,  0.0000)
  14 Li     2.359470    3.340609   17.411771    ( 0.0000,  0.0000,  0.0000)
  15 Li     0.012733    5.114203   17.312921    ( 0.0000,  0.0000,  0.0000)
  16 Li     0.000000    6.980000   10.000000    ( 0.0000,  0.0000,  0.0000)
  17 Li     2.467803    8.725000   10.000000    ( 0.0000,  0.0000,  0.0000)
  18 Li     2.467803    6.980000   12.467803    ( 0.0000,  0.0000,  0.0000)
  19 Li     0.000000    8.725000   12.467803    ( 0.0000,  0.0000,  0.0000)
  20 Li    -0.002878    6.990339   14.986427    ( 0.0000,  0.0000,  0.0000)
  21 Li     2.482549    8.761670   14.928220    ( 0.0000,  0.0000,  0.0000)
  22 Li     2.407583    7.003651   17.271858    ( 0.0000,  0.0000,  0.0000)
  23 Li     0.021564    8.871989   17.341810    ( 0.0000,  0.0000,  0.0000)
  24 Li     4.935605    0.000000   10.000000    ( 0.0000,  0.0000,  0.0000)
  25 Li     7.403408    1.745000   10.000000    ( 0.0000,  0.0000,  0.0000)
  26 Li     7.403408    0.000000   12.467803    ( 0.0000,  0.0000,  0.0000)
  27 Li     4.935605    1.745000   12.467803    ( 0.0000,  0.0000,  0.0000)
  28 Li     4.934891    0.010482   14.888653    ( 0.0000,  0.0000,  0.0000)
  29 Li     7.404155    1.742856   14.898018    ( 0.0000,  0.0000,  0.0000)
  30 Li     7.393790    0.007488   17.233243    ( 0.0000,  0.0000,  0.0000)
  31 Li     4.865160    1.720476   17.287701    ( 0.0000,  0.0000,  0.0000)
  32 Li     4.935605    3.490000   10.000000    ( 0.0000,  0.0000,  0.0000)
  33 Li     7.403408    5.235000   10.000000    ( 0.0000,  0.0000,  0.0000)
  34 Li     7.403408    3.490000   12.467803    ( 0.0000,  0.0000,  0.0000)
  35 Li     4.935605    5.235000   12.467803    ( 0.0000,  0.0000,  0.0000)
  36 Li     4.942594    3.469013   14.905949    ( 0.0000,  0.0000,  0.0000)
  37 Li     7.402164    5.231624   14.893963    ( 0.0000,  0.0000,  0.0000)
  38 Li     7.390296    3.475171   17.230892    ( 0.0000,  0.0000,  0.0000)
  39 Li     4.858297    5.198510   17.246799    ( 0.0000,  0.0000,  0.0000)
  40 Li     4.935605    6.980000   10.000000    ( 0.0000,  0.0000,  0.0000)
  41 Li     7.403408    8.725000   10.000000    ( 0.0000,  0.0000,  0.0000)
  42 Li     7.403408    6.980000   12.467803    ( 0.0000,  0.0000,  0.0000)
  43 Li     4.935605    8.725000   12.467803    ( 0.0000,  0.0000,  0.0000)
  44 Li     4.932078    6.990374   14.912291    ( 0.0000,  0.0000,  0.0000)
  45 Li     7.404262    8.730494   14.892839    ( 0.0000,  0.0000,  0.0000)
  46 Li     7.390274    6.987329   17.233038    ( 0.0000,  0.0000,  0.0000)
  47 Li     4.849376    8.786173   17.274146    ( 0.0000,  0.0000,  0.0000)
  48 Li     9.871211    0.000000   10.000000    ( 0.0000,  0.0000,  0.0000)
  49 Li    12.339013    1.745000   10.000000    ( 0.0000,  0.0000,  0.0000)
  50 Li    12.339013    0.000000   12.467803    ( 0.0000,  0.0000,  0.0000)
  51 Li     9.871211    1.745000   12.467803    ( 0.0000,  0.0000,  0.0000)
  52 Li     9.867167    0.010594   14.894413    ( 0.0000,  0.0000,  0.0000)
  53 Li    12.359451    1.743020   14.866688    ( 0.0000,  0.0000,  0.0000)
  54 Li    12.458901    0.124762   17.402544    ( 0.0000,  0.0000,  0.0000)
  55 Li     9.919257    1.743453   17.253052    ( 0.0000,  0.0000,  0.0000)
  56 Li     9.871211    3.490000   10.000000    ( 0.0000,  0.0000,  0.0000)
  57 Li    12.339013    5.235000   10.000000    ( 0.0000,  0.0000,  0.0000)
  58 Li    12.339013    3.490000   12.467803    ( 0.0000,  0.0000,  0.0000)
  59 Li     9.871211    5.235000   12.467803    ( 0.0000,  0.0000,  0.0000)
  60 Li     9.867072    3.478702   14.893377    ( 0.0000,  0.0000,  0.0000)
  61 Li    12.325905    5.183191   14.957197    ( 0.0000,  0.0000,  0.0000)
  62 Li    12.461672    3.357030   17.399771    ( 0.0000,  0.0000,  0.0000)
  63 Li     9.936397    5.198549   17.241510    ( 0.0000,  0.0000,  0.0000)
  64 Li     9.871211    6.980000   10.000000    ( 0.0000,  0.0000,  0.0000)
  65 Li    12.339013    8.725000   10.000000    ( 0.0000,  0.0000,  0.0000)
  66 Li    12.339013    6.980000   12.467803    ( 0.0000,  0.0000,  0.0000)
  67 Li     9.871211    8.725000   12.467803    ( 0.0000,  0.0000,  0.0000)
  68 Li     9.877599    6.980722   14.899324    ( 0.0000,  0.0000,  0.0000)
  69 Li    12.323750    8.778989   14.955527    ( 0.0000,  0.0000,  0.0000)
  70 Li    12.412250    6.987434   17.258917    ( 0.0000,  0.0000,  0.0000)
  71 Li     9.936326    8.762999   17.241103    ( 0.0000,  0.0000,  0.0000)
  72 Li     0.412156    1.451466   19.332418    ( 0.0000,  0.0000,  0.0000)

Unit cell:
           periodic     x           y           z      points  spacing
  1. axis:    yes   14.806816    0.000000    0.000000    49     0.3022
  2. axis:    yes    0.000000   10.470000    0.000000    35     0.2991
  3. axis:    no     0.000000    0.000000   27.403408    90     0.3045

  Lengths:  14.806816  10.470000  27.403408
  Angles:   90.000000  90.000000  90.000000

Effective grid spacing dv^(1/3) = 0.3019

     iter     time        total  log10-change:
                         energy   eigst   dens
iter:   1 04:09:10  -128.572749   -3.96
iter:   2 04:09:13  -128.569998   -4.25  -2.24
iter:   3 04:09:16  -128.569678c  -5.28  -2.45
iter:   4 04:09:19  -128.570154c  -5.04  -2.86
iter:   5 04:09:22  -128.569915c  -5.90c -3.20
iter:   6 04:09:25  -128.569830c  -6.18c -3.33
iter:   7 04:09:28  -128.569908c  -6.51c -3.63
iter:   8 04:09:31  -128.569921c  -6.90c -3.86
iter:   9 04:09:34  -128.569852c  -6.72c -3.91
iter:  10 04:09:36  -128.569874c  -7.12c -4.01c

Converged after 10 iterations.

Dipole moment: (-6.255611, -3.452827, 0.358026) |e|*Ang

Energy contributions relative to reference atoms: (reference = -14803.510878)

Kinetic:       +114.161057
Potential:      -99.930940
External:        +0.000000
XC:            -141.622036
Entropy (-ST):   -1.391120
Local:           -0.482396
SIC:             +0.000000
--------------------------
Free energy:   -129.265434
Extrapolated:  -128.569874

Showing all kpts
 Kpt  Band  Eigenvalues  Occupancy
  0    34     -1.93907    1.52190
  0    35     -1.89139    1.32797
  0    36     -1.81782    0.97269
  0    37     -1.75776    0.68363

  1    34     -1.93848    1.51973
  1    35     -1.89138    1.32790
  1    36     -1.81785    0.97284
  1    37     -1.75767    0.68322


Fermi level: -1.82328

Gap: 0.074 eV
Transition (v -> c):
  (s=0, k=1, n=35, [0.25, 0.25, 0.00]) -> (s=0, k=1, n=36, [0.25, 0.25, 0.00])
No difference between direct/indirect transitions

Forces in eV/Ang:
  0 Li    0.00039    0.00101    0.10528
  1 Li   -0.00133   -0.00045    0.09677
  2 Li    0.00906   -0.01585   -0.08848
  3 Li   -0.00175    0.00364   -0.06548
  4 Li   -0.00266   -0.02870   -0.01554
  5 Li    0.02871    0.00013    0.00719
  6 Li    0.03182   -0.04478   -0.02848
  7 Li   -0.04714    0.04157   -0.18297
  8 Li    0.00063   -0.00208    0.10505
  9 Li   -0.00026   -0.00419    0.09097
 10 Li    0.00820    0.02623   -0.09355
 11 Li    0.00163    0.05737   -0.10997
 12 Li   -0.00239    0.02817   -0.02092
 13 Li   -0.01275   -0.00036   -0.01807
 14 Li    0.00359    0.01824   -0.02985
 15 Li    0.01168   -0.01290   -0.01324
 16 Li   -0.00019    0.00118    0.08099
 17 Li   -0.00125    0.00460    0.09499
 18 Li   -0.00841   -0.00693   -0.00130
 19 Li   -0.00067   -0.06498   -0.13119
 20 Li    0.00324   -0.00120   -0.03715
 21 Li   -0.00783    0.00096   -0.01086
 22 Li   -0.01345   -0.00819   -0.00049
 23 Li   -0.00475    0.02348   -0.00854
 24 Li    0.00364    0.00052    0.08564
 25 Li    0.00177    0.00019    0.08933
 26 Li   -0.00041    0.00199   -0.06712
 27 Li   -0.00000    0.00261   -0.07670
 28 Li    0.00062    0.00923    0.00427
 29 Li   -0.00011   -0.00237   -0.01884
 30 Li    0.00789   -0.00185   -0.01339
 31 Li    0.02673    0.01588   -0.01731
 32 Li    0.00380   -0.00095    0.08624
 33 Li    0.00171    0.00105    0.08980
 34 Li    0.00045   -0.00280   -0.06496
 35 Li    0.00097   -0.00460   -0.04266
 36 Li    0.00194   -0.00958   -0.01192
 37 Li    0.00114    0.00215   -0.01165
 38 Li    0.00166    0.00403   -0.00919
 39 Li    0.00159    0.00742   -0.00637
 40 Li    0.00702    0.00029    0.09372
 41 Li    0.00145   -0.00095    0.08810
 42 Li   -0.00003    0.00081   -0.06007
 43 Li    0.00282    0.00139   -0.06269
 44 Li   -0.00074   -0.00142    0.00574
 45 Li    0.00141   -0.00020   -0.01301
 46 Li    0.00144   -0.00233   -0.01111
 47 Li    0.01824   -0.02160   -0.02629
 48 Li   -0.00464    0.00008    0.08568
 49 Li    0.00071   -0.00045    0.09220
 50 Li   -0.00893   -0.01460   -0.08569
 51 Li    0.00234   -0.00068   -0.07085
 52 Li   -0.00417    0.01058   -0.01233
 53 Li   -0.02147    0.00002    0.01640
 54 Li    0.01634   -0.02592   -0.00458
 55 Li   -0.03235   -0.00031   -0.02662
 56 Li   -0.00468    0.00004    0.08530
 57 Li   -0.00173   -0.00325    0.09222
 58 Li   -0.00899    0.01410   -0.08405
 59 Li   -0.00149   -0.00381   -0.05689
 60 Li   -0.00568   -0.01049   -0.01090
 61 Li    0.01274   -0.00114   -0.00341
 62 Li    0.01114    0.01539   -0.00677
 63 Li   -0.00367    0.00813   -0.01110
 64 Li   -0.00657   -0.00036    0.09362
 65 Li   -0.00044    0.00376    0.09144
 66 Li    0.00657    0.00133    0.00884
 67 Li   -0.00135    0.00423   -0.05829
 68 Li   -0.00239    0.00021    0.00141
 69 Li    0.01166    0.00355   -0.01309
 70 Li    0.01083   -0.00024    0.00739
 71 Li   -0.00465   -0.00800   -0.01030
 72 Li   -0.03838   -0.00697    0.12951

System changes: positions 

Initializing position-dependent things.

Density initialized from wave functions
       .-----------------------------------.  
      /|                                   |  
     / |                                   |  
    /  |                                   |  
   /   |                                   |  
  /    |                                   |  
 *     |                                   |  
 |     |                                   |  
 |     |                                   |  
 |     |                                   |  
 |     |                                   |  
 |     |                                   |  
 |     |                                   |  
 |    Li                                   |  
 |     |          Li          Li           |  
 | Li  |   Li          Li          Li      |  
 |  Li LiLi Li  Li          Li   Li Li     |  
 |     |         Li  Li Li               Li|  
 |Li   Li Li  Li          Li LiLi Li       |  
 |     |           Li Li                   |  
 |    Li       Li Li       Li Li       Li  |  
 |     |Li Li       Li Li       Li Li      |  
 |  Li |     Li Li       Li Li             |  
 |     | Li Li       Li Li       Li Li     |  
 |Li Li|      Li Li       Li Li            |  
 |     Li Li       Li Li       Li Li       |  
 | Li  |       Li          Li              |  
 |     |Li          Li          Li         |  
 Li    |     Li          Li                |  
 |     |                                   |  
 |     |                                   |  
 |     |                                   |  
 |     |                                   |  
 |     |                                   |  
 |     .-----------------------------------.  
 |    /                                   /   
 |   /                                   /    
 |  /                                   /     
 | /                                   /      
 |/                                   /       
 *-----------------------------------*        

Atomic positions and initial magnetic moments

Positions:
   0 Li     0.000000    0.000000   10.000000    ( 0.0000,  0.0000,  0.0000)
   1 Li     2.467803    1.745000   10.000000    ( 0.0000,  0.0000,  0.0000)
   2 Li     2.467803    0.000000   12.467803    ( 0.0000,  0.0000,  0.0000)
   3 Li     0.000000    1.745000   12.467803    ( 0.0000,  0.0000,  0.0000)
   4 Li     0.004238   -0.078087   14.750877    ( 0.0000,  0.0000,  0.0000)
   5 Li     2.448373    1.760305   14.838822    ( 0.0000,  0.0000,  0.0000)
   6 Li     2.362941    0.121332   17.308545    ( 0.0000,  0.0000,  0.0000)
   7 Li     0.016420    1.724091   16.818502    ( 0.0000,  0.0000,  0.0000)
   8 Li     0.000000    3.490000   10.000000    ( 0.0000,  0.0000,  0.0000)
   9 Li     2.467803    5.235000   10.000000    ( 0.0000,  0.0000,  0.0000)
  10 Li     2.467803    3.490000   12.467803    ( 0.0000,  0.0000,  0.0000)
  11 Li     0.000000    5.235000   12.467803    ( 0.0000,  0.0000,  0.0000)
  12 Li    -0.003377    3.557383   14.768870    ( 0.0000,  0.0000,  0.0000)
  13 Li     2.481674    5.183270   14.971084    ( 0.0000,  0.0000,  0.0000)
  14 Li     2.359741    3.341430   17.410447    ( 0.0000,  0.0000,  0.0000)
  15 Li     0.013284    5.113745   17.312357    ( 0.0000,  0.0000,  0.0000)
  16 Li     0.000000    6.980000   10.000000    ( 0.0000,  0.0000,  0.0000)
  17 Li     2.467803    8.725000   10.000000    ( 0.0000,  0.0000,  0.0000)
  18 Li     2.467803    6.980000   12.467803    ( 0.0000,  0.0000,  0.0000)
  19 Li     0.000000    8.725000   12.467803    ( 0.0000,  0.0000,  0.0000)
  20 Li    -0.002757    6.990328   14.984839    ( 0.0000,  0.0000,  0.0000)
  21 Li     2.482192    8.761613   14.927589    ( 0.0000,  0.0000,  0.0000)
  22 Li     2.407079    7.003412   17.271904    ( 0.0000,  0.0000,  0.0000)
  23 Li     0.021448    8.873013   17.341575    ( 0.0000,  0.0000,  0.0000)
  24 Li     4.935605    0.000000   10.000000    ( 0.0000,  0.0000,  0.0000)
  25 Li     7.403408    1.745000   10.000000    ( 0.0000,  0.0000,  0.0000)
  26 Li     7.403408    0.000000   12.467803    ( 0.0000,  0.0000,  0.0000)
  27 Li     4.935605    1.745000   12.467803    ( 0.0000,  0.0000,  0.0000)
  28 Li     4.934889    0.010876   14.888818    ( 0.0000,  0.0000,  0.0000)
  29 Li     7.404150    1.742744   14.897217    ( 0.0000,  0.0000,  0.0000)
  30 Li     7.394078    0.007411   17.232730    ( 0.0000,  0.0000,  0.0000)
  31 Li     4.866212    1.721019   17.287116    ( 0.0000,  0.0000,  0.0000)
  32 Li     4.935605    3.490000   10.000000    ( 0.0000,  0.0000,  0.0000)
  33 Li     7.403408    5.235000   10.000000    ( 0.0000,  0.0000,  0.0000)
  34 Li     7.403408    3.490000   12.467803    ( 0.0000,  0.0000,  0.0000)
  35 Li     4.935605    5.235000   12.467803    ( 0.0000,  0.0000,  0.0000)
  36 Li     4.942684    3.468540   14.905514    ( 0.0000,  0.0000,  0.0000)
  37 Li     7.402210    5.231715   14.893478    ( 0.0000,  0.0000,  0.0000)
  38 Li     7.390298    3.475297   17.230545    ( 0.0000,  0.0000,  0.0000)
  39 Li     4.858374    5.198863   17.246560    ( 0.0000,  0.0000,  0.0000)
  40 Li     4.935605    6.980000   10.000000    ( 0.0000,  0.0000,  0.0000)
  41 Li     7.403408    8.725000   10.000000    ( 0.0000,  0.0000,  0.0000)
  42 Li     7.403408    6.980000   12.467803    ( 0.0000,  0.0000,  0.0000)
  43 Li     4.935605    8.725000   12.467803    ( 0.0000,  0.0000,  0.0000)
  44 Li     4.932073    6.990373   14.912619    ( 0.0000,  0.0000,  0.0000)
  45 Li     7.404327    8.730497   14.892293    ( 0.0000,  0.0000,  0.0000)
  46 Li     7.390264    6.987272   17.232606    ( 0.0000,  0.0000,  0.0000)
  47 Li     4.850088    8.785370   17.273207    ( 0.0000,  0.0000,  0.0000)
  48 Li     9.871211    0.000000   10.000000    ( 0.0000,  0.0000,  0.0000)
  49 Li    12.339013    1.745000   10.000000    ( 0.0000,  0.0000,  0.0000)
  50 Li    12.339013    0.000000   12.467803    ( 0.0000,  0.0000,  0.0000)
  51 Li     9.871211    1.745000   12.467803    ( 0.0000,  0.0000,  0.0000)
  52 Li     9.866998    0.011054   14.893914    ( 0.0000,  0.0000,  0.0000)
  53 Li    12.358559    1.743013   14.867461    ( 0.0000,  0.0000,  0.0000)
  54 Li    12.459581    0.123522   17.402216    ( 0.0000,  0.0000,  0.0000)
  55 Li     9.917814    1.743434   17.251914    ( 0.0000,  0.0000,  0.0000)
  56 Li     9.871211    3.490000   10.000000    ( 0.0000,  0.0000,  0.0000)
  57 Li    12.339013    5.235000   10.000000    ( 0.0000,  0.0000,  0.0000)
  58 Li    12.339013    3.490000   12.467803    ( 0.0000,  0.0000,  0.0000)
  59 Li     9.871211    5.235000   12.467803    ( 0.0000,  0.0000,  0.0000)
  60 Li     9.866840    3.478241   14.892932    ( 0.0000,  0.0000,  0.0000)
  61 Li    12.326475    5.183198   14.956997    ( 0.0000,  0.0000,  0.0000)
  62 Li    12.462157    3.357761   17.399332    ( 0.0000,  0.0000,  0.0000)
  63 Li     9.936171    5.198930   17.241051    ( 0.0000,  0.0000,  0.0000)
  64 Li     9.871211    6.980000   10.000000    ( 0.0000,  0.0000,  0.0000)
  65 Li    12.339013    8.725000   10.000000    ( 0.0000,  0.0000,  0.0000)
  66 Li    12.339013    6.980000   12.467803    ( 0.0000,  0.0000,  0.0000)
  67 Li     9.871211    8.725000   12.467803    ( 0.0000,  0.0000,  0.0000)
  68 Li     9.877478    6.980736   14.899394    ( 0.0000,  0.0000,  0.0000)
  69 Li    12.324265    8.779108   14.954910    ( 0.0000,  0.0000,  0.0000)
  70 Li    12.412699    6.987454   17.259221    ( 0.0000,  0.0000,  0.0000)
  71 Li     9.936056    8.762634   17.240676    ( 0.0000,  0.0000,  0.0000)
  72 Li     0.412605    1.449741   19.338452    ( 0.0000,  0.0000,  0.0000)

Unit cell:
           periodic     x           y           z      points  spacing
  1. axis:    yes   14.806816    0.000000    0.000000    49     0.3022
  2. axis:    yes    0.000000   10.470000    0.000000    35     0.2991
  3. axis:    no     0.000000    0.000000   27.403408    90     0.3045

  Lengths:  14.806816  10.470000  27.403408
  Angles:   90.000000  90.000000  90.000000

Effective grid spacing dv^(1/3) = 0.3019

     iter     time        total  log10-change:
                         energy   eigst   dens
iter:   1 04:12:32  -128.577860   -3.79
iter:   2 04:12:35  -128.573532   -4.04  -2.14
iter:   3 04:12:38  -128.572809c  -5.18  -2.37
iter:   4 04:12:41  -128.573350c  -4.89  -2.77
iter:   5 04:12:44  -128.573024c  -5.67c -3.08
iter:   6 04:12:47  -128.572927c  -6.06c -3.17
iter:   7 04:12:50  -128.573013c  -6.45c -3.55
iter:   8 04:12:53  -128.573045c  -6.83c -3.72
iter:   9 04:12:56  -128.572953c  -6.82c -3.79
iter:  10 04:13:00  -128.572981c  -7.35c -3.93
iter:  11 04:13:03  -128.573006c  -7.11c -4.09c

Converged after 11 iterations.

Dipole moment: (-6.220539, -3.412308, 0.361018) |e|*Ang

Energy contributions relative to reference atoms: (reference = -14803.510878)

Kinetic:       +114.137614
Potential:      -99.916295
External:        +0.000000
XC:            -141.616386
Entropy (-ST):   -1.391054
Local:           -0.482412
SIC:             +0.000000
--------------------------
Free energy:   -129.268533
Extrapolated:  -128.573006

Showing all kpts
 Kpt  Band  Eigenvalues  Occupancy
  0    34     -1.93857    1.52143
  0    35     -1.89090    1.32740
  0    36     -1.81734    0.97213
  0    37     -1.75747    0.68396

  1    34     -1.93797    1.51922
  1    35     -1.89089    1.32735
  1    36     -1.81737    0.97227
  1    37     -1.75738    0.68358


Fermi level: -1.82292

Gap: 0.074 eV
Transition (v -> c):
  (s=0, k=1, n=35, [0.25, 0.25, 0.00]) -> (s=0, k=1, n=36, [0.25, 0.25, 0.00])
No difference between direct/indirect transitions

Forces in eV/Ang:
  0 Li    0.00039    0.00097    0.10517
  1 Li   -0.00125   -0.00046    0.09658
  2 Li    0.00907   -0.01571   -0.08854
  3 Li   -0.00177    0.00359   -0.06447
  4 Li   -0.00217   -0.02921   -0.01755
  5 Li    0.02732   -0.00005    0.00591
  6 Li    0.02803   -0.04021   -0.02650
  7 Li   -0.03991    0.03683   -0.15464
  8 Li    0.00062   -0.00207    0.10497
  9 Li   -0.00020   -0.00422    0.09078
 10 Li    0.00821    0.02608   -0.09377
 11 Li    0.00161    0.05762   -0.11112
 12 Li   -0.00206    0.03004   -0.02410
 13 Li   -0.01188   -0.00037   -0.01732
 14 Li    0.00269    0.01565   -0.02883
 15 Li    0.01113   -0.01155   -0.01357
 16 Li   -0.00022    0.00122    0.08063
 17 Li   -0.00122    0.00464    0.09485
 18 Li   -0.00835   -0.00696   -0.00172
 19 Li   -0.00068   -0.06518   -0.13240
 20 Li    0.00311   -0.00079   -0.03489
 21 Li   -0.00722    0.00021   -0.01065
 22 Li   -0.01324   -0.00754   -0.00071
 23 Li   -0.00389    0.02187   -0.00895
 24 Li    0.00373    0.00054    0.08535
 25 Li    0.00178    0.00019    0.08901
 26 Li   -0.00048    0.00198   -0.06773
 27 Li    0.00017    0.00248   -0.07715
 28 Li    0.00069    0.00846    0.00385
 29 Li   -0.00013   -0.00222   -0.01793
 30 Li    0.00736   -0.00207   -0.01333
 31 Li    0.02577    0.01532   -0.01644
 32 Li    0.00390   -0.00096    0.08598
 33 Li    0.00174    0.00109    0.08951
 34 Li    0.00039   -0.00278   -0.06552
 35 Li    0.00098   -0.00449   -0.04267
 36 Li    0.00197   -0.00835   -0.01151
 37 Li    0.00094    0.00199   -0.01118
 38 Li    0.00168    0.00432   -0.00938
 39 Li    0.00129    0.00694   -0.00626
 40 Li    0.00721    0.00028    0.09346
 41 Li    0.00149   -0.00100    0.08781
 42 Li   -0.00003    0.00081   -0.06066
 43 Li    0.00286    0.00141   -0.06251
 44 Li   -0.00093   -0.00163    0.00470
 45 Li    0.00129   -0.00019   -0.01250
 46 Li    0.00157   -0.00238   -0.01100
 47 Li    0.01782   -0.02124   -0.02535
 48 Li   -0.00474    0.00006    0.08535
 49 Li    0.00063   -0.00047    0.09198
 50 Li   -0.00895   -0.01434   -0.08571
 51 Li    0.00224   -0.00069   -0.07145
 52 Li   -0.00397    0.00942   -0.01213
 53 Li   -0.02152   -0.00010    0.01436
 54 Li    0.01450   -0.02378   -0.00420
 55 Li   -0.02967   -0.00037   -0.02543
 56 Li   -0.00480    0.00007    0.08499
 57 Li   -0.00180   -0.00324    0.09205
 58 Li   -0.00904    0.01391   -0.08395
 59 Li   -0.00146   -0.00374   -0.05700
 60 Li   -0.00546   -0.00933   -0.01073
 61 Li    0.01185   -0.00118   -0.00292
 62 Li    0.00917    0.01459   -0.00611
 63 Li   -0.00309    0.00763   -0.01088
 64 Li   -0.00673   -0.00036    0.09333
 65 Li   -0.00049    0.00376    0.09130
 66 Li    0.00654    0.00127    0.00866
 67 Li   -0.00131    0.00419   -0.05842
 68 Li   -0.00177    0.00020    0.00088
 69 Li    0.01079    0.00314   -0.01209
 70 Li    0.01100   -0.00005    0.00708
 71 Li   -0.00395   -0.00758   -0.01013
 72 Li   -0.03926   -0.00581    0.10689

System changes: positions 

Initializing position-dependent things.

Density initialized from wave functions
       .-----------------------------------.  
      /|                                   |  
     / |                                   |  
    /  |                                   |  
   /   |                                   |  
  /    |                                   |  
 *     |                                   |  
 |     |                                   |  
 |     |                                   |  
 |     |                                   |  
 |     |                                   |  
 |     |                                   |  
 |     |                                   |  
 |    Li                                   |  
 |     |          Li          Li           |  
 | Li  |   Li          Li          Li      |  
 |  Li LiLi Li  Li          Li   Li Li     |  
 |     |         Li  Li Li               Li|  
 |Li   Li Li  Li          Li LiLi Li       |  
 |     |           Li Li                   |  
 |    Li       Li Li       Li Li       Li  |  
 |     |Li Li       Li Li       Li Li      |  
 |  Li |     Li Li       Li Li             |  
 |     | Li Li       Li Li       Li Li     |  
 |Li Li|      Li Li       Li Li            |  
 |     Li Li       Li Li       Li Li       |  
 | Li  |       Li          Li              |  
 |     |Li          Li          Li         |  
 Li    |     Li          Li                |  
 |     |                                   |  
 |     |                                   |  
 |     |                                   |  
 |     |                                   |  
 |     |                                   |  
 |     .-----------------------------------.  
 |    /                                   /   
 |   /                                   /    
 |  /                                   /     
 | /                                   /      
 |/                                   /       
 *-----------------------------------*        

Atomic positions and initial magnetic moments

Positions:
   0 Li     0.000000    0.000000   10.000000    ( 0.0000,  0.0000,  0.0000)
   1 Li     2.467803    1.745000   10.000000    ( 0.0000,  0.0000,  0.0000)
   2 Li     2.467803    0.000000   12.467803    ( 0.0000,  0.0000,  0.0000)
   3 Li     0.000000    1.745000   12.467803    ( 0.0000,  0.0000,  0.0000)
   4 Li     0.004118   -0.079468   14.750242    ( 0.0000,  0.0000,  0.0000)
   5 Li     2.449900    1.760401   14.839099    ( 0.0000,  0.0000,  0.0000)
   6 Li     2.364780    0.118793   17.306335    ( 0.0000,  0.0000,  0.0000)
   7 Li     0.013982    1.726176   16.809275    ( 0.0000,  0.0000,  0.0000)
   8 Li     0.000000    3.490000   10.000000    ( 0.0000,  0.0000,  0.0000)
   9 Li     2.467803    5.235000   10.000000    ( 0.0000,  0.0000,  0.0000)
  10 Li     2.467803    3.490000   12.467803    ( 0.0000,  0.0000,  0.0000)
  11 Li     0.000000    5.235000   12.467803    ( 0.0000,  0.0000,  0.0000)
  12 Li    -0.003524    3.558657   14.768072    ( 0.0000,  0.0000,  0.0000)
  13 Li     2.480981    5.183313   14.970166    ( 0.0000,  0.0000,  0.0000)
  14 Li     2.360058    3.342408   17.408790    ( 0.0000,  0.0000,  0.0000)
  15 Li     0.013969    5.113194   17.311628    ( 0.0000,  0.0000,  0.0000)
  16 Li     0.000000    6.980000   10.000000    ( 0.0000,  0.0000,  0.0000)
  17 Li     2.467803    8.725000   10.000000    ( 0.0000,  0.0000,  0.0000)
  18 Li     2.467803    6.980000   12.467803    ( 0.0000,  0.0000,  0.0000)
  19 Li     0.000000    8.725000   12.467803    ( 0.0000,  0.0000,  0.0000)
  20 Li    -0.002605    6.990321   14.982873    ( 0.0000,  0.0000,  0.0000)
  21 Li     2.481758    8.761526   14.926798    ( 0.0000,  0.0000,  0.0000)
  22 Li     2.406442    7.003119   17.271949    ( 0.0000,  0.0000,  0.0000)
  23 Li     0.021318    8.874269   17.341254    ( 0.0000,  0.0000,  0.0000)
  24 Li     4.935605    0.000000   10.000000    ( 0.0000,  0.0000,  0.0000)
  25 Li     7.403408    1.745000   10.000000    ( 0.0000,  0.0000,  0.0000)
  26 Li     7.403408    0.000000   12.467803    ( 0.0000,  0.0000,  0.0000)
  27 Li     4.935605    1.745000   12.467803    ( 0.0000,  0.0000,  0.0000)
  28 Li     4.934889    0.011355   14.889019    ( 0.0000,  0.0000,  0.0000)
  29 Li     7.404145    1.742607   14.896222    ( 0.0000,  0.0000,  0.0000)
  30 Li     7.394436    0.007308   17.232072    ( 0.0000,  0.0000,  0.0000)
  31 Li     4.867531    1.721704   17.286383    ( 0.0000,  0.0000,  0.0000)
  32 Li     4.935605    3.490000   10.000000    ( 0.0000,  0.0000,  0.0000)
  33 Li     7.403408    5.235000   10.000000    ( 0.0000,  0.0000,  0.0000)
  34 Li     7.403408    3.490000   12.467803    ( 0.0000,  0.0000,  0.0000)
  35 Li     4.935605    5.235000   12.467803    ( 0.0000,  0.0000,  0.0000)
  36 Li     4.942798    3.467974   14.904966    ( 0.0000,  0.0000,  0.0000)
  37 Li     7.402264    5.231829   14.892873    ( 0.0000,  0.0000,  0.0000)
  38 Li     7.390305    3.475467   17.230094    ( 0.0000,  0.0000,  0.0000)
  39 Li     4.858464    5.199297   17.246255    ( 0.0000,  0.0000,  0.0000)
  40 Li     4.935605    6.980000   10.000000    ( 0.0000,  0.0000,  0.0000)
  41 Li     7.403408    8.725000   10.000000    ( 0.0000,  0.0000,  0.0000)
  42 Li     7.403408    6.980000   12.467803    ( 0.0000,  0.0000,  0.0000)
  43 Li     4.935605    8.725000   12.467803    ( 0.0000,  0.0000,  0.0000)
  44 Li     4.932060    6.990363   14.913003    ( 0.0000,  0.0000,  0.0000)
  45 Li     7.404405    8.730498   14.891611    ( 0.0000,  0.0000,  0.0000)
  46 Li     7.390259    6.987196   17.232053    ( 0.0000,  0.0000,  0.0000)
  47 Li     4.850988    8.784349   17.272021    ( 0.0000,  0.0000,  0.0000)
  48 Li     9.871211    0.000000   10.000000    ( 0.0000,  0.0000,  0.0000)
  49 Li    12.339013    1.745000   10.000000    ( 0.0000,  0.0000,  0.0000)
  50 Li    12.339013    0.000000   12.467803    ( 0.0000,  0.0000,  0.0000)
  51 Li     9.871211    1.745000   12.467803    ( 0.0000,  0.0000,  0.0000)
  52 Li     9.866787    0.011608   14.893281    ( 0.0000,  0.0000,  0.0000)
  53 Li    12.357422    1.743003   14.868385    ( 0.0000,  0.0000,  0.0000)
  54 Li    12.460398    0.122005   17.401815    ( 0.0000,  0.0000,  0.0000)
  55 Li     9.916048    1.743409   17.250495    ( 0.0000,  0.0000,  0.0000)
  56 Li     9.871211    3.490000   10.000000    ( 0.0000,  0.0000,  0.0000)
  57 Li    12.339013    5.235000   10.000000    ( 0.0000,  0.0000,  0.0000)
  58 Li    12.339013    3.490000   12.467803    ( 0.0000,  0.0000,  0.0000)
  59 Li     9.871211    5.235000   12.467803    ( 0.0000,  0.0000,  0.0000)
  60 Li     9.866549    3.477686   14.892367    ( 0.0000,  0.0000,  0.0000)
  61 Li    12.327175    5.183202   14.956757    ( 0.0000,  0.0000,  0.0000)
  62 Li    12.462718    3.358669   17.398795    ( 0.0000,  0.0000,  0.0000)
  63 Li     9.935900    5.199400   17.240469    ( 0.0000,  0.0000,  0.0000)
  64 Li     9.871211    6.980000   10.000000    ( 0.0000,  0.0000,  0.0000)
  65 Li    12.339013    8.725000   10.000000    ( 0.0000,  0.0000,  0.0000)
  66 Li    12.339013    6.980000   12.467803    ( 0.0000,  0.0000,  0.0000)
  67 Li     9.871211    8.725000   12.467803    ( 0.0000,  0.0000,  0.0000)
  68 Li     9.877340    6.980752   14.899468    ( 0.0000,  0.0000,  0.0000)
  69 Li    12.324896    8.779250   14.954151    ( 0.0000,  0.0000,  0.0000)
  70 Li    12.413271    6.987483   17.259597    ( 0.0000,  0.0000,  0.0000)
  71 Li     9.935733    8.762182   17.240134    ( 0.0000,  0.0000,  0.0000)
  72 Li     0.413035    1.447659   19.345527    ( 0.0000,  0.0000,  0.0000)

Unit cell:
           periodic     x           y           z      points  spacing
  1. axis:    yes   14.806816    0.000000    0.000000    49     0.3022
  2. axis:    yes    0.000000   10.470000    0.000000    35     0.2991
  3. axis:    no     0.000000    0.000000   27.403408    90     0.3045

  Lengths:  14.806816  10.470000  27.403408
  Angles:   90.000000  90.000000  90.000000

Effective grid spacing dv^(1/3) = 0.3019

     iter     time        total  log10-change:
                         energy   eigst   dens
iter:   1 04:16:05  -128.585235   -3.55
iter:   2 04:16:08  -128.577550   -3.81  -2.02
iter:   3 04:16:11  -128.576034c  -4.91  -2.25
iter:   4 04:16:14  -128.576658c  -4.64  -2.65
iter:   5 04:16:17  -128.576244c  -5.50c -2.99
iter:   6 04:16:21  -128.576088c  -5.85c -3.10
iter:   7 04:16:24  -128.576213c  -6.22c -3.41
iter:   8 04:16:26  -128.576254c  -6.64c -3.64
iter:   9 04:16:29  -128.576132c  -6.70c -3.68
iter:  10 04:16:32  -128.576170c  -7.29c -3.80
iter:  11 04:16:35  -128.576206c  -7.03c -3.99
iter:  12 04:16:38  -128.576149c  -7.27c -3.97
iter:  13 04:16:42  -128.576191c  -7.47c -4.16c

Converged after 13 iterations.

Dipole moment: (-6.180011, -3.361619, 0.364805) |e|*Ang

Energy contributions relative to reference atoms: (reference = -14803.510878)

Kinetic:       +114.113412
Potential:      -99.900528
External:        +0.000000
XC:            -141.611024
Entropy (-ST):   -1.391021
Local:           -0.482540
SIC:             +0.000000
--------------------------
Free energy:   -129.271701
Extrapolated:  -128.576191

Showing all kpts
 Kpt  Band  Eigenvalues  Occupancy
  0    34     -1.93779    1.52096
  0    35     -1.89013    1.32692
  0    36     -1.81656    0.97150
  0    37     -1.75685    0.68414

  1    34     -1.93717    1.51871
  1    35     -1.89013    1.32690
  1    36     -1.81658    0.97163
  1    37     -1.75677    0.68378


Fermi level: -1.82226

Gap: 0.074 eV
Transition (v -> c):
  (s=0, k=1, n=35, [0.25, 0.25, 0.00]) -> (s=0, k=1, n=36, [0.25, 0.25, 0.00])
No difference between direct/indirect transitions

Forces in eV/Ang:
  0 Li    0.00043    0.00080    0.10524
  1 Li   -0.00127   -0.00045    0.09659
  2 Li    0.00901   -0.01557   -0.08852
  3 Li   -0.00177    0.00357   -0.06331
  4 Li   -0.00162   -0.02956   -0.02016
  5 Li    0.02569   -0.00023    0.00405
  6 Li    0.02391   -0.03502   -0.02457
  7 Li   -0.03164    0.03127   -0.12266
  8 Li    0.00066   -0.00195    0.10507
  9 Li   -0.00028   -0.00421    0.09076
 10 Li    0.00812    0.02592   -0.09390
 11 Li    0.00161    0.05797   -0.11252
 12 Li   -0.00168    0.03202   -0.02809
 13 Li   -0.01076   -0.00026   -0.01673
 14 Li    0.00189    0.01283   -0.02799
 15 Li    0.01043   -0.00980   -0.01432
 16 Li   -0.00021    0.00126    0.08044
 17 Li   -0.00135    0.00461    0.09488
 18 Li   -0.00837   -0.00701   -0.00219
 19 Li   -0.00068   -0.06548   -0.13388
 20 Li    0.00297   -0.00038   -0.03239
 21 Li   -0.00639   -0.00078   -0.01070
 22 Li   -0.01283   -0.00680   -0.00138
 23 Li   -0.00291    0.01974   -0.00980
 24 Li    0.00365    0.00053    0.08529
 25 Li    0.00177    0.00021    0.08903
 26 Li   -0.00058    0.00191   -0.06816
 27 Li    0.00032    0.00233   -0.07742
 28 Li    0.00098    0.00753    0.00311
 29 Li   -0.00026   -0.00201   -0.01706
 30 Li    0.00666   -0.00241   -0.01351
 31 Li    0.02481    0.01464   -0.01578
 32 Li    0.00383   -0.00092    0.08596
 33 Li    0.00176    0.00119    0.08956
 34 Li    0.00032   -0.00267   -0.06590
 35 Li    0.00097   -0.00436   -0.04250
 36 Li    0.00219   -0.00684   -0.01123
 37 Li    0.00069    0.00178   -0.01079
 38 Li    0.00164    0.00478   -0.00989
 39 Li    0.00116    0.00649   -0.00642
 40 Li    0.00723    0.00026    0.09346
 41 Li    0.00152   -0.00114    0.08785
 42 Li    0.00001    0.00078   -0.06105
 43 Li    0.00288    0.00142   -0.06208
 44 Li   -0.00111   -0.00191    0.00329
 45 Li    0.00113   -0.00017   -0.01207
 46 Li    0.00168   -0.00246   -0.01108
 47 Li    0.01755   -0.02090   -0.02448
 48 Li   -0.00469    0.00000    0.08529
 49 Li    0.00065   -0.00048    0.09196
 50 Li   -0.00889   -0.01405   -0.08560
 51 Li    0.00218   -0.00068   -0.07193
 52 Li   -0.00380    0.00799   -0.01210
 53 Li   -0.02158   -0.00022    0.01171
 54 Li    0.01214   -0.02132   -0.00415
 55 Li   -0.02660   -0.00041   -0.02430
 56 Li   -0.00479    0.00015    0.08497
 57 Li   -0.00172   -0.00319    0.09208
 58 Li   -0.00900    0.01369   -0.08365
 59 Li   -0.00144   -0.00362   -0.05693
 60 Li   -0.00528   -0.00787   -0.01074
 61 Li    0.01069   -0.00114   -0.00260
 62 Li    0.00670    0.01375   -0.00570
 63 Li   -0.00253    0.00713   -0.01089
 64 Li   -0.00678   -0.00037    0.09336
[...]
 11 Li    0.00162    0.05861   -0.11437
 12 Li   -0.00124    0.03390   -0.03194
 13 Li   -0.00941   -0.00024   -0.01580
 14 Li    0.00119    0.00970   -0.02682
 15 Li    0.00950   -0.00785   -0.01512
 16 Li   -0.00021    0.00128    0.08023
 17 Li   -0.00141    0.00462    0.09492
 18 Li   -0.00845   -0.00708   -0.00279
 19 Li   -0.00067   -0.06603   -0.13574
 20 Li    0.00278    0.00013   -0.02938
 21 Li   -0.00534   -0.00189   -0.01058
 22 Li   -0.01221   -0.00589   -0.00198
 23 Li   -0.00181    0.01725   -0.01059
 24 Li    0.00360    0.00056    0.08518
 25 Li    0.00177    0.00021    0.08893
 26 Li   -0.00063    0.00186   -0.06887
 27 Li    0.00050    0.00217   -0.07790
 28 Li    0.00111    0.00642    0.00247
 29 Li   -0.00028   -0.00175   -0.01576
 30 Li    0.00584   -0.00277   -0.01364
 31 Li    0.02356    0.01379   -0.01485
 32 Li    0.00377   -0.00094    0.08590
 33 Li    0.00177    0.00119    0.08955
 34 Li    0.00027   -0.00261   -0.06651
 35 Li    0.00091   -0.00419   -0.04243
 36 Li    0.00227   -0.00510   -0.01066
 37 Li    0.00047    0.00163   -0.01016
 38 Li    0.00163    0.00529   -0.01040
 39 Li    0.00081    0.00583   -0.00644
 40 Li    0.00727    0.00027    0.09343
 41 Li    0.00154   -0.00116    0.08784
 42 Li    0.00004    0.00076   -0.06159
 43 Li    0.00287    0.00142   -0.06170
 44 Li   -0.00133   -0.00220    0.00169
 45 Li    0.00100   -0.00027   -0.01135
 46 Li    0.00193   -0.00258   -0.01112
 47 Li    0.01691   -0.02034   -0.02331
 48 Li   -0.00466    0.00002    0.08518
 49 Li    0.00062   -0.00048    0.09184
 50 Li   -0.00887   -0.01376   -0.08560
 51 Li    0.00203   -0.00068   -0.07267
 52 Li   -0.00363    0.00629   -0.01188
 53 Li   -0.02131   -0.00032    0.00882
 54 Li    0.00933   -0.01841   -0.00388
 55 Li   -0.02290   -0.00046   -0.02283
 56 Li   -0.00476    0.00015    0.08489
 57 Li   -0.00167   -0.00321    0.09211
 58 Li   -0.00902    0.01349   -0.08344
 59 Li   -0.00139   -0.00350   -0.05695
 60 Li   -0.00509   -0.00616   -0.01056
 61 Li    0.00933   -0.00119   -0.00208
 62 Li    0.00388    0.01272   -0.00504
 63 Li   -0.00182    0.00654   -0.01076
 64 Li   -0.00682   -0.00037    0.09330
 65 Li   -0.00031    0.00370    0.09145
 66 Li    0.00668    0.00108    0.00831
 67 Li   -0.00119    0.00397   -0.05845
 68 Li   -0.00037    0.00013   -0.00082
 69 Li    0.00830    0.00197   -0.00989
 70 Li    0.01108    0.00037    0.00573
 71 Li   -0.00233   -0.00669   -0.01014
 72 Li   -0.04129   -0.00310    0.05379

System changes: positions 

Initializing position-dependent things.

Density initialized from wave functions
       .-----------------------------------.  
      /|                                   |  
     / |                                   |  
    /  |                                   |  
   /   |                                   |  
  /    |                                   |  
 *     |                                   |  
 |     |                                   |  
 |     |                                   |  
 |     |                                   |  
 |     |                                   |  
 |     |                                   |  
 |     |                                   |  
 |    Li                                   |  
 |     |          Li          Li           |  
 | Li  |   Li          Li          Li      |  
 |  Li LiLi Li  Li          Li   Li Li     |  
 |     |         Li  Li Li               Li|  
 |Li   Li Li  Li          Li LiLi Li       |  
 |     |           Li Li                   |  
 |    Li       Li Li       Li Li       Li  |  
 |     |Li Li       Li Li       Li Li      |  
 |  Li |     Li Li       Li Li             |  
 |     | Li Li       Li Li       Li Li     |  
 |Li Li|      Li Li       Li Li            |  
 |     Li Li       Li Li       Li Li       |  
 | Li  |       Li          Li              |  
 |     |Li          Li          Li         |  
 Li    |     Li          Li                |  
 |     |                                   |  
 |     |                                   |  
 |     |                                   |  
 |     |                                   |  
 |     |                                   |  
 |     .-----------------------------------.  
 |    /                                   /   
 |   /                                   /    
 |  /                                   /     
 | /                                   /      
 |/                                   /       
 *-----------------------------------*        

Atomic positions and initial magnetic moments

Positions:
   0 Li     0.000000    0.000000   10.000000    ( 0.0000,  0.0000,  0.0000)
   1 Li     2.467803    1.745000   10.000000    ( 0.0000,  0.0000,  0.0000)
   2 Li     2.467803    0.000000   12.467803    ( 0.0000,  0.0000,  0.0000)
   3 Li     0.000000    1.745000   12.467803    ( 0.0000,  0.0000,  0.0000)
   4 Li     0.003857   -0.083349   14.748124    ( 0.0000,  0.0000,  0.0000)
   5 Li     2.453868    1.760622   14.839648    ( 0.0000,  0.0000,  0.0000)
   6 Li     2.369263    0.112543   17.300684    ( 0.0000,  0.0000,  0.0000)
   7 Li     0.008350    1.731218   16.788098    ( 0.0000,  0.0000,  0.0000)
   8 Li     0.000000    3.490000   10.000000    ( 0.0000,  0.0000,  0.0000)
   9 Li     2.467803    5.235000   10.000000    ( 0.0000,  0.0000,  0.0000)
  10 Li     2.467803    3.490000   12.467803    ( 0.0000,  0.0000,  0.0000)
  11 Li     0.000000    5.235000   12.467803    ( 0.0000,  0.0000,  0.0000)
  12 Li    -0.003872    3.562476   14.765297    ( 0.0000,  0.0000,  0.0000)
  13 Li     2.479232    5.183423   14.967727    ( 0.0000,  0.0000,  0.0000)
  14 Li     2.360791    3.344705   17.404390    ( 0.0000,  0.0000,  0.0000)
  15 Li     0.015742    5.111883   17.309543    ( 0.0000,  0.0000,  0.0000)
  16 Li     0.000000    6.980000   10.000000    ( 0.0000,  0.0000,  0.0000)
  17 Li     2.467803    8.725000   10.000000    ( 0.0000,  0.0000,  0.0000)
  18 Li     2.467803    6.980000   12.467803    ( 0.0000,  0.0000,  0.0000)
  19 Li     0.000000    8.725000   12.467803    ( 0.0000,  0.0000,  0.0000)
  20 Li    -0.002199    6.990347   14.977812    ( 0.0000,  0.0000,  0.0000)
  21 Li     2.480683    8.761191   14.924687    ( 0.0000,  0.0000,  0.0000)
  22 Li     2.404727    7.002378   17.271981    ( 0.0000,  0.0000,  0.0000)
  23 Li     0.021061    8.877433   17.340241    ( 0.0000,  0.0000,  0.0000)
  24 Li     4.935605    0.000000   10.000000    ( 0.0000,  0.0000,  0.0000)
  25 Li     7.403408    1.745000   10.000000    ( 0.0000,  0.0000,  0.0000)
  26 Li     7.403408    0.000000   12.467803    ( 0.0000,  0.0000,  0.0000)
  27 Li     4.935605    1.745000   12.467803    ( 0.0000,  0.0000,  0.0000)
  28 Li     4.934919    0.012546   14.889500    ( 0.0000,  0.0000,  0.0000)
  29 Li     7.404126    1.742257   14.893623    ( 0.0000,  0.0000,  0.0000)
  30 Li     7.395349    0.006988   17.230234    ( 0.0000,  0.0000,  0.0000)
  31 Li     4.871033    1.723540   17.284440    ( 0.0000,  0.0000,  0.0000)
  32 Li     4.935605    3.490000   10.000000    ( 0.0000,  0.0000,  0.0000)
  33 Li     7.403408    5.235000   10.000000    ( 0.0000,  0.0000,  0.0000)
  34 Li     7.403408    3.490000   12.467803    ( 0.0000,  0.0000,  0.0000)
  35 Li     4.935605    5.235000   12.467803    ( 0.0000,  0.0000,  0.0000)
  36 Li     4.943120    3.466636   14.903493    ( 0.0000,  0.0000,  0.0000)
  37 Li     7.402384    5.232119   14.891277    ( 0.0000,  0.0000,  0.0000)
  38 Li     7.390346    3.476001   17.228790    ( 0.0000,  0.0000,  0.0000)
  39 Li     4.858678    5.200408   17.245402    ( 0.0000,  0.0000,  0.0000)
  40 Li     4.935605    6.980000   10.000000    ( 0.0000,  0.0000,  0.0000)
  41 Li     7.403408    8.725000   10.000000    ( 0.0000,  0.0000,  0.0000)
  42 Li     7.403408    6.980000   12.467803    ( 0.0000,  0.0000,  0.0000)
  43 Li     4.935605    8.725000   12.467803    ( 0.0000,  0.0000,  0.0000)
  44 Li     4.931990    6.990284   14.913858    ( 0.0000,  0.0000,  0.0000)
  45 Li     7.404603    8.730498   14.889810    ( 0.0000,  0.0000,  0.0000)
  46 Li     7.390286    6.986963   17.230519    ( 0.0000,  0.0000,  0.0000)
  47 Li     4.853427    8.781564   17.268836    ( 0.0000,  0.0000,  0.0000)
  48 Li     9.871211    0.000000   10.000000    ( 0.0000,  0.0000,  0.0000)
  49 Li    12.339013    1.745000   10.000000    ( 0.0000,  0.0000,  0.0000)
  50 Li    12.339013    0.000000   12.467803    ( 0.0000,  0.0000,  0.0000)
  51 Li     9.871211    1.745000   12.467803    ( 0.0000,  0.0000,  0.0000)
  52 Li     9.866229    0.012941   14.891556    ( 0.0000,  0.0000,  0.0000)
  53 Li    12.354306    1.742962   14.870567    ( 0.0000,  0.0000,  0.0000)
  54 Li    12.462338    0.118201   17.400788    ( 0.0000,  0.0000,  0.0000)
  55 Li     9.911626    1.743336   17.246762    ( 0.0000,  0.0000,  0.0000)
  56 Li     9.871211    3.490000   10.000000    ( 0.0000,  0.0000,  0.0000)
  57 Li    12.339013    5.235000   10.000000    ( 0.0000,  0.0000,  0.0000)
  58 Li    12.339013    3.490000   12.467803    ( 0.0000,  0.0000,  0.0000)
  59 Li     9.871211    5.235000   12.467803    ( 0.0000,  0.0000,  0.0000)
  60 Li     9.865774    3.476357   14.890826    ( 0.0000,  0.0000,  0.0000)
  61 Li    12.328938    5.183195   14.956168    ( 0.0000,  0.0000,  0.0000)
  62 Li    12.463928    3.361031   17.397431    ( 0.0000,  0.0000,  0.0000)
  63 Li     9.935256    5.200609   17.238878    ( 0.0000,  0.0000,  0.0000)
  64 Li     9.871211    6.980000   10.000000    ( 0.0000,  0.0000,  0.0000)
  65 Li    12.339013    8.725000   10.000000    ( 0.0000,  0.0000,  0.0000)
  66 Li    12.339013    6.980000   12.467803    ( 0.0000,  0.0000,  0.0000)
  67 Li     9.871211    8.725000   12.467803    ( 0.0000,  0.0000,  0.0000)
  68 Li     9.877054    6.980791   14.899571    ( 0.0000,  0.0000,  0.0000)
  69 Li    12.326475    8.779581   14.952219    ( 0.0000,  0.0000,  0.0000)
  70 Li    12.414851    6.987575   17.260553    ( 0.0000,  0.0000,  0.0000)
  71 Li     9.934964    8.761005   17.238645    ( 0.0000,  0.0000,  0.0000)
  72 Li     0.413490    1.442532   19.361521    ( 0.0000,  0.0000,  0.0000)

Unit cell:
           periodic     x           y           z      points  spacing
  1. axis:    yes   14.806816    0.000000    0.000000    49     0.3022
  2. axis:    yes    0.000000   10.470000    0.000000    35     0.2991
  3. axis:    no     0.000000    0.000000   27.403408    90     0.3045

  Lengths:  14.806816  10.470000  27.403408
  Angles:   90.000000  90.000000  90.000000

Effective grid spacing dv^(1/3) = 0.3019

     iter     time        total  log10-change:
                         energy   eigst   dens
iter:   1 04:24:08  -128.598474   -3.30
iter:   2 04:24:11  -128.584748   -3.57  -1.90
iter:   3 04:24:14  -128.581709c  -4.67  -2.13
iter:   4 04:24:17  -128.582360c  -4.41  -2.54
iter:   5 04:24:20  -128.581836c  -5.29  -2.89
iter:   6 04:24:23  -128.581602c  -5.63c -3.01
iter:   7 04:24:26  -128.581749c  -6.04c -3.30
iter:   8 04:24:29  -128.581814c  -6.41c -3.54
iter:   9 04:24:32  -128.581658c  -6.52c -3.58
iter:  10 04:24:35  -128.581711c  -7.11c -3.68
iter:  11 04:24:38  -128.581755c  -6.89c -3.89
iter:  12 04:24:42  -128.581681c  -7.16c -3.87
iter:  13 04:24:45  -128.581743c  -7.27c -4.04c

Converged after 13 iterations.

Dipole moment: (-6.092547, -3.226827, 0.372800) |e|*Ang

Energy contributions relative to reference atoms: (reference = -14803.510878)

Kinetic:       +114.077279
Potential:      -99.877075
External:        +0.000000
XC:            -141.603979
Entropy (-ST):   -1.390860
Local:           -0.482538
SIC:             +0.000000
--------------------------
Free energy:   -129.277173
Extrapolated:  -128.581743

Showing all kpts
 Kpt  Band  Eigenvalues  Occupancy
  0    34     -1.93605    1.51963
  0    35     -1.88847    1.32560
  0    36     -1.81486    0.96989
  0    37     -1.75571    0.68520

  1    34     -1.93540    1.51724
  1    35     -1.88849    1.32568
  1    36     -1.81488    0.96998
  1    37     -1.75564    0.68485


Fermi level: -1.82089

Gap: 0.074 eV
Transition (v -> c):
  (s=0, k=0, n=35, [0.25, -0.25, 0.00]) -> (s=0, k=1, n=36, [0.25, 0.25, 0.00])
Direct/indirect transitions are different
Direct gap: 0.074 eV
Transition at: (s=0, k=1, n=35, [0.25, 0.25, 0.00])

Forces in eV/Ang:
  0 Li    0.00045    0.00068    0.10530
  1 Li   -0.00121   -0.00043    0.09643
  2 Li    0.00895   -0.01533   -0.08863
  3 Li   -0.00180    0.00347   -0.06050
  4 Li   -0.00026   -0.02902   -0.02451
  5 Li    0.02097   -0.00059   -0.00012
  6 Li    0.01477   -0.02264   -0.01917
  7 Li   -0.01336    0.01850   -0.05365
  8 Li    0.00065   -0.00189    0.10524
  9 Li   -0.00033   -0.00427    0.09077
 10 Li    0.00805    0.02565   -0.09449
 11 Li    0.00164    0.05946   -0.11670
 12 Li   -0.00076    0.03522   -0.03534
 13 Li   -0.00780   -0.00014   -0.01469
 14 Li    0.00056    0.00629   -0.02540
 15 Li    0.00841   -0.00582   -0.01596
 16 Li   -0.00022    0.00131    0.08002
 17 Li   -0.00144    0.00464    0.09498
 18 Li   -0.00853   -0.00718   -0.00347
 19 Li   -0.00066   -0.06671   -0.13800
 20 Li    0.00254    0.00068   -0.02595
 21 Li   -0.00409   -0.00314   -0.01041
 22 Li   -0.01142   -0.00485   -0.00269
 23 Li   -0.00061    0.01454   -0.01143
 24 Li    0.00359    0.00062    0.08505
 25 Li    0.00178    0.00020    0.08879
 26 Li   -0.00068    0.00183   -0.06974
 27 Li    0.00072    0.00197   -0.07849
 28 Li    0.00126    0.00513    0.00173
 29 Li   -0.00028   -0.00146   -0.01425
 30 Li    0.00496   -0.00316   -0.01375
 31 Li    0.02199    0.01277   -0.01377
 32 Li    0.00376   -0.00098    0.08583
 33 Li    0.00179    0.00116    0.08949
 34 Li    0.00022   -0.00256   -0.06726
 35 Li    0.00083   -0.00399   -0.04239
 36 Li    0.00235   -0.00312   -0.00998
 37 Li    0.00023    0.00149   -0.00944
 38 Li    0.00168    0.00584   -0.01094
 39 Li    0.00037    0.00507   -0.00648
 40 Li    0.00735    0.00028    0.09338
 41 Li    0.00157   -0.00113    0.08780
 42 Li    0.00006    0.00074   -0.06223
 43 Li    0.00288    0.00143   -0.06129
 44 Li   -0.00157   -0.00254   -0.00014
 45 Li    0.00084   -0.00040   -0.01051
 46 Li    0.00226   -0.00272   -0.01114
 47 Li    0.01607   -0.01961   -0.02196
 48 Li   -0.00466    0.00007    0.08505
 49 Li    0.00054   -0.00049    0.09172
 50 Li   -0.00885   -0.01343   -0.08562
 51 Li    0.00184   -0.00068   -0.07357
 52 Li   -0.00346    0.00437   -0.01156
 53 Li   -0.02074   -0.00042    0.00572
 54 Li    0.00624   -0.01509   -0.00354
 55 Li   -0.01876   -0.00051   -0.02116
 56 Li   -0.00477    0.00010    0.08479
 57 Li   -0.00165   -0.00326    0.09215
 58 Li   -0.00904    0.01326   -0.08324
 59 Li   -0.00133   -0.00337   -0.05701
 60 Li   -0.00487   -0.00423   -0.01030
 61 Li    0.00772   -0.00116   -0.00151
 62 Li    0.00088    0.01148   -0.00425
 63 Li   -0.00102    0.00586   -0.01061
 64 Li   -0.00690   -0.00035    0.09321
 65 Li   -0.00027    0.00374    0.09155
 66 Li    0.00681    0.00095    0.00812
 67 Li   -0.00111    0.00387   -0.05857
 68 Li    0.00046    0.00008   -0.00179
 69 Li    0.00673    0.00124   -0.00846
 70 Li    0.01104    0.00065    0.00497
 71 Li   -0.00130   -0.00612   -0.01007
 72 Li   -0.04208   -0.00173    0.02557

Timing:                                      incl.     excl.
-------------------------------------------------------------------
Density initialized from wave functions:     3.747     3.747   0.0% |
 Symmetrize density:                         0.000     0.000   0.0% |
Forces:                                     23.192    23.192   0.3% |
Hamiltonian:                                 7.931     0.018   0.0% |
 Atomic:                                     3.803     0.014   0.0% |
  XC Correction:                             3.789     3.789   0.0% |
 Calculate atomic Hamiltonians:              2.974     2.974   0.0% |
 Communicate:                                0.000     0.000   0.0% |
 Initialize Hamiltonian:                     0.001     0.001   0.0% |
 Poisson:                                    0.028     0.028   0.0% |
 XC 3D grid:                                 1.108     1.108   0.0% |
LCAO initialization:                         9.310     0.006   0.0% |
 LCAO eigensolver:                           0.285     0.000   0.0% |
  Calculate projections:                     0.003     0.003   0.0% |
  DenseAtomicCorrection:                     0.033     0.033   0.0% |
  Distribute overlap matrix:                 0.000     0.000   0.0% |
  Orbital Layouts:                           0.056     0.056   0.0% |
  Potential matrix:                          0.190     0.190   0.0% |
  Sum over cells:                            0.002     0.002   0.0% |
 LCAO to grid:                               8.492     8.492   0.1% |
 Set positions (LCAO WFS):                   0.527     0.131   0.0% |
  Basic WFS set positions:                   0.001     0.001   0.0% |
  Basis functions set positions:             0.000     0.000   0.0% |
  P tci:                                     0.259     0.259   0.0% |
  ST tci:                                    0.120     0.120   0.0% |
  mktci:                                     0.016     0.016   0.0% |
PWDescriptor:                                0.005     0.005   0.0% |
Redistribute:                                0.015     0.015   0.0% |
SCF-cycle:                                 317.050     0.048   0.0% |
 Davidson:                                 175.148    36.459   0.5% |
  Apply H:                                  29.439    29.128   0.4% |
   HMM T:                                    0.311     0.311   0.0% |
  Subspace diag:                            33.492     0.033   0.0% |
   calc_h_matrix:                           30.682     2.121   0.0% |
    Apply H:                                28.561    28.254   0.4% |
     HMM T:                                  0.308     0.308   0.0% |
   diagonalize:                              0.114     0.114   0.0% |
   rotate_psi:                               2.663     2.663   0.0% |
  calc. matrices:                           69.332    10.258   0.1% |
   Apply H:                                 59.074    58.447   0.7% |
    HMM T:                                   0.628     0.628   0.0% |
  diagonalize:                               0.925     0.925   0.0% |
  rotate_psi:                                5.501     5.501   0.1% |
 Density:                                   44.884     0.001   0.0% |
  Atomic density matrices:                   0.186     0.186   0.0% |
  Mix:                                      30.401    30.401   0.4% |
  Multipole moments:                         0.040     0.040   0.0% |
  Pseudo density:                           14.256    14.255   0.2% |
   Symmetrize density:                       0.001     0.001   0.0% |
 Hamiltonian:                               96.049     0.159   0.0% |
  Atomic:                                   46.071     0.166   0.0% |
   XC Correction:                           45.905    45.905   0.6% |
  Calculate atomic Hamiltonians:            36.654    36.654   0.5% |
  Communicate:                               0.000     0.000   0.0% |
  Poisson:                                   0.101     0.101   0.0% |
  XC 3D grid:                               13.063    13.063   0.2% |
 Orthonormalize:                             0.920     0.002   0.0% |
  calc_s_matrix:                             0.103     0.103   0.0% |
  inverse-cholesky:                          0.004     0.004   0.0% |
  projections:                               0.658     0.658   0.0% |
  rotate_psi_s:                              0.153     0.153   0.0% |
Set symmetry:                                0.000     0.000   0.0% |
Other:                                    7653.859  7653.859  95.5% |-------------------------------------|
-------------------------------------------------------------------
Total:                                              8015.109 100.0%

Memory usage: 3.31 GiB
Date: Mon Nov 24 06:02:17 2025
