73
Lattice="17.94637010651458 0.0 0.0 0.0 12.690000000000001 0.0 0.0 0.0 28.97318505325729" Properties=species:S:1:pos:R:3:move_mask:L:1:tags:I:1:forces:R:3:magmoms:R:1 energy=-80.30564141864623 dipole="5.56054725560893e-13 -3.538858137702758 0.28189586848858494" magmom=0.0 free_energy=-80.9774346138242 pbc="T T F"
Na       0.00000000       0.00000000      10.00000000  F        4       0.00000000       0.00405934       0.02559823       0.00000000
Na       2.99106168       2.11500000      10.00000000  F        4      -0.00476078      -0.00000000       0.02460488       0.00000000
Na       2.99106168       0.00000000      12.99106168  F        3       0.00026838      -0.00899019      -0.02071647       0.00000000
Na       5.98212337       2.11500000      12.99106168  F        3      -0.00309812      -0.00000000      -0.01211736       0.00000000
Na       0.00000000      -0.12283861      15.74493859  T        2       0.00000000      -0.02661775       0.00180261       0.00000000
Na       2.94149282       2.11500000      15.90419777  T        2       0.03322828      -0.00000000       0.01104624       0.00000000
Na       2.87295159       0.13560196      19.04857588  T        1       0.01326947      -0.00843670      -0.00950501       0.00000000
Na       0.00000000       2.11500000      18.20239207  T        1       0.00000000      -0.00000000      -0.03304695       0.00000000
Na       0.00000000       4.23000000      10.00000000  F        4       0.00000000      -0.00405934       0.02559823       0.00000000
Na       2.99106168       6.34500000      10.00000000  F        4      -0.00241534      -0.00480120       0.02797126       0.00000000
Na       2.99106168       4.23000000      12.99106168  F        3       0.00026838       0.00899019      -0.02071647       0.00000000
Na       5.98212337       6.34500000      12.99106168  F        3       0.00200437      -0.00065773      -0.01212709       0.00000000
Na      -0.00000000       4.35283861      15.74493859  T        2       0.00000000       0.02661775       0.00180261       0.00000000
Na       3.03435163       6.32088661      16.00442184  T        2      -0.02023238      -0.01506293      -0.00592388       0.00000000
Na       2.87295159       4.09439804      19.04857588  T        1       0.01326947       0.00843670      -0.00950501       0.00000000
Na      -0.00000000       6.24208363      18.90736837  T        1       0.00000000      -0.00477465      -0.00823161       0.00000000
Na       0.00000000       8.46000000      10.00000000  F        4       0.00000000       0.00000000       0.03006952       0.00000000
Na       2.99106168      10.57500000      10.00000000  F        4      -0.00241534       0.00480120       0.02797126       0.00000000
Na       2.99106168       8.46000000      12.99106168  F        3      -0.00286693       0.00000000       0.01841441       0.00000000
Na       5.98212337      10.57500000      12.99106168  F        3       0.00200437       0.00065773      -0.01212709       0.00000000
Na       0.00000000       8.46000000      16.00032603  T        2       0.00000000       0.00000000      -0.01655938       0.00000000
Na       3.03435163      10.59911339      16.00442184  T        2      -0.02023238       0.01506293      -0.00592388       0.00000000
Na       2.95267896       8.46000000      18.86544129  T        1      -0.00764919       0.00000000       0.01196909       0.00000000
Na       0.00000000      10.67791637      18.90736837  T        1       0.00000000       0.00477465      -0.00823161       0.00000000
Na       5.98212337       0.00000000      10.00000000  F        4      -0.00086831       0.00170028       0.02868952       0.00000000
Na       8.97318505       2.11500000      10.00000000  F        4       0.00000000      -0.00000000       0.02848259       0.00000000
Na       8.97318505       0.00000000      12.99106168  F        3       0.00000000      -0.00031389      -0.01526134       0.00000000
Na      11.96424674       2.11500000      12.99106168  F        3       0.00309812      -0.00000000      -0.01211736       0.00000000
Na       5.98744706      -0.00082320      15.94450550  T        2      -0.00109876       0.01629594      -0.01167422       0.00000000
Na       8.97318505       2.11500000      15.93959830  T        2       0.00000000       0.00000000      -0.00382609       0.00000000
Na       8.97318505      -0.00211570      18.86510874  T        1       0.00000000      -0.00058940      -0.00569528       0.00000000
Na       5.95674922       2.11500000      18.86844864  T        1       0.00573369       0.00000000      -0.00544795       0.00000000
Na       5.98212337       4.23000000      10.00000000  F        4      -0.00086831      -0.00170028       0.02868952       0.00000000
Na       8.97318505       6.34500000      10.00000000  F        4       0.00000000       0.00044168       0.02841320       0.00000000
Na       8.97318505       4.23000000      12.99106168  F        3       0.00000000       0.00031389      -0.01526134       0.00000000
Na      11.96424674       6.34500000      12.99106168  F        3      -0.00200437      -0.00065773      -0.01212709       0.00000000
Na       5.98744706       4.23082320      15.94450550  T        2      -0.00109876      -0.01629594      -0.01167422       0.00000000
Na       8.97318505       6.34543697      15.93837458  T        2       0.00000000       0.00105119      -0.00313662       0.00000000
Na       8.97318505       4.23211570      18.86510874  T        1       0.00000000       0.00058940      -0.00569528       0.00000000
Na       5.93274643       6.31225085      18.86397947  T        1      -0.00343780       0.00005087      -0.00260099       0.00000000
Na       5.98212337       8.46000000      10.00000000  F        4       0.00256806       0.00000000       0.03208542       0.00000000
Na       8.97318505      10.57500000      10.00000000  F        4       0.00000000      -0.00044168       0.02841320       0.00000000
Na       8.97318505       8.46000000      12.99106168  F        3       0.00000000       0.00000000      -0.01584107       0.00000000
Na      11.96424674      10.57500000      12.99106168  F        3      -0.00200437       0.00065773      -0.01212709       0.00000000
Na       5.97896166       8.46000000      15.93831103  T        2       0.00991317      -0.00000000       0.00189404       0.00000000
Na       8.97318505      10.57456303      15.93837458  T        2       0.00000000      -0.00105119      -0.00313662       0.00000000
Na       8.97318505       8.46000000      18.87195775  T        1       0.00000000      -0.00000000      -0.00665179       0.00000000
Na       5.93274643      10.60774915      18.86397947  T        1      -0.00343780      -0.00005087      -0.00260099       0.00000000
Na      11.96424674       0.00000000      10.00000000  F        4       0.00086831       0.00170028       0.02868952       0.00000000
Na      14.95530842       2.11500000      10.00000000  F        4       0.00476078      -0.00000000       0.02460488       0.00000000
Na      14.95530842       0.00000000      12.99106168  F        3      -0.00026838      -0.00899019      -0.02071647       0.00000000
Na      17.94637011       2.11500000      12.99106168  F        3       0.00000000      -0.00000000      -0.03976821       0.00000000
Na      11.95892304      -0.00082320      15.94450550  T        2       0.00109876       0.01629594      -0.01167422       0.00000000
Na      15.00487728       2.11500000      15.90419777  T        2      -0.03322828      -0.00000000       0.01104624       0.00000000
Na      15.07341851       0.13560196      19.04857588  T        1      -0.01326947      -0.00843670      -0.00950501       0.00000000
Na      11.98962089       2.11500000      18.86844864  T        1      -0.00573369       0.00000000      -0.00544795       0.00000000
Na      11.96424674       4.23000000      10.00000000  F        4       0.00086831      -0.00170028       0.02868952       0.00000000
Na      14.95530842       6.34500000      10.00000000  F        4       0.00241534      -0.00480120       0.02797126       0.00000000
Na      14.95530842       4.23000000      12.99106168  F        3      -0.00026838       0.00899019      -0.02071647       0.00000000
Na      17.94637011       6.34500000      12.99106168  F        3       0.00000000       0.04377267      -0.06581795       0.00000000
Na      11.95892304       4.23082320      15.94450550  T        2       0.00109876      -0.01629594      -0.01167422       0.00000000
Na      14.91201848       6.32088661      16.00442184  T        2       0.02023238      -0.01506293      -0.00592388       0.00000000
Na      15.07341851       4.09439804      19.04857588  T        1      -0.01326947       0.00843670      -0.00950501       0.00000000
Na      12.01362368       6.31225085      18.86397947  T        1       0.00343780       0.00005087      -0.00260099       0.00000000
Na      11.96424674       8.46000000      10.00000000  F        4      -0.00256806       0.00000000       0.03208542       0.00000000
Na      14.95530842      10.57500000      10.00000000  F        4       0.00241534       0.00480120       0.02797126       0.00000000
Na      14.95530842       8.46000000      12.99106168  F        3       0.00286693       0.00000000       0.01841441       0.00000000
Na      17.94637011      10.57500000      12.99106168  F        3       0.00000000      -0.04377267      -0.06581795       0.00000000
Na      11.96740845       8.46000000      15.93831103  T        2      -0.00991317      -0.00000000       0.00189404       0.00000000
Na      14.91201848      10.59911339      16.00442184  T        2       0.02023238       0.01506293      -0.00592388       0.00000000
Na      14.99369115       8.46000000      18.86544129  T        1       0.00764919       0.00000000       0.01196909       0.00000000
Na      12.01362368      10.60774915      18.86397947  T        1       0.00343780      -0.00005087      -0.00260099       0.00000000
Na      -0.00000000       2.11500000      21.33993429  T        0       0.00000000      -0.00000000       0.00592933       0.00000000
