
  ___ ___ ___ _ _ _  
 |   |   |_  | | | | 
 | | | | | . | | | | 
 |__ |  _|___|_____|  25.7.0
 |___|_|             

User:   tew@Mathuss-MacBook-Air-357.local
Date:   Mon Nov 24 05:13:11 2025
Arch:   arm64
Pid:    82977
CWD:    /Users/tew/Documents/Project/GitHub/chem-com
Python: 3.13.5
gpaw:   /Users/tew/Documents/Project/GitHub/chem-com/.venv/lib/python3.13/site-packages/gpaw
_gpaw:  /Users/tew/Documents/Project/GitHub/chem-com/.venv/lib/python3.13/site-packages/
        _gpaw.cpython-313-darwin.so
ase:    /Users/tew/Documents/Project/GitHub/chem-com/.venv/lib/python3.13/site-packages/ase (version 3.26.0)
numpy:  /Users/tew/Documents/Project/GitHub/chem-com/.venv/lib/python3.13/site-packages/numpy (version 2.3.5)
scipy:  /Users/tew/Documents/Project/GitHub/chem-com/.venv/lib/python3.13/site-packages/scipy (version 1.16.3)
libxc:  2.x.y
units:  Angstrom and eV
cores: 1
OpenMP: False
OMP_NUM_THREADS: 1

Input parameters:
  convergence: {density: 0.0001,
                eigenstates: 5e-06}
  kpts: [2 2 1]
  mode: {ecut: 200.0,
         name: pw}
  xc: PBE

System changes: positions, numbers, cell, pbc, initial_charges, initial_magmoms 

Initialize ...

species:
  Na:
    name: Sodium
    id: d7ecbc49209718622bcbe287195dca2a
    Z: 11.0
    valence: 7
    core: 4
    charge: 0.0
    file: /Users/tew/Documents/Project/GitHub/chem-com/.venv/lib/python3.13/site-packages/gpaw_data/setups/Na.PBE.gz
    compensation charges: {type: gauss,
                           rc: 0.37,
                           lmax: 2}
    cutoffs: {filter: 2.17,
              core: 2.59}
    projectors:
      #              energy  rcut
      - 3s(1.00)    -2.744   1.201
      - 2p(6.00)   -28.672   1.217
      - 3p(0.00)    -0.743   1.217
      -  s          24.468   1.201
      -  d           0.000   1.238
  
    # Using partial waves for Na as LCAO basis

Reference energy: -322558.566329  # eV

Spin-paired calculation

Convergence criteria:
 Maximum [total energy] change in last 3 cyles: 0.0005 eV / valence electron
 Maximum integral of absolute [dens]ity change: 0.0001 electrons / valence electron
 Maximum integral of absolute [eigenst]ate change: 5e-06 eV^2 / valence electron
 Maximum number of scf [iter]ations: 333
 (Square brackets indicate name in SCF output, whereas a 'c' in
 the SCF output indicates the quantity has converged.)

Symmetries present (total): 2

  ( 1  0  0)  (-1  0  0)
  ( 0  1  0)  ( 0  1  0)
  ( 0  0  1)  ( 0  0  1)

4 k-points: 2 x 2 x 1 Monkhorst-Pack grid
1 k-point in the irreducible part of the Brillouin zone
       k-points in crystal coordinates                weights
   0:     0.25000000    0.25000000    0.00000000          4/4

Wave functions: Plane wave expansion
  Cutoff energy: 200.000 eV
  Number of coefficients (min, max): 42398, 42398
  Pulay-stress correction: 0.000000 eV/Ang^3 (de/decut=0.000000)
  Using Numpy's FFT
  ScaLapack parameters: grid=1x1, blocksize=None
  Wavefunction extrapolation:
    Improved wavefunction reuse through dual PAW basis 

Occupation numbers: Fermi-Dirac:
  width: 0.1000  # eV
 

Eigensolver
   Davidson(niter=2) 

Densities:
  Coarse grid: 60*42*96 grid
  Fine grid: 120*84*192 grid
  Total Charge: 0.000000 

Density mixing:
  Method: separate
  Backend: pulay
  Linear mixing parameter: 0.05
  old densities: 5
  Damping of long wavelength oscillations: 50 

Hamiltonian:
  XC and Coulomb potentials evaluated on a 120*84*192 grid
  Using the PBE Exchange-Correlation functional
  External potential:
    NoExternalPotential
 

XC parameters: PBE with 2 nearest neighbor stencil

Memory estimate:
  Process memory now: 3387.00 MiB
  Calculator: 582.86 MiB
    Density: 111.27 MiB
      Arrays: 47.99 MiB
      Localized functions: 44.82 MiB
      Mixer: 18.46 MiB
    Hamiltonian: 32.29 MiB
      Arrays: 31.38 MiB
      XC: 0.00 MiB
      Poisson: 0.00 MiB
      vbar: 0.91 MiB
    Wavefunctions: 439.31 MiB
      Arrays psit_nG: 201.20 MiB
      Eigensolver: 219.20 MiB
      Projections: 4.50 MiB
      Projectors: 4.53 MiB
      PW-descriptor: 9.88 MiB

Total number of cores used: 1

Number of atoms: 73
Number of atomic orbitals: 511
Number of bands in calculation: 311
Number of valence electrons: 511
Bands to converge: occupied

... initialized

Initializing position-dependent things.

Density initialized from atomic densities
Creating initial wave functions:
  311 bands from LCAO basis set

         .-------------------------------------------.  
        /|                                           |  
       / |                                           |  
      /  |                                           |  
     /   |                                           |  
    /    |                                           |  
   /     |                                           |  
  /      |                                           |  
 *       |                                           |  
 |       |                                           |  
 |       |                                           |  
 |       |                                           |  
 |       |                                           |  
 |       |                                           |  
 |      Na            Na             Na              |  
 |       |    Na            Na             Na        |  
 |   Na  |          Na            Na                 |  
 |Na     |     Na             Na            Na       |  
 |       | Na             Na            Na           |  
 |Na  Na |       Na  Na         Na  Na               |  
 |      Na  Na         Na  Na         Na  Na         |  
 |  Na  Na        Na  Na         Na  Na              |  
 |       |                                           |  
 |       |Na  Na        Na  Na         Na  Na        |  
 Na  Na  |      Na  Na        Na  Na                 |  
 |       | Na  Na         Na  Na        Na  Na       |  
 |    Na |           Na             Na               |  
 |Na     |       Na             Na                   |  
 |      Na  Na         Na  Na         Na  Na         |  
 |  Na   |        Na             Na                  |  
 |       |Na            Na             Na            |  
 |       |                                           |  
 Na      |      Na            Na                     |  
 |       |                                           |  
 |       |                                           |  
 |       |                                           |  
 |       .-------------------------------------------.  
 |      /                                           /   
 |     /                                           /    
 |    /                                           /     
 |   /                                           /      
 |  /                                           /       
 | /                                           /        
 |/                                           /         
 *-------------------------------------------*          

Atomic positions and initial magnetic moments

Positions:
   0 Na     0.000000    0.000000   10.000000    ( 0.0000,  0.0000,  0.0000)
   1 Na     2.991062    2.115000   10.000000    ( 0.0000,  0.0000,  0.0000)
   2 Na     2.991062    0.000000   12.991062    ( 0.0000,  0.0000,  0.0000)
   3 Na     5.982123    2.115000   12.991062    ( 0.0000,  0.0000,  0.0000)
   4 Na     0.000000    0.000000   15.982123    ( 0.0000,  0.0000,  0.0000)
   5 Na     2.991062    2.115000   15.982123    ( 0.0000,  0.0000,  0.0000)
   6 Na     2.991062    0.000000   18.973185    ( 0.0000,  0.0000,  0.0000)
   7 Na     0.000000    2.115000   18.973185    ( 0.0000,  0.0000,  0.0000)
   8 Na     0.000000    4.230000   10.000000    ( 0.0000,  0.0000,  0.0000)
   9 Na     2.991062    6.345000   10.000000    ( 0.0000,  0.0000,  0.0000)
  10 Na     2.991062    4.230000   12.991062    ( 0.0000,  0.0000,  0.0000)
  11 Na     5.982123    6.345000   12.991062    ( 0.0000,  0.0000,  0.0000)
  12 Na     0.000000    4.230000   15.982123    ( 0.0000,  0.0000,  0.0000)
  13 Na     2.991062    6.345000   15.982123    ( 0.0000,  0.0000,  0.0000)
  14 Na     2.991062    4.230000   18.973185    ( 0.0000,  0.0000,  0.0000)
  15 Na     0.000000    6.345000   18.973185    ( 0.0000,  0.0000,  0.0000)
  16 Na     0.000000    8.460000   10.000000    ( 0.0000,  0.0000,  0.0000)
  17 Na     2.991062   10.575000   10.000000    ( 0.0000,  0.0000,  0.0000)
  18 Na     2.991062    8.460000   12.991062    ( 0.0000,  0.0000,  0.0000)
  19 Na     5.982123   10.575000   12.991062    ( 0.0000,  0.0000,  0.0000)
  20 Na     0.000000    8.460000   15.982123    ( 0.0000,  0.0000,  0.0000)
  21 Na     2.991062   10.575000   15.982123    ( 0.0000,  0.0000,  0.0000)
  22 Na     2.991062    8.460000   18.973185    ( 0.0000,  0.0000,  0.0000)
  23 Na     0.000000   10.575000   18.973185    ( 0.0000,  0.0000,  0.0000)
  24 Na     5.982123    0.000000   10.000000    ( 0.0000,  0.0000,  0.0000)
  25 Na     8.973185    2.115000   10.000000    ( 0.0000,  0.0000,  0.0000)
  26 Na     8.973185    0.000000   12.991062    ( 0.0000,  0.0000,  0.0000)
  27 Na    11.964247    2.115000   12.991062    ( 0.0000,  0.0000,  0.0000)
  28 Na     5.982123    0.000000   15.982123    ( 0.0000,  0.0000,  0.0000)
  29 Na     8.973185    2.115000   15.982123    ( 0.0000,  0.0000,  0.0000)
  30 Na     8.973185    0.000000   18.973185    ( 0.0000,  0.0000,  0.0000)
  31 Na     5.982123    2.115000   18.973185    ( 0.0000,  0.0000,  0.0000)
  32 Na     5.982123    4.230000   10.000000    ( 0.0000,  0.0000,  0.0000)
  33 Na     8.973185    6.345000   10.000000    ( 0.0000,  0.0000,  0.0000)
  34 Na     8.973185    4.230000   12.991062    ( 0.0000,  0.0000,  0.0000)
  35 Na    11.964247    6.345000   12.991062    ( 0.0000,  0.0000,  0.0000)
  36 Na     5.982123    4.230000   15.982123    ( 0.0000,  0.0000,  0.0000)
  37 Na     8.973185    6.345000   15.982123    ( 0.0000,  0.0000,  0.0000)
  38 Na     8.973185    4.230000   18.973185    ( 0.0000,  0.0000,  0.0000)
  39 Na     5.982123    6.345000   18.973185    ( 0.0000,  0.0000,  0.0000)
  40 Na     5.982123    8.460000   10.000000    ( 0.0000,  0.0000,  0.0000)
  41 Na     8.973185   10.575000   10.000000    ( 0.0000,  0.0000,  0.0000)
  42 Na     8.973185    8.460000   12.991062    ( 0.0000,  0.0000,  0.0000)
  43 Na    11.964247   10.575000   12.991062    ( 0.0000,  0.0000,  0.0000)
  44 Na     5.982123    8.460000   15.982123    ( 0.0000,  0.0000,  0.0000)
  45 Na     8.973185   10.575000   15.982123    ( 0.0000,  0.0000,  0.0000)
  46 Na     8.973185    8.460000   18.973185    ( 0.0000,  0.0000,  0.0000)
  47 Na     5.982123   10.575000   18.973185    ( 0.0000,  0.0000,  0.0000)
  48 Na    11.964247    0.000000   10.000000    ( 0.0000,  0.0000,  0.0000)
  49 Na    14.955308    2.115000   10.000000    ( 0.0000,  0.0000,  0.0000)
  50 Na    14.955308    0.000000   12.991062    ( 0.0000,  0.0000,  0.0000)
  51 Na    17.946370    2.115000   12.991062    ( 0.0000,  0.0000,  0.0000)
  52 Na    11.964247    0.000000   15.982123    ( 0.0000,  0.0000,  0.0000)
  53 Na    14.955308    2.115000   15.982123    ( 0.0000,  0.0000,  0.0000)
  54 Na    14.955308    0.000000   18.973185    ( 0.0000,  0.0000,  0.0000)
  55 Na    11.964247    2.115000   18.973185    ( 0.0000,  0.0000,  0.0000)
  56 Na    11.964247    4.230000   10.000000    ( 0.0000,  0.0000,  0.0000)
  57 Na    14.955308    6.345000   10.000000    ( 0.0000,  0.0000,  0.0000)
  58 Na    14.955308    4.230000   12.991062    ( 0.0000,  0.0000,  0.0000)
  59 Na    17.946370    6.345000   12.991062    ( 0.0000,  0.0000,  0.0000)
  60 Na    11.964247    4.230000   15.982123    ( 0.0000,  0.0000,  0.0000)
  61 Na    14.955308    6.345000   15.982123    ( 0.0000,  0.0000,  0.0000)
  62 Na    14.955308    4.230000   18.973185    ( 0.0000,  0.0000,  0.0000)
  63 Na    11.964247    6.345000   18.973185    ( 0.0000,  0.0000,  0.0000)
  64 Na    11.964247    8.460000   10.000000    ( 0.0000,  0.0000,  0.0000)
  65 Na    14.955308   10.575000   10.000000    ( 0.0000,  0.0000,  0.0000)
  66 Na    14.955308    8.460000   12.991062    ( 0.0000,  0.0000,  0.0000)
  67 Na    17.946370   10.575000   12.991062    ( 0.0000,  0.0000,  0.0000)
  68 Na    11.964247    8.460000   15.982123    ( 0.0000,  0.0000,  0.0000)
  69 Na    14.955308   10.575000   15.982123    ( 0.0000,  0.0000,  0.0000)
  70 Na    14.955308    8.460000   18.973185    ( 0.0000,  0.0000,  0.0000)
  71 Na    11.964247   10.575000   18.973185    ( 0.0000,  0.0000,  0.0000)
  72 Na     0.000000    2.115000   20.973185    ( 0.0000,  0.0000,  0.0000)

Unit cell:
           periodic     x           y           z      points  spacing
  1. axis:    yes   17.946370    0.000000    0.000000    60     0.2991
  2. axis:    yes    0.000000   12.690000    0.000000    42     0.3021
  3. axis:    no     0.000000    0.000000   28.973185    96     0.3018

  Lengths:  17.946370  12.690000  28.973185
  Angles:   90.000000  90.000000  90.000000

Effective grid spacing dv^(1/3) = 0.3010

     iter     time        total  log10-change:
                         energy   eigst   dens
iter:   1 05:14:41   -80.159563
iter:   2 05:14:54   -79.652444   -2.30  -1.52
iter:   3 05:15:07   -79.332143   -2.78  -1.60
iter:   4 05:15:21   -79.099777   -2.85  -1.71
iter:   5 05:15:34   -79.183266c  -3.08  -2.03
iter:   6 05:15:47   -79.096624c  -3.72  -2.14
iter:   7 05:16:01   -79.067388c  -3.98  -2.40
iter:   8 05:16:15   -79.061977c  -4.36  -2.80
iter:   9 05:16:29   -79.056483c  -4.58  -2.94
iter:  10 05:16:43   -79.054046c  -4.83  -3.16
iter:  11 05:16:57   -79.052442c  -5.06  -3.22
iter:  12 05:17:11   -79.050322c  -5.00  -3.29
iter:  13 05:17:25   -79.049895c  -5.25  -3.48
iter:  14 05:17:38   -79.049844c  -5.61c -3.67
iter:  15 05:17:52   -79.049769c  -5.89c -3.76
iter:  16 05:18:06   -79.049695c  -6.08c -3.88
iter:  17 05:18:20   -79.049782c  -6.27c -4.05c

Converged after 17 iterations.

Dipole moment: (-0.000000, -0.513314, 0.121052) |e|*Ang

Energy contributions relative to reference atoms: (reference = -322558.566329)

Kinetic:       +160.311647
Potential:     -143.335831
External:        +0.000000
XC:             -98.636520
Entropy (-ST):   -1.363218
Local:           +3.292531
SIC:             +0.000000
--------------------------
Free energy:    -79.731391
Extrapolated:   -79.049782

 Band  Eigenvalues  Occupancy
    0    -28.44887    2.00000
    1    -27.83293    2.00000
    2    -27.83267    2.00000
    3    -27.19278    2.00000
    4    -27.19098    2.00000
    5    -27.02402    2.00000
    6    -26.59113    2.00000
    7    -26.59101    2.00000
    8    -26.58889    2.00000
    9    -26.58882    2.00000
   10    -26.58842    2.00000
   11    -26.58725    2.00000
   12    -26.58712    2.00000
   13    -26.58622    2.00000
   14    -26.58602    2.00000
   15    -26.58540    2.00000
   16    -26.58528    2.00000
   17    -26.58519    2.00000
   18    -26.58490    2.00000
   19    -26.58464    2.00000
   20    -26.58463    2.00000
   21    -26.58429    2.00000
   22    -26.58351    2.00000
   23    -26.58349    2.00000
   24    -26.58337    2.00000
   25    -26.58307    2.00000
   26    -26.58299    2.00000
   27    -26.58293    2.00000
   28    -26.58289    2.00000
   29    -26.58271    2.00000
   30    -26.58270    2.00000
   31    -26.58262    2.00000
   32    -26.58243    2.00000
   33    -26.58235    2.00000
   34    -26.58227    2.00000
   35    -26.58223    2.00000
   36    -26.58172    2.00000
   37    -26.58108    2.00000
   38    -26.58041    2.00000
   39    -26.58020    2.00000
   40    -26.57926    2.00000
   41    -26.57888    2.00000
   42    -26.57874    2.00000
   43    -26.57863    2.00000
   44    -26.57802    2.00000
   45    -26.57720    2.00000
   46    -26.57700    2.00000
   47    -26.57622    2.00000
   48    -26.57595    2.00000
   49    -26.57555    2.00000
   50    -26.57501    2.00000
   51    -26.57464    2.00000
   52    -26.57334    2.00000
   53    -26.57329    2.00000
   54    -26.57243    2.00000
   55    -26.57207    2.00000
   56    -26.57178    2.00000
   57    -26.57131    2.00000
   58    -26.57123    2.00000
   59    -26.57116    2.00000
   60    -26.57106    2.00000
   61    -26.57042    2.00000
   62    -26.57010    2.00000
   63    -26.57008    2.00000
   64    -26.56960    2.00000
   65    -26.56858    2.00000
   66    -26.56811    2.00000
   67    -26.56782    2.00000
   68    -26.56771    2.00000
   69    -26.56678    2.00000
   70    -26.56663    2.00000
   71    -26.56641    2.00000
   72    -26.56565    2.00000
   73    -26.56443    2.00000
   74    -26.56405    2.00000
   75    -26.56366    2.00000
   76    -26.56332    2.00000
   77    -26.56271    2.00000
   78    -26.56211    2.00000
   79    -26.56193    2.00000
   80    -26.56106    2.00000
   81    -26.56094    2.00000
   82    -26.56054    2.00000
   83    -26.56050    2.00000
   84    -26.55979    2.00000
   85    -26.55973    2.00000
   86    -26.55965    2.00000
   87    -26.55901    2.00000
   88    -26.55862    2.00000
   89    -26.55858    2.00000
   90    -26.55830    2.00000
   91    -26.55781    2.00000
   92    -26.55762    2.00000
   93    -26.55360    2.00000
   94    -26.55198    2.00000
   95    -26.55162    2.00000
   96    -26.55149    2.00000
   97    -26.55125    2.00000
   98    -26.55071    2.00000
   99    -26.52073    2.00000
  100    -26.52071    2.00000
  101    -26.52041    2.00000
  102    -26.52039    2.00000
  103    -26.50984    2.00000
  104    -26.50938    2.00000
  105    -26.50870    2.00000
  106    -26.50827    2.00000
  107    -26.50314    2.00000
  108    -26.50306    2.00000
  109    -26.50151    2.00000
  110    -26.50135    2.00000
  111    -26.37344    2.00000
  112    -26.37307    2.00000
  113    -26.37239    2.00000
  114    -26.37121    2.00000
  115    -26.36732    2.00000
  116    -26.36643    2.00000
  117    -26.36615    2.00000
  118    -26.36526    2.00000
  119    -26.36464    2.00000
  120    -26.36441    2.00000
  121    -26.36406    2.00000
  122    -26.36392    2.00000
  123    -26.36297    2.00000
  124    -26.36282    2.00000
  125    -26.36222    2.00000
  126    -26.36186    2.00000
  127    -26.36136    2.00000
  128    -26.36114    2.00000
  129    -26.36054    2.00000
  130    -26.35991    2.00000
  131    -26.35953    2.00000
  132    -26.35932    2.00000
  133    -26.35885    2.00000
  134    -26.35828    2.00000
  135    -26.35822    2.00000
  136    -26.35750    2.00000
  137    -26.35726    2.00000
  138    -26.35702    2.00000
  139    -26.35690    2.00000
  140    -26.35648    2.00000
  141    -26.35604    2.00000
  142    -26.35514    2.00000
  143    -26.35499    2.00000
  144    -26.35425    2.00000
  145    -26.35370    2.00000
  146    -26.35338    2.00000
  147    -26.35331    2.00000
  148    -26.35286    2.00000
  149    -26.35262    2.00000
  150    -26.35169    2.00000
  151    -26.35140    2.00000
  152    -26.35093    2.00000
  153    -26.35086    2.00000
  154    -26.35067    2.00000
  155    -26.35025    2.00000
  156    -26.34972    2.00000
  157    -26.34962    2.00000
  158    -26.34940    2.00000
  159    -26.34911    2.00000
  160    -26.34890    2.00000
  161    -26.34849    2.00000
  162    -26.34833    2.00000
  163    -26.34785    2.00000
  164    -26.34754    2.00000
  165    -26.34726    2.00000
  166    -26.34700    2.00000
  167    -26.34640    2.00000
  168    -26.34609    2.00000
  169    -26.34574    2.00000
  170    -26.34542    2.00000
  171    -26.34537    2.00000
  172    -26.34523    2.00000
  173    -26.34508    2.00000
  174    -26.34491    2.00000
  175    -26.34469    2.00000
  176    -26.34446    2.00000
  177    -26.34426    2.00000
  178    -26.34413    2.00000
  179    -26.34395    2.00000
  180    -26.34343    2.00000
  181    -26.34318    2.00000
  182    -26.34316    2.00000
  183    -26.34279    2.00000
  184    -26.34212    2.00000
  185    -26.34202    2.00000
  186    -26.34187    2.00000
  187    -26.34184    2.00000
  188    -26.34173    2.00000
  189    -26.34158    2.00000
  190    -26.34123    2.00000
  191    -26.34108    2.00000
  192    -26.34099    2.00000
  193    -26.34078    2.00000
  194    -26.34055    2.00000
  195    -26.34013    2.00000
  196    -26.33971    2.00000
  197    -26.33904    2.00000
  198    -26.33879    2.00000
  199    -26.33870    2.00000
  200    -26.33795    2.00000
  201    -26.33787    2.00000
  202    -26.33751    2.00000
  203    -26.33738    2.00000
  204    -26.33699    2.00000
  205    -26.33678    2.00000
  206    -26.33583    2.00000
  207    -26.33560    2.00000
  208    -26.33536    2.00000
  209    -26.33372    2.00000
  210    -26.33283    2.00000
  211    -26.33276    2.00000
  212    -26.32965    2.00000
  213    -26.32685    2.00000
  214    -26.32677    2.00000
  215    -26.32597    2.00000
  216    -26.32539    2.00000
  217    -26.32503    2.00000
  218    -26.32455    2.00000
  219     -4.46792    2.00000
  220     -4.22811    2.00000
  221     -3.99119    2.00000
  222     -3.94294    2.00000
  223     -3.75744    2.00000
  224     -3.74712    2.00000
  225     -3.70241    2.00000
  226     -3.46961    2.00000
  227     -3.28336    2.00000
  228     -3.24547    2.00000
  229     -3.21784    2.00000
  230     -3.06223    2.00000
  231     -3.03998    2.00000
  232     -3.03047    2.00000
  233     -2.82486    2.00000
  234     -2.80076    2.00000
  235     -2.75610    1.99999
  236     -2.59161    1.99996
  237     -2.56824    1.99995
  238     -2.52873    1.99993
  239     -2.51627    1.99992
  240     -2.36495    1.99962
  241     -2.34079    1.99952
  242     -2.31370    1.99937
  243     -2.28935    1.99919
  244     -2.11577    1.99541
  245     -2.06690    1.99253
  246     -1.94488    1.97493
  247     -1.84581    1.93389
  248     -1.82563    1.91971
  249     -1.69486    1.73211
  250     -1.66151    1.64490
  251     -1.65510    1.62578
  252     -1.65235    1.61737
  253     -1.62447    1.52361
  254     -1.60222    1.43825
  255     -1.59687    1.41639
  256     -1.43805    0.66294
  257     -1.41914    0.58195
  258     -1.39984    0.50564
  259     -1.22180    0.10792
  260     -1.18744    0.07776
  261     -1.16213    0.06090
  262     -1.14468    0.05140
  263     -1.14241    0.05027
  264     -1.13190    0.04537
  265     -0.99327    0.01154
  266     -0.98470    0.01060
  267     -0.97047    0.00920
  268     -0.93117    0.00622
  269     -0.84158    0.00254
  270     -0.76416    0.00117
  271     -0.72829    0.00082
  272     -0.69367    0.00058
  273     -0.61563    0.00027
  274     -0.56984    0.00017
  275     -0.55096    0.00014
  276     -0.49809    0.00008
  277     -0.47773    0.00007
  278     -0.45539    0.00005
  279     -0.38406    0.00003
  280     -0.36244    0.00002
  281     -0.35144    0.00002
  282     -0.29458    0.00001
  283     -0.28202    0.00001
  284     -0.27016    0.00001
  285     -0.13777    0.00000
  286     -0.11037    0.00000
  287     -0.09674    0.00000
  288     -0.05825    0.00000
  289     -0.03267    0.00000
  290      0.11913    0.00000
  291      0.12711    0.00000
  292      0.22852    0.00000
  293      0.26698    0.00000
  294      0.26891    0.00000
  295      0.28868    0.00000
  296      0.32817    0.00000
  297      0.34491    0.00000
  298      0.40373    0.00000
  299      0.42912    0.00000
  300      0.44462    0.00000
  301      0.46848    0.00000
  302      0.50031    0.00000
  303      0.57584    0.00000
  304      0.58858    0.00000
  305      0.64521    0.00000
  306      0.68887    0.00000
  307      0.72404    0.00000
  308      0.79328    0.00000
  309      0.85957    0.00000
  310      0.87140    0.00000

Fermi level: -1.50821

Gap: 0.159 eV
Transition (v -> c):
  (s=0, k=0, n=255, [0.25, 0.25, 0.00]) -> (s=0, k=0, n=256, [0.25, 0.25, 0.00])
No difference between direct/indirect transitions

Forces in eV/Ang:
  0 Na    0.00000    0.00158    0.02439
  1 Na   -0.00235    0.00000    0.02504
  2 Na   -0.00250    0.00334   -0.00241
  3 Na   -0.00297    0.00000   -0.00103
  4 Na    0.00000    0.00420   -0.01020
  5 Na   -0.00501   -0.00000   -0.00608
  6 Na   -0.03933    0.02887    0.01740
  7 Na    0.00000    0.00000   -3.10796
  8 Na    0.00000   -0.00158    0.02439
  9 Na   -0.00143   -0.00360    0.02665
 10 Na   -0.00250   -0.00334   -0.00241
 11 Na    0.00207   -0.00047   -0.00059
 12 Na    0.00000   -0.00420   -0.01020
 13 Na    0.00051   -0.00201    0.00016
 14 Na   -0.03933   -0.02887    0.01740
 15 Na    0.00000   -0.04623    0.00620
 16 Na    0.00000    0.00000    0.02711
 17 Na   -0.00143    0.00360    0.02665
 18 Na   -0.00040   -0.00000    0.00220
 19 Na    0.00207    0.00047   -0.00059
 20 Na    0.00000    0.00000    0.00294
 21 Na    0.00051    0.00201    0.00016
 22 Na    0.00280   -0.00000   -0.03103
 23 Na    0.00000    0.04623    0.00620
 24 Na   -0.00131    0.00121    0.02815
 25 Na    0.00000   -0.00000    0.02783
 26 Na    0.00000   -0.00148   -0.00111
 27 Na    0.00297    0.00000   -0.00103
 28 Na   -0.00107   -0.00031    0.00328
 29 Na    0.00000   -0.00000    0.00309
 30 Na    0.00000    0.00060   -0.02760
 31 Na    0.00192   -0.00000   -0.02569
 32 Na   -0.00131   -0.00121    0.02815
 33 Na    0.00000    0.00036    0.02911
 34 Na    0.00000    0.00148   -0.00111
 35 Na   -0.00207   -0.00047   -0.00059
 36 Na   -0.00107    0.00031    0.00328
 37 Na    0.00000   -0.00024    0.00147
 38 Na    0.00000   -0.00060   -0.02760
 39 Na    0.00235   -0.00010   -0.02886
 40 Na    0.00110    0.00000    0.03027
 41 Na    0.00000   -0.00036    0.02911
 42 Na    0.00000    0.00000   -0.00200
 43 Na   -0.00207    0.00047   -0.00059
 44 Na   -0.00042    0.00000    0.00136
 45 Na    0.00000    0.00024    0.00147
 46 Na    0.00000    0.00000   -0.02595
 47 Na    0.00235    0.00010   -0.02886
 48 Na    0.00131    0.00121    0.02815
 49 Na    0.00235    0.00000    0.02504
 50 Na    0.00250    0.00334   -0.00241
 51 Na    0.00000    0.00000   -0.00188
 52 Na    0.00107   -0.00031    0.00328
 53 Na    0.00501   -0.00000   -0.00608
 54 Na    0.03933    0.02887    0.01740
 55 Na   -0.00192   -0.00000   -0.02569
 56 Na    0.00131   -0.00121    0.02815
 57 Na    0.00143   -0.00360    0.02665
 58 Na    0.00250   -0.00334   -0.00241
 59 Na    0.00000   -0.00618   -0.00051
 60 Na    0.00107    0.00031    0.00328
 61 Na   -0.00051   -0.00201    0.00016
 62 Na    0.03933   -0.02887    0.01740
 63 Na   -0.00235   -0.00010   -0.02886
 64 Na   -0.00110    0.00000    0.03027
 65 Na    0.00143    0.00360    0.02665
 66 Na    0.00040   -0.00000    0.00220
 67 Na    0.00000    0.00618   -0.00051
 68 Na    0.00042    0.00000    0.00136
 69 Na   -0.00051    0.00201    0.00016
 70 Na   -0.00280   -0.00000   -0.03103
 71 Na   -0.00235    0.00010   -0.02886
 72 Na    0.00000    0.00000    2.87026

System changes: positions 

Initializing position-dependent things.

Density initialized from wave functions
         .-------------------------------------------.  
        /|                                           |  
       / |                                           |  
      /  |                                           |  
     /   |                                           |  
    /    |                                           |  
   /     |                                           |  
  /      |                                           |  
 *       |                                           |  
 |       |                                           |  
 |       |                                           |  
 |       |                                           |  
 |       |                                           |  
 |       |                                           |  
 |      Na            Na             Na              |  
 |       |    Na            Na             Na        |  
 |   Na  |          Na  Na        Na  Na             |  
 |Na     |     Na             Na            Na       |  
 |       | Na             Na            Na           |  
 |Na  Na |       Na  Na         Na  Na               |  
 |      Na  Na         Na  Na         Na  Na         |  
 |  Na  Na        Na  Na         Na  Na              |  
 |       |                                           |  
 |       |Na  Na        Na  Na         Na  Na        |  
 Na  Na  |          Na            Na                 |  
 |       | Na  Na         Na  Na        Na  Na       |  
 |    Na |           Na             Na               |  
 |Na     |       Na             Na                   |  
 |      Na  Na         Na  Na         Na  Na         |  
 |  Na   |        Na             Na                  |  
 |       |Na            Na             Na            |  
 |       |                                           |  
 Na      |      Na            Na                     |  
 |       |                                           |  
 |       |                                           |  
 |       |                                           |  
 |       .-------------------------------------------.  
 |      /                                           /   
 |     /                                           /    
 |    /                                           /     
 |   /                                           /      
 |  /                                           /       
 | /                                           /        
 |/                                           /         
 *-------------------------------------------*          

Atomic positions and initial magnetic moments

Positions:
   0 Na     0.000000    0.000000   10.000000    ( 0.0000,  0.0000,  0.0000)
   1 Na     2.991062    2.115000   10.000000    ( 0.0000,  0.0000,  0.0000)
   2 Na     2.991062    0.000000   12.991062    ( 0.0000,  0.0000,  0.0000)
   3 Na     5.982123    2.115000   12.991062    ( 0.0000,  0.0000,  0.0000)
   4 Na     0.000000    0.000060   15.981978    ( 0.0000,  0.0000,  0.0000)
   5 Na     2.990990    2.115000   15.982037    ( 0.0000,  0.0000,  0.0000)
   6 Na     2.990500    0.000412   18.973434    ( 0.0000,  0.0000,  0.0000)
   7 Na     0.000000    2.115000   18.928786    ( 0.0000,  0.0000,  0.0000)
   8 Na     0.000000    4.230000   10.000000    ( 0.0000,  0.0000,  0.0000)
   9 Na     2.991062    6.345000   10.000000    ( 0.0000,  0.0000,  0.0000)
  10 Na     2.991062    4.230000   12.991062    ( 0.0000,  0.0000,  0.0000)
  11 Na     5.982123    6.345000   12.991062    ( 0.0000,  0.0000,  0.0000)
  12 Na     0.000000    4.229940   15.981978    ( 0.0000,  0.0000,  0.0000)
  13 Na     2.991069    6.344971   15.982126    ( 0.0000,  0.0000,  0.0000)
  14 Na     2.990500    4.229588   18.973434    ( 0.0000,  0.0000,  0.0000)
  15 Na     0.000000    6.344340   18.973274    ( 0.0000,  0.0000,  0.0000)
  16 Na     0.000000    8.460000   10.000000    ( 0.0000,  0.0000,  0.0000)
  17 Na     2.991062   10.575000   10.000000    ( 0.0000,  0.0000,  0.0000)
  18 Na     2.991062    8.460000   12.991062    ( 0.0000,  0.0000,  0.0000)
  19 Na     5.982123   10.575000   12.991062    ( 0.0000,  0.0000,  0.0000)
  20 Na     0.000000    8.460000   15.982165    ( 0.0000,  0.0000,  0.0000)
  21 Na     2.991069   10.575029   15.982126    ( 0.0000,  0.0000,  0.0000)
  22 Na     2.991102    8.460000   18.972742    ( 0.0000,  0.0000,  0.0000)
  23 Na     0.000000   10.575660   18.973274    ( 0.0000,  0.0000,  0.0000)
  24 Na     5.982123    0.000000   10.000000    ( 0.0000,  0.0000,  0.0000)
  25 Na     8.973185    2.115000   10.000000    ( 0.0000,  0.0000,  0.0000)
  26 Na     8.973185    0.000000   12.991062    ( 0.0000,  0.0000,  0.0000)
  27 Na    11.964247    2.115000   12.991062    ( 0.0000,  0.0000,  0.0000)
  28 Na     5.982108   -0.000004   15.982170    ( 0.0000,  0.0000,  0.0000)
  29 Na     8.973185    2.115000   15.982168    ( 0.0000,  0.0000,  0.0000)
  30 Na     8.973185    0.000009   18.972791    ( 0.0000,  0.0000,  0.0000)
  31 Na     5.982151    2.115000   18.972818    ( 0.0000,  0.0000,  0.0000)
  32 Na     5.982123    4.230000   10.000000    ( 0.0000,  0.0000,  0.0000)
  33 Na     8.973185    6.345000   10.000000    ( 0.0000,  0.0000,  0.0000)
  34 Na     8.973185    4.230000   12.991062    ( 0.0000,  0.0000,  0.0000)
  35 Na    11.964247    6.345000   12.991062    ( 0.0000,  0.0000,  0.0000)
  36 Na     5.982108    4.230004   15.982170    ( 0.0000,  0.0000,  0.0000)
  37 Na     8.973185    6.344997   15.982144    ( 0.0000,  0.0000,  0.0000)
  38 Na     8.973185    4.229991   18.972791    ( 0.0000,  0.0000,  0.0000)
  39 Na     5.982157    6.344999   18.972773    ( 0.0000,  0.0000,  0.0000)
  40 Na     5.982123    8.460000   10.000000    ( 0.0000,  0.0000,  0.0000)
  41 Na     8.973185   10.575000   10.000000    ( 0.0000,  0.0000,  0.0000)
  42 Na     8.973185    8.460000   12.991062    ( 0.0000,  0.0000,  0.0000)
  43 Na    11.964247   10.575000   12.991062    ( 0.0000,  0.0000,  0.0000)
  44 Na     5.982117    8.460000   15.982143    ( 0.0000,  0.0000,  0.0000)
  45 Na     8.973185   10.575003   15.982144    ( 0.0000,  0.0000,  0.0000)
  46 Na     8.973185    8.460000   18.972814    ( 0.0000,  0.0000,  0.0000)
  47 Na     5.982157   10.575001   18.972773    ( 0.0000,  0.0000,  0.0000)
  48 Na    11.964247    0.000000   10.000000    ( 0.0000,  0.0000,  0.0000)
  49 Na    14.955308    2.115000   10.000000    ( 0.0000,  0.0000,  0.0000)
  50 Na    14.955308    0.000000   12.991062    ( 0.0000,  0.0000,  0.0000)
  51 Na    17.946370    2.115000   12.991062    ( 0.0000,  0.0000,  0.0000)
  52 Na    11.964262   -0.000004   15.982170    ( 0.0000,  0.0000,  0.0000)
  53 Na    14.955380    2.115000   15.982037    ( 0.0000,  0.0000,  0.0000)
  54 Na    14.955870    0.000412   18.973434    ( 0.0000,  0.0000,  0.0000)
  55 Na    11.964219    2.115000   18.972818    ( 0.0000,  0.0000,  0.0000)
  56 Na    11.964247    4.230000   10.000000    ( 0.0000,  0.0000,  0.0000)
  57 Na    14.955308    6.345000   10.000000    ( 0.0000,  0.0000,  0.0000)
  58 Na    14.955308    4.230000   12.991062    ( 0.0000,  0.0000,  0.0000)
  59 Na    17.946370    6.345000   12.991062    ( 0.0000,  0.0000,  0.0000)
  60 Na    11.964262    4.230004   15.982170    ( 0.0000,  0.0000,  0.0000)
  61 Na    14.955301    6.344971   15.982126    ( 0.0000,  0.0000,  0.0000)
  62 Na    14.955870    4.229588   18.973434    ( 0.0000,  0.0000,  0.0000)
  63 Na    11.964213    6.344999   18.972773    ( 0.0000,  0.0000,  0.0000)
  64 Na    11.964247    8.460000   10.000000    ( 0.0000,  0.0000,  0.0000)
  65 Na    14.955308   10.575000   10.000000    ( 0.0000,  0.0000,  0.0000)
  66 Na    14.955308    8.460000   12.991062    ( 0.0000,  0.0000,  0.0000)
  67 Na    17.946370   10.575000   12.991062    ( 0.0000,  0.0000,  0.0000)
  68 Na    11.964253    8.460000   15.982143    ( 0.0000,  0.0000,  0.0000)
  69 Na    14.955301   10.575029   15.982126    ( 0.0000,  0.0000,  0.0000)
  70 Na    14.955268    8.460000   18.972742    ( 0.0000,  0.0000,  0.0000)
  71 Na    11.964213   10.575001   18.972773    ( 0.0000,  0.0000,  0.0000)
  72 Na     0.000000    2.115000   21.014189    ( 0.0000,  0.0000,  0.0000)

Unit cell:
           periodic     x           y           z      points  spacing
  1. axis:    yes   17.946370    0.000000    0.000000    60     0.2991
  2. axis:    yes    0.000000   12.690000    0.000000    42     0.3021
  3. axis:    no     0.000000    0.000000   28.973185    96     0.3018

  Lengths:  17.946370  12.690000  28.973185
  Angles:   90.000000  90.000000  90.000000

Effective grid spacing dv^(1/3) = 0.3010

     iter     time        total  log10-change:
                         energy   eigst   dens
iter:   1 05:18:44   -79.295309   -3.63
iter:   2 05:19:01   -79.284602   -4.41  -2.74
iter:   3 05:19:16   -79.283022c  -4.90  -3.01
iter:   4 05:19:31   -79.283327c  -5.26  -3.41
iter:   5 05:19:46   -79.282884c  -5.58c -3.51
iter:   6 05:20:01   -79.282771c  -5.93c -3.83
iter:   7 05:20:17   -79.282735c  -6.21c -3.88
iter:   8 05:20:32   -79.282755c  -6.43c -4.06c

Converged after 8 iterations.

Dipole moment: (0.000000, -0.540301, 0.134904) |e|*Ang

Energy contributions relative to reference atoms: (reference = -322558.566329)

Kinetic:       +157.834067
Potential:     -141.401463
External:        +0.000000
XC:             -98.326284
Entropy (-ST):   -1.363032
Local:           +3.292441
SIC:             +0.000000
--------------------------
Free energy:    -79.964271
Extrapolated:   -79.282755

 Band  Eigenvalues  Occupancy
    0    -28.15615    2.00000
    1    -27.68552    2.00000
    2    -27.68531    2.00000
    3    -27.04728    2.00000
    4    -27.04579    2.00000
    5    -26.96838    2.00000
    6    -26.59122    2.00000
    7    -26.59109    2.00000
    8    -26.59082    2.00000
    9    -26.59074    2.00000
   10    -26.58898    2.00000
   11    -26.58820    2.00000
   12    -26.58776    2.00000
   13    -26.58743    2.00000
   14    -26.58666    2.00000
   15    -26.58600    2.00000
   16    -26.58596    2.00000
   17    -26.58586    2.00000
   18    -26.58571    2.00000
   19    -26.58539    2.00000
   20    -26.58500    2.00000
   21    -26.58496    2.00000
   22    -26.58416    2.00000
   23    -26.58411    2.00000
   24    -26.58409    2.00000
   25    -26.58406    2.00000
   26    -26.58399    2.00000
   27    -26.58396    2.00000
   28    -26.58382    2.00000
   29    -26.58376    2.00000
   30    -26.58340    2.00000
   31    -26.58332    2.00000
   32    -26.58316    2.00000
   33    -26.58312    2.00000
   34    -26.58302    2.00000
   35    -26.58249    2.00000
   36    -26.58237    2.00000
   37    -26.58196    2.00000
   38    -26.58122    2.00000
   39    -26.58061    2.00000
   40    -26.58019    2.00000
   41    -26.57969    2.00000
   42    -26.57941    2.00000
   43    -26.57930    2.00000
   44    -26.57879    2.00000
   45    -26.57803    2.00000
   46    -26.57794    2.00000
   47    -26.57675    2.00000
   48    -26.57651    2.00000
   49    -26.57636    2.00000
   50    -26.57541    2.00000
   51    -26.57528    2.00000
   52    -26.57506    2.00000
   53    -26.57473    2.00000
   54    -26.57420    2.00000
   55    -26.57397    2.00000
   56    -26.57308    2.00000
   57    -26.57192    2.00000
   58    -26.57171    2.00000
   59    -26.57121    2.00000
   60    -26.57118    2.00000
   61    -26.57115    2.00000
   62    -26.57108    2.00000
   63    -26.57086    2.00000
   64    -26.57045    2.00000
   65    -26.56924    2.00000
   66    -26.56881    2.00000
   67    -26.56866    2.00000
   68    -26.56839    2.00000
   69    -26.56750    2.00000
   70    -26.56716    2.00000
   71    -26.56690    2.00000
   72    -26.56633    2.00000
   73    -26.56511    2.00000
   74    -26.56476    2.00000
   75    -26.56439    2.00000
   76    -26.56404    2.00000
   77    -26.56362    2.00000
   78    -26.56347    2.00000
   79    -26.56337    2.00000
   80    -26.56207    2.00000
   81    -26.56187    2.00000
   82    -26.56141    2.00000
   83    -26.56110    2.00000
   84    -26.56084    2.00000
   85    -26.56049    2.00000
   86    -26.56024    2.00000
   87    -26.56002    2.00000
   88    -26.55960    2.00000
   89    -26.55946    2.00000
   90    -26.55881    2.00000
   91    -26.55854    2.00000
   92    -26.55773    2.00000
   93    -26.55710    2.00000
   94    -26.55577    2.00000
   95    -26.55162    2.00000
   96    -26.55151    2.00000
   97    -26.55130    2.00000
   98    -26.55071    2.00000
   99    -26.52468    2.00000
  100    -26.52465    2.00000
  101    -26.52435    2.00000
  102    -26.52433    2.00000
  103    -26.51382    2.00000
  104    -26.51335    2.00000
  105    -26.51271    2.00000
  106    -26.51227    2.00000
  107    -26.50735    2.00000
  108    -26.50724    2.00000
  109    -26.50568    2.00000
  110    -26.50553    2.00000
  111    -26.37395    2.00000
  112    -26.37357    2.00000
  113    -26.37283    2.00000
  114    -26.37174    2.00000
  115    -26.36786    2.00000
  116    -26.36694    2.00000
  117    -26.36690    2.00000
  118    -26.36611    2.00000
  119    -26.36544    2.00000
  120    -26.36515    2.00000
  121    -26.36484    2.00000
  122    -26.36454    2.00000
  123    -26.36361    2.00000
  124    -26.36354    2.00000
  125    -26.36270    2.00000
  126    -26.36239    2.00000
  127    -26.36186    2.00000
  128    -26.36168    2.00000
  129    -26.36112    2.00000
  130    -26.36050    2.00000
  131    -26.36029    2.00000
  132    -26.36002    2.00000
  133    -26.35943    2.00000
  134    -26.35891    2.00000
  135    -26.35878    2.00000
  136    -26.35806    2.00000
  137    -26.35783    2.00000
  138    -26.35756    2.00000
  139    -26.35747    2.00000
  140    -26.35691    2.00000
  141    -26.35652    2.00000
  142    -26.35571    2.00000
  143    -26.35556    2.00000
  144    -26.35487    2.00000
  145    -26.35421    2.00000
  146    -26.35382    2.00000
  147    -26.35362    2.00000
  148    -26.35327    2.00000
  149    -26.35289    2.00000
  150    -26.35209    2.00000
  151    -26.35176    2.00000
  152    -26.35163    2.00000
  153    -26.35135    2.00000
  154    -26.35106    2.00000
  155    -26.35046    2.00000
  156    -26.34996    2.00000
  157    -26.34989    2.00000
  158    -26.34962    2.00000
  159    -26.34944    2.00000
  160    -26.34937    2.00000
  161    -26.34884    2.00000
  162    -26.34865    2.00000
  163    -26.34850    2.00000
  164    -26.34794    2.00000
  165    -26.34745    2.00000
  166    -26.34739    2.00000
  167    -26.34677    2.00000
  168    -26.34651    2.00000
  169    -26.34630    2.00000
  170    -26.34589    2.00000
  171    -26.34561    2.00000
  172    -26.34555    2.00000
  173    -26.34542    2.00000
  174    -26.34528    2.00000
  175    -26.34501    2.00000
  176    -26.34494    2.00000
  177    -26.34469    2.00000
  178    -26.34433    2.00000
  179    -26.34417    2.00000
  180    -26.34392    2.00000
  181    -26.34372    2.00000
  182    -26.34348    2.00000
  183    -26.34323    2.00000
  184    -26.34257    2.00000
  185    -26.34236    2.00000
  186    -26.34226    2.00000
  187    -26.34210    2.00000
  188    -26.34201    2.00000
  189    -26.34189    2.00000
  190    -26.34156    2.00000
  191    -26.34126    2.00000
  192    -26.34112    2.00000
  193    -26.34089    2.00000
  194    -26.34061    2.00000
  195    -26.34045    2.00000
  196    -26.33991    2.00000
  197    -26.33929    2.00000
  198    -26.33921    2.00000
  199    -26.33855    2.00000
  200    -26.33785    2.00000
  201    -26.33746    2.00000
  202    -26.33727    2.00000
  203    -26.33702    2.00000
  204    -26.33686    2.00000
  205    -26.33663    2.00000
  206    -26.33493    2.00000
  207    -26.33478    2.00000
  208    -26.33429    2.00000
  209    -26.33349    2.00000
  210    -26.33144    2.00000
  211    -26.33139    2.00000
  212    -26.32975    2.00000
  213    -26.32607    2.00000
  214    -26.32584    2.00000
  215    -26.32441    2.00000
  216    -26.32408    2.00000
  217    -26.32381    2.00000
  218    -26.32294    2.00000
  219     -4.46690    2.00000
  220     -4.22708    2.00000
  221     -3.99018    2.00000
  222     -3.94166    2.00000
  223     -3.75654    2.00000
  224     -3.74590    2.00000
  225     -3.70109    2.00000
  226     -3.46828    2.00000
  227     -3.28212    2.00000
  228     -3.24383    2.00000
  229     -3.21677    2.00000
  230     -3.06009    2.00000
  231     -3.03875    2.00000
  232     -3.02940    2.00000
  233     -2.82271    2.00000
  234     -2.79954    2.00000
  235     -2.75502    1.99999
  236     -2.58979    1.99996
  237     -2.56698    1.99995
  238     -2.52761    1.99993
  239     -2.51516    1.99992
  240     -2.36311    1.99962
  241     -2.33971    1.99952
  242     -2.31193    1.99936
  243     -2.28826    1.99919
  244     -2.11464    1.99542
  245     -2.06568    1.99254
  246     -1.94418    1.97507
  247     -1.84402    1.93356
  248     -1.82503    1.92021
  249     -1.69300    1.73072
  250     -1.66042    1.64540
  251     -1.65382    1.62572
  252     -1.65168    1.61917
  253     -1.62246    1.52088
  254     -1.60104    1.43856
  255     -1.59602    1.41809
  256     -1.43667    0.66240
  257     -1.41866    0.58519
  258     -1.39784    0.50285
  259     -1.22084    0.10823
  260     -1.18436    0.07641
  261     -1.16059    0.06073
  262     -1.14438    0.05188
  263     -1.14141    0.05040
  264     -1.13113    0.04559
  265     -0.99213    0.01155
  266     -0.98345    0.01060
  267     -0.96862    0.00914
  268     -0.93023    0.00624
  269     -0.84206    0.00259
  270     -0.76288    0.00117
  271     -0.72597    0.00081
  272     -0.69236    0.00058
  273     -0.61372    0.00026
  274     -0.56906    0.00017
  275     -0.55001    0.00014
  276     -0.49662    0.00008
  277     -0.47641    0.00007
  278     -0.45433    0.00005
  279     -0.38218    0.00003
  280     -0.36162    0.00002
  281     -0.35063    0.00002
  282     -0.29284    0.00001
  283     -0.28051    0.00001
  284     -0.26959    0.00001
  285     -0.13742    0.00000
  286     -0.10920    0.00000
  287     -0.09560    0.00000
  288     -0.05792    0.00000
  289     -0.03161    0.00000
  290      0.12049    0.00000
  291      0.12816    0.00000
  292      0.22607    0.00000
  293      0.26831    0.00000
  294      0.27003    0.00000
  295      0.28997    0.00000
  296      0.32806    0.00000
  297      0.34629    0.00000
  298      0.40085    0.00000
  299      0.43049    0.00000
  300      0.44535    0.00000
  301      0.47012    0.00000
  302      0.50186    0.00000
  303      0.57473    0.00000
  304      0.58859    0.00000
  305      0.64620    0.00000
  306      0.69052    0.00000
  307      0.72158    0.00000
  308      0.79270    0.00000
  309      0.85942    0.00000
  310      0.86417    0.00000

Fermi level: -1.50695

Gap: 0.159 eV
Transition (v -> c):
  (s=0, k=0, n=255, [0.25, 0.25, 0.00]) -> (s=0, k=0, n=256, [0.25, 0.25, 0.00])
No difference between direct/indirect transitions

Forces in eV/Ang:
  0 Na    0.00000    0.00266    0.02501
  1 Na   -0.00297   -0.00000    0.02506
  2 Na   -0.00319    0.00359   -0.00149
  3 Na   -0.00421   -0.00000    0.00054
  4 Na    0.00000   -0.00036   -0.01841
  5 Na   -0.00607    0.00000   -0.00656
  6 Na   -0.03790    0.02902    0.01786
  7 Na    0.00000    0.00000   -2.57778
  8 Na    0.00000   -0.00266    0.02501
  9 Na   -0.00134   -0.00447    0.02644
 10 Na   -0.00319   -0.00359   -0.00149
 11 Na    0.00156   -0.00071    0.00100
 12 Na    0.00000    0.00036   -0.01841
 13 Na    0.00086   -0.00167   -0.00207
 14 Na   -0.03790   -0.02902    0.01786
 15 Na    0.00000   -0.04506    0.00574
 16 Na    0.00000    0.00000    0.02708
 17 Na   -0.00134    0.00447    0.02644
 18 Na   -0.00112    0.00000    0.00448
 19 Na    0.00156    0.00071    0.00100
 20 Na    0.00000   -0.00000    0.00023
 21 Na    0.00086    0.00167   -0.00207
 22 Na    0.00333    0.00000   -0.03106
 23 Na    0.00000    0.04506    0.00574
 24 Na   -0.00114    0.00137    0.02693
 25 Na    0.00000   -0.00000    0.02628
 26 Na    0.00000   -0.00163   -0.00013
 27 Na    0.00421   -0.00000    0.00054
 28 Na   -0.00158   -0.00041    0.00206
 29 Na    0.00000    0.00000    0.00240
 30 Na    0.00000   -0.00010   -0.02711
 31 Na    0.00168   -0.00000   -0.02496
 32 Na   -0.00114   -0.00137    0.02693
 33 Na    0.00000    0.00048    0.02754
 34 Na    0.00000    0.00163   -0.00013
 35 Na   -0.00156   -0.00071    0.00100
 36 Na   -0.00158    0.00041    0.00206
 37 Na    0.00000    0.00027    0.00099
 38 Na    0.00000    0.00010   -0.02711
 39 Na    0.00297   -0.00034   -0.02868
 40 Na    0.00188    0.00000    0.02911
 41 Na    0.00000   -0.00048    0.02754
 42 Na    0.00000    0.00000   -0.00075
 43 Na   -0.00156    0.00071    0.00100
 44 Na   -0.00023    0.00000    0.00052
 45 Na    0.00000   -0.00027    0.00099
 46 Na    0.00000    0.00000   -0.02558
 47 Na    0.00297    0.00034   -0.02868
 48 Na    0.00114    0.00137    0.02693
 49 Na    0.00297   -0.00000    0.02506
 50 Na    0.00319    0.00359   -0.00149
 51 Na    0.00000    0.00000   -0.00262
 52 Na    0.00158   -0.00041    0.00206
 53 Na    0.00607    0.00000   -0.00656
 54 Na    0.03790    0.02902    0.01786
 55 Na   -0.00168   -0.00000   -0.02496
 56 Na    0.00114   -0.00137    0.02693
 57 Na    0.00134   -0.00447    0.02644
 58 Na    0.00319   -0.00359   -0.00149
 59 Na    0.00000   -0.00689    0.00118
 60 Na    0.00158    0.00041    0.00206
 61 Na   -0.00086   -0.00167   -0.00207
 62 Na    0.03790   -0.02902    0.01786
 63 Na   -0.00297   -0.00034   -0.02868
 64 Na   -0.00188    0.00000    0.02911
 65 Na    0.00134    0.00447    0.02644
 66 Na    0.00112    0.00000    0.00448
 67 Na    0.00000    0.00689    0.00118
 68 Na    0.00023    0.00000    0.00052
 69 Na   -0.00086    0.00167   -0.00207
 70 Na   -0.00333    0.00000   -0.03106
 71 Na   -0.00297    0.00034   -0.02868
 72 Na    0.00000    0.00000    2.36073

System changes: positions 

Initializing position-dependent things.

Density initialized from wave functions
         .-------------------------------------------.  
        /|                                           |  
       / |                                           |  
      /  |                                           |  
     /   |                                           |  
    /    |                                           |  
   /     |                                           |  
  /      |                                           |  
 *       |                                           |  
 |       |                                           |  
 |       |                                           |  
 |       |                                           |  
 |       |                                           |  
 |       |                                           |  
 |      Na            Na             Na              |  
 |       |    Na            Na             Na        |  
 |Na Na  |          Na  Na        Na  Na             |  
 |       |     Na             Na            Na       |  
 |       | Na             Na            Na           |  
 |Na  Na |       Na  Na         Na  Na               |  
 |      Na  Na         Na  Na         Na  Na         |  
 |  Na  Na        Na  Na         Na  Na              |  
 |       |                                           |  
 |       |Na  Na        Na  Na         Na  Na        |  
 Na  Na  |          Na            Na                 |  
 |       | Na  Na         Na  Na        Na  Na       |  
 |    Na |           Na             Na               |  
 |Na     |       Na             Na                   |  
 |      Na  Na         Na  Na         Na  Na         |  
 |  Na   |        Na             Na                  |  
 |       |Na            Na             Na            |  
 |       |                                           |  
 Na      |      Na            Na                     |  
 |       |                                           |  
 |       |                                           |  
 |       |                                           |  
 |       .-------------------------------------------.  
 |      /                                           /   
 |     /                                           /    
 |    /                                           /     
 |   /                                           /      
 |  /                                           /       
 | /                                           /        
 |/                                           /         
 *-------------------------------------------*          

Atomic positions and initial magnetic moments

Positions:
   0 Na     0.000000    0.000000   10.000000    ( 0.0000,  0.0000,  0.0000)
   1 Na     2.991062    2.115000   10.000000    ( 0.0000,  0.0000,  0.0000)
   2 Na     2.991062    0.000000   12.991062    ( 0.0000,  0.0000,  0.0000)
   3 Na     5.982123    2.115000   12.991062    ( 0.0000,  0.0000,  0.0000)
   4 Na     0.000000    0.000032   15.980550    ( 0.0000,  0.0000,  0.0000)
   5 Na     2.990519    2.115000   15.981527    ( 0.0000,  0.0000,  0.0000)
   6 Na     2.987560    0.002664   18.974819    ( 0.0000,  0.0000,  0.0000)
   7 Na     0.000000    2.115000   18.728786    ( 0.0000,  0.0000,  0.0000)
   8 Na     0.000000    4.230000   10.000000    ( 0.0000,  0.0000,  0.0000)
   9 Na     2.991062    6.345000   10.000000    ( 0.0000,  0.0000,  0.0000)
  10 Na     2.991062    4.230000   12.991062    ( 0.0000,  0.0000,  0.0000)
  11 Na     5.982123    6.345000   12.991062    ( 0.0000,  0.0000,  0.0000)
  12 Na    -0.000000    4.229968   15.980550    ( 0.0000,  0.0000,  0.0000)
  13 Na     2.991136    6.344842   15.981965    ( 0.0000,  0.0000,  0.0000)
  14 Na     2.987560    4.227336   18.974819    ( 0.0000,  0.0000,  0.0000)
  15 Na     0.000000    6.340844   18.973719    ( 0.0000,  0.0000,  0.0000)
  16 Na     0.000000    8.460000   10.000000    ( 0.0000,  0.0000,  0.0000)
  17 Na     2.991062   10.575000   10.000000    ( 0.0000,  0.0000,  0.0000)
  18 Na     2.991062    8.460000   12.991062    ( 0.0000,  0.0000,  0.0000)
  19 Na     5.982123   10.575000   12.991062    ( 0.0000,  0.0000,  0.0000)
  20 Na     0.000000    8.460000   15.982183    ( 0.0000,  0.0000,  0.0000)
  21 Na     2.991136   10.575158   15.981965    ( 0.0000,  0.0000,  0.0000)
  22 Na     2.991360    8.460000   18.970332    ( 0.0000,  0.0000,  0.0000)
  23 Na    -0.000000   10.579156   18.973719    ( 0.0000,  0.0000,  0.0000)
  24 Na     5.982123    0.000000   10.000000    ( 0.0000,  0.0000,  0.0000)
  25 Na     8.973185    2.115000   10.000000    ( 0.0000,  0.0000,  0.0000)
  26 Na     8.973185    0.000000   12.991062    ( 0.0000,  0.0000,  0.0000)
  27 Na    11.964247    2.115000   12.991062    ( 0.0000,  0.0000,  0.0000)
  28 Na     5.981986   -0.000036   15.982330    ( 0.0000,  0.0000,  0.0000)
  29 Na     8.973185    2.115000   15.982354    ( 0.0000,  0.0000,  0.0000)
  30 Na     8.973185    0.000001   18.970688    ( 0.0000,  0.0000,  0.0000)
  31 Na     5.982281    2.115000   18.970882    ( 0.0000,  0.0000,  0.0000)
  32 Na     5.982123    4.230000   10.000000    ( 0.0000,  0.0000,  0.0000)
  33 Na     8.973185    6.345000   10.000000    ( 0.0000,  0.0000,  0.0000)
  34 Na     8.973185    4.230000   12.991062    ( 0.0000,  0.0000,  0.0000)
  35 Na    11.964247    6.345000   12.991062    ( 0.0000,  0.0000,  0.0000)
  36 Na     5.981986    4.230036   15.982330    ( 0.0000,  0.0000,  0.0000)
  37 Na     8.973185    6.345018   15.982221    ( 0.0000,  0.0000,  0.0000)
  38 Na     8.973185    4.229999   18.970688    ( 0.0000,  0.0000,  0.0000)
  39 Na     5.982387    6.344972   18.970548    ( 0.0000,  0.0000,  0.0000)
  40 Na     5.982123    8.460000   10.000000    ( 0.0000,  0.0000,  0.0000)
  41 Na     8.973185   10.575000   10.000000    ( 0.0000,  0.0000,  0.0000)
  42 Na     8.973185    8.460000   12.991062    ( 0.0000,  0.0000,  0.0000)
  43 Na    11.964247   10.575000   12.991062    ( 0.0000,  0.0000,  0.0000)
  44 Na     5.982100    8.460000   15.982183    ( 0.0000,  0.0000,  0.0000)
  45 Na     8.973185   10.574982   15.982221    ( 0.0000,  0.0000,  0.0000)
  46 Na     8.973185    8.460000   18.970830    ( 0.0000,  0.0000,  0.0000)
  47 Na     5.982387   10.575028   18.970548    ( 0.0000,  0.0000,  0.0000)
  48 Na    11.964247    0.000000   10.000000    ( 0.0000,  0.0000,  0.0000)
  49 Na    14.955308    2.115000   10.000000    ( 0.0000,  0.0000,  0.0000)
  50 Na    14.955308    0.000000   12.991062    ( 0.0000,  0.0000,  0.0000)
  51 Na    17.946370    2.115000   12.991062    ( 0.0000,  0.0000,  0.0000)
  52 Na    11.964385   -0.000036   15.982330    ( 0.0000,  0.0000,  0.0000)
  53 Na    14.955851    2.115000   15.981527    ( 0.0000,  0.0000,  0.0000)
  54 Na    14.958810    0.002664   18.974819    ( 0.0000,  0.0000,  0.0000)
  55 Na    11.964089    2.115000   18.970882    ( 0.0000,  0.0000,  0.0000)
  56 Na    11.964247    4.230000   10.000000    ( 0.0000,  0.0000,  0.0000)
  57 Na    14.955308    6.345000   10.000000    ( 0.0000,  0.0000,  0.0000)
  58 Na    14.955308    4.230000   12.991062    ( 0.0000,  0.0000,  0.0000)
  59 Na    17.946370    6.345000   12.991062    ( 0.0000,  0.0000,  0.0000)
  60 Na    11.964385    4.230036   15.982330    ( 0.0000,  0.0000,  0.0000)
  61 Na    14.955234    6.344842   15.981965    ( 0.0000,  0.0000,  0.0000)
  62 Na    14.958810    4.227336   18.974819    ( 0.0000,  0.0000,  0.0000)
  63 Na    11.963983    6.344972   18.970548    ( 0.0000,  0.0000,  0.0000)
  64 Na    11.964247    8.460000   10.000000    ( 0.0000,  0.0000,  0.0000)
  65 Na    14.955308   10.575000   10.000000    ( 0.0000,  0.0000,  0.0000)
  66 Na    14.955308    8.460000   12.991062    ( 0.0000,  0.0000,  0.0000)
  67 Na    17.946370   10.575000   12.991062    ( 0.0000,  0.0000,  0.0000)
  68 Na    11.964271    8.460000   15.982183    ( 0.0000,  0.0000,  0.0000)
  69 Na    14.955234   10.575158   15.981965    ( 0.0000,  0.0000,  0.0000)
  70 Na    14.955010    8.460000   18.970332    ( 0.0000,  0.0000,  0.0000)
  71 Na    11.963983   10.575028   18.970548    ( 0.0000,  0.0000,  0.0000)
  72 Na     0.000000    2.115000   21.197349    ( 0.0000,  0.0000,  0.0000)

Unit cell:
           periodic     x           y           z      points  spacing
  1. axis:    yes   17.946370    0.000000    0.000000    60     0.2991
  2. axis:    yes    0.000000   12.690000    0.000000    42     0.3021
  3. axis:    no     0.000000    0.000000   28.973185    96     0.3018

  Lengths:  17.946370  12.690000  28.973185
  Angles:   90.000000  90.000000  90.000000

Effective grid spacing dv^(1/3) = 0.3010

     iter     time        total  log10-change:
                         energy   eigst   dens
iter:   1 05:20:59   -80.358944   -2.57
iter:   2 05:21:14   -80.030462   -3.38  -2.05
iter:   3 05:21:29   -79.963714   -3.90  -2.30
iter:   4 05:21:44   -79.936992c  -4.22  -2.72
iter:   5 05:21:58   -79.927404c  -4.46  -2.81
iter:   6 05:22:13   -79.926000c  -4.90  -3.14
iter:   7 05:22:27   -79.926215c  -5.19  -3.22
iter:   8 05:22:43   -79.926573c  -5.41c -3.40
iter:   9 05:22:57   -79.926823c  -5.67c -3.51
iter:  10 05:23:11   -79.926867c  -5.86c -3.61
iter:  11 05:23:24   -79.926984c  -6.10c -3.78
iter:  12 05:23:38   -79.926997c  -6.40c -4.00c

Converged after 12 iterations.

Dipole moment: (-0.000000, -0.679318, 0.205944) |e|*Ang

Energy contributions relative to reference atoms: (reference = -322558.566329)

Kinetic:       +155.784975
Potential:     -140.312503
External:        +0.000000
XC:             -98.017524
Entropy (-ST):   -1.362059
Local:           +3.299084
SIC:             +0.000000
--------------------------
Free energy:    -80.608027
Extrapolated:   -79.926997

 Band  Eigenvalues  Occupancy
    0    -27.40969    2.00000
    1    -27.27332    2.00000
    2    -27.27306    2.00000
    3    -26.62294    2.00000
    4    -26.58228    2.00000
    5    -26.58189    2.00000
    6    -26.58179    2.00000
    7    -26.58172    2.00000
    8    -26.58163    2.00000
    9    -26.58132    2.00000
   10    -26.58086    2.00000
   11    -26.58011    2.00000
   12    -26.57976    2.00000
   13    -26.57948    2.00000
   14    -26.57931    2.00000
   15    -26.57913    2.00000
   16    -26.57900    2.00000
   17    -26.57845    2.00000
   18    -26.57692    2.00000
   19    -26.57677    2.00000
   20    -26.57665    2.00000
   21    -26.57640    2.00000
   22    -26.57622    2.00000
   23    -26.57590    2.00000
   24    -26.57583    2.00000
   25    -26.57579    2.00000
   26    -26.57576    2.00000
   27    -26.57574    2.00000
   28    -26.57572    2.00000
   29    -26.57567    2.00000
   30    -26.57544    2.00000
   31    -26.57539    2.00000
   32    -26.57463    2.00000
   33    -26.57456    2.00000
   34    -26.57437    2.00000
   35    -26.57392    2.00000
   36    -26.57356    2.00000
   37    -26.57311    2.00000
   38    -26.57291    2.00000
   39    -26.57238    2.00000
   40    -26.57207    2.00000
   41    -26.57164    2.00000
   42    -26.57115    2.00000
   43    -26.57105    2.00000
   44    -26.57102    2.00000
   45    -26.57073    2.00000
   46    -26.56984    2.00000
   47    -26.56976    2.00000
   48    -26.56931    2.00000
   49    -26.56898    2.00000
   50    -26.56894    2.00000
   51    -26.56875    2.00000
   52    -26.56852    2.00000
   53    -26.56753    2.00000
   54    -26.56676    2.00000
   55    -26.56596    2.00000
   56    -26.56586    2.00000
   57    -26.56457    2.00000
   58    -26.56455    2.00000
   59    -26.56396    2.00000
   60    -26.56380    2.00000
   61    -26.56320    2.00000
   62    -26.56318    2.00000
   63    -26.56317    2.00000
   64    -26.56256    2.00000
   65    -26.56198    2.00000
   66    -26.56163    2.00000
   67    -26.56096    2.00000
   68    -26.56088    2.00000
   69    -26.55989    2.00000
   70    -26.55977    2.00000
   71    -26.55934    2.00000
   72    -26.55883    2.00000
   73    -26.55795    2.00000
   74    -26.55776    2.00000
   75    -26.55760    2.00000
   76    -26.55737    2.00000
   77    -26.55700    2.00000
   78    -26.55674    2.00000
   79    -26.55603    2.00000
   80    -26.55533    2.00000
   81    -26.55454    2.00000
   82    -26.55448    2.00000
   83    -26.55404    2.00000
   84    -26.55399    2.00000
   85    -26.55388    2.00000
   86    -26.55324    2.00000
   87    -26.55253    2.00000
   88    -26.55188    2.00000
   89    -26.55167    2.00000
   90    -26.55166    2.00000
   91    -26.55152    2.00000
   92    -26.55112    2.00000
   93    -26.55102    2.00000
   94    -26.55011    2.00000
   95    -26.54421    2.00000
   96    -26.54408    2.00000
   97    -26.54384    2.00000
   98    -26.54297    2.00000
   99    -26.52985    2.00000
  100    -26.52957    2.00000
  101    -26.52954    2.00000
  102    -26.52940    2.00000
  103    -26.51903    2.00000
  104    -26.51850    2.00000
  105    -26.51796    2.00000
  106    -26.51762    2.00000
  107    -26.51341    2.00000
  108    -26.51224    2.00000
  109    -26.51152    2.00000
  110    -26.51126    2.00000
  111    -26.36644    2.00000
  112    -26.36608    2.00000
  113    -26.36533    2.00000
  114    -26.36422    2.00000
  115    -26.36102    2.00000
  116    -26.35963    2.00000
  117    -26.35915    2.00000
  118    -26.35841    2.00000
  119    -26.35794    2.00000
  120    -26.35732    2.00000
  121    -26.35714    2.00000
  122    -26.35666    2.00000
  123    -26.35641    2.00000
  124    -26.35610    2.00000
  125    -26.35535    2.00000
  126    -26.35469    2.00000
  127    -26.35427    2.00000
  128    -26.35396    2.00000
  129    -26.35343    2.00000
  130    -26.35321    2.00000
  131    -26.35258    2.00000
  132    -26.35213    2.00000
  133    -26.35205    2.00000
  134    -26.35143    2.00000
  135    -26.35129    2.00000
  136    -26.35074    2.00000
  137    -26.35051    2.00000
  138    -26.35036    2.00000
  139    -26.34992    2.00000
  140    -26.34970    2.00000
  141    -26.34932    2.00000
  142    -26.34866    2.00000
  143    -26.34826    2.00000
  144    -26.34677    2.00000
  145    -26.34647    2.00000
  146    -26.34619    2.00000
  147    -26.34595    2.00000
  148    -26.34573    2.00000
  149    -26.34529    2.00000
  150    -26.34465    2.00000
  151    -26.34427    2.00000
  152    -26.34406    2.00000
  153    -26.34372    2.00000
  154    -26.34353    2.00000
  155    -26.34276    2.00000
  156    -26.34255    2.00000
  157    -26.34239    2.00000
  158    -26.34202    2.00000
  159    -26.34195    2.00000
  160    -26.34166    2.00000
  161    -26.34130    2.00000
  162    -26.34060    2.00000
  163    -26.34043    2.00000
  164    -26.34031    2.00000
  165    -26.33987    2.00000
  166    -26.33946    2.00000
  167    -26.33931    2.00000
  168    -26.33891    2.00000
  169    -26.33868    2.00000
  170    -26.33838    2.00000
  171    -26.33826    2.00000
  172    -26.33791    2.00000
  173    -26.33781    2.00000
  174    -26.33757    2.00000
  175    -26.33745    2.00000
  176    -26.33735    2.00000
  177    -26.33722    2.00000
  178    -26.33687    2.00000
  179    -26.33664    2.00000
  180    -26.33636    2.00000
  181    -26.33605    2.00000
  182    -26.33579    2.00000
  183    -26.33562    2.00000
  184    -26.33530    2.00000
  185    -26.33475    2.00000
  186    -26.33469    2.00000
  187    -26.33444    2.00000
  188    -26.33427    2.00000
  189    -26.33416    2.00000
  190    -26.33386    2.00000
  191    -26.33368    2.00000
  192    -26.33342    2.00000
  193    -26.33313    2.00000
  194    -26.33308    2.00000
  195    -26.33259    2.00000
  196    -26.33209    2.00000
  197    -26.33182    2.00000
  198    -26.33143    2.00000
  199    -26.33072    2.00000
  200    -26.33062    2.00000
  201    -26.33044    2.00000
  202    -26.33008    2.00000
  203    -26.33006    2.00000
  204    -26.32989    2.00000
  205    -26.32712    2.00000
  206    -26.32436    2.00000
  207    -26.32360    2.00000
  208    -26.32326    2.00000
  209    -26.32259    2.00000
  210    -26.32119    2.00000
  211    -26.31793    2.00000
  212    -26.31776    2.00000
  213    -26.31719    2.00000
  214    -26.31654    2.00000
  215    -26.31367    2.00000
  216    -26.31271    2.00000
  217    -26.31260    2.00000
  218    -26.31070    2.00000
  219     -4.46064    2.00000
  220     -4.22073    2.00000
  221     -3.98364    2.00000
  222     -3.93298    2.00000
  223     -3.75027    2.00000
  224     -3.73898    2.00000
  225     -3.69251    2.00000
  226     -3.45904    2.00000
  227     -3.27458    2.00000
  228     -3.23326    2.00000
  229     -3.20932    2.00000
  230     -3.04887    2.00000
  231     -3.03180    2.00000
  232     -3.02233    2.00000
  233     -2.81126    2.00000
  234     -2.79181    2.00000
  235     -2.74744    1.99999
  236     -2.57908    1.99996
  237     -2.55934    1.99995
  238     -2.51993    1.99993
  239     -2.50755    1.99992
  240     -2.35253    1.99961
  241     -2.33321    1.99952
  242     -2.30242    1.99935
  243     -2.28068    1.99919
  244     -2.10809    1.99546
  245     -2.05725    1.99246
  246     -1.93933    1.97570
  247     -1.83447    1.93219
  248     -1.81947    1.92164
  249     -1.68322    1.72521
  250     -1.65389    1.64804
  251     -1.64737    1.62873
  252     -1.64631    1.62551
  253     -1.61179    1.50902
  254     -1.59358    1.43850
  255     -1.59001    1.42396
  256     -1.42869    0.65998
  257     -1.41509    0.60130
  258     -1.38705    0.49032
  259     -1.21511    0.10999
  260     -1.16886    0.07070
  261     -1.15104    0.05950
  262     -1.14045    0.05368
  263     -1.13422    0.05052
  264     -1.12570    0.04649
  265     -0.98556    0.01165
  266     -0.97640    0.01064
  267     -0.95855    0.00891
  268     -0.92308    0.00626
  269     -0.84456    0.00286
  270     -0.75577    0.00118
  271     -0.71405    0.00078
  272     -0.68486    0.00058
  273     -0.60386    0.00026
  274     -0.56318    0.00017
  275     -0.54410    0.00014
  276     -0.48757    0.00008
  277     -0.46870    0.00007
  278     -0.44809    0.00005
  279     -0.37162    0.00003
  280     -0.35668    0.00002
  281     -0.34542    0.00002
  282     -0.28278    0.00001
  283     -0.27204    0.00001
  284     -0.26489    0.00001
  285     -0.13578    0.00000
  286     -0.10259    0.00000
  287     -0.08872    0.00000
  288     -0.05331    0.00000
  289     -0.02544    0.00000
  290      0.12855    0.00000
  291      0.13466    0.00000
  292      0.20709    0.00000
  293      0.27628    0.00000
  294      0.27725    0.00000
  295      0.29718    0.00000
  296      0.32777    0.00000
  297      0.35321    0.00000
  298      0.39165    0.00000
  299      0.43823    0.00000
  300      0.45057    0.00000
  301      0.47946    0.00000
  302      0.51124    0.00000
  303      0.57189    0.00000
  304      0.59012    0.00000
  305      0.65201    0.00000
  306      0.69935    0.00000
  307      0.71436    0.00000
  308      0.79497    0.00000
  309      0.85585    0.00000
  310      0.86954    0.00000

Fermi level: -1.49951

Gap: 0.161 eV
Transition (v -> c):
  (s=0, k=0, n=255, [0.25, 0.25, 0.00]) -> (s=0, k=0, n=256, [0.25, 0.25, 0.00])
No difference between direct/indirect transitions

Forces in eV/Ang:
  0 Na    0.00000    0.00003    0.02093
  1 Na   -0.00331   -0.00000    0.02151
  2 Na   -0.00386    0.00258    0.00042
  3 Na   -0.00113    0.00000    0.00202
  4 Na    0.00000   -0.03237   -0.05916
  5 Na    0.00247   -0.00000   -0.01486
  6 Na   -0.03908    0.02926    0.01760
  7 Na    0.00000    0.00000   -1.13368
  8 Na    0.00000   -0.00003    0.02093
  9 Na   -0.00301   -0.00306    0.02525
 10 Na   -0.00386   -0.00258    0.00042
 11 Na    0.00299    0.00035    0.00133
 12 Na    0.00000    0.03237   -0.05916
 13 Na   -0.00003   -0.00471    0.00049
 14 Na   -0.03908   -0.02926    0.01760
 15 Na    0.00000   -0.03669    0.00019
 16 Na    0.00000    0.00000    0.02568
 17 Na   -0.00301    0.00306    0.02525
 18 Na    0.00017    0.00000    0.00199
 19 Na    0.00299   -0.00035    0.00133
 20 Na    0.00000    0.00000    0.00454
 21 Na   -0.00003    0.00471    0.00049
 22 Na    0.00158    0.00000   -0.03113
 23 Na    0.00000    0.03669    0.00019
 24 Na   -0.00177    0.00112    0.02731
 25 Na    0.00000   -0.00000    0.02902
 26 Na    0.00000   -0.00096    0.00112
 27 Na    0.00113    0.00000    0.00202
 28 Na   -0.00137    0.00022    0.00107
 29 Na    0.00000   -0.00000   -0.00000
 30 Na    0.00000    0.00064   -0.02673
 31 Na    0.00217   -0.00000   -0.02622
 32 Na   -0.00177   -0.00112    0.02731
 33 Na    0.00000    0.00014    0.02961
 34 Na    0.00000    0.00096    0.00112
 35 Na   -0.00299    0.00035    0.00133
 36 Na   -0.00137   -0.00022    0.00107
 37 Na    0.00000   -0.00046   -0.00233
 38 Na    0.00000   -0.00064   -0.02673
 39 Na    0.00113   -0.00039   -0.02781
 40 Na   -0.00038    0.00000    0.03118
 41 Na    0.00000   -0.00014    0.02961
 42 Na    0.00000    0.00000    0.00125
 43 Na   -0.00299   -0.00035    0.00133
 44 Na    0.00083    0.00000   -0.00105
 45 Na    0.00000    0.00046   -0.00233
 46 Na    0.00000    0.00000   -0.02348
 47 Na    0.00113    0.00039   -0.02781
 48 Na    0.00177    0.00112    0.02731
 49 Na    0.00331   -0.00000    0.02151
 50 Na    0.00386    0.00258    0.00042
 51 Na    0.00000    0.00000    0.00160
 52 Na    0.00137    0.00022    0.00107
 53 Na   -0.00247   -0.00000   -0.01486
 54 Na    0.03908    0.02926    0.01760
 55 Na   -0.00217   -0.00000   -0.02622
 56 Na    0.00177   -0.00112    0.02731
 57 Na    0.00301   -0.00306    0.02525
 58 Na    0.00386   -0.00258    0.00042
 59 Na    0.00000   -0.00796    0.00017
 60 Na    0.00137   -0.00022    0.00107
 61 Na    0.00003   -0.00471    0.00049
 62 Na    0.03908   -0.02926    0.01760
 63 Na   -0.00113   -0.00039   -0.02781
 64 Na    0.00038    0.00000    0.03118
 65 Na    0.00301    0.00306    0.02525
 66 Na   -0.00017    0.00000    0.00199
 67 Na    0.00000    0.00796    0.00017
 68 Na   -0.00083    0.00000   -0.00105
 69 Na    0.00003    0.00471    0.00049
 70 Na   -0.00158    0.00000   -0.03113
 71 Na   -0.00113    0.00039   -0.02781
 72 Na    0.00000   -0.00000    0.99876

System changes: positions 

Initializing position-dependent things.

Density initialized from wave functions
         .-------------------------------------------.  
        /|                                           |  
       / |                                           |  
      /  |                                           |  
     /   |                                           |  
    /    |                                           |  
   /     |                                           |  
  /      |                                           |  
 *       |                                           |  
 |       |                                           |  
 |       |                                           |  
 |       |                                           |  
 |       |                                           |  
 |       |                                           |  
 |      Na            Na             Na              |  
 |       |    Na            Na             Na        |  
 |Na Na  Na         Na  Na        Na  Na             |  
 |       |     Na             Na            Na       |  
 |       | Na             Na            Na           |  
 |    Na |       Na  Na         Na  Na               |  
 |Na    Na  Na         Na  Na         Na  Na         |  
 |  Na  Na        Na  Na         Na  Na              |  
 |       |                                           |  
 |       |Na  Na        Na  Na         Na  Na        |  
 |   Na  |          Na            Na                 |  
 |       | Na  Na         Na  Na        Na  Na       |  
 |    Na |           Na             Na               |  
 |Na     |       Na             Na                   |  
 |      Na  Na         Na  Na         Na  Na         |  
 |  Na   |        Na             Na                  |  
 |       |Na            Na             Na            |  
 |       |                                           |  
 Na      |      Na            Na                     |  
 |       |                                           |  
 |       |                                           |  
 |       |                                           |  
 |       .-------------------------------------------.  
 |      /                                           /   
 |     /                                           /    
 |    /                                           /     
 |   /                                           /      
 |  /                                           /       
 | /                                           /        
 |/                                           /         
 *-------------------------------------------*          

Atomic positions and initial magnetic moments

Positions:
   0 Na     0.000000    0.000000   10.000000    ( 0.0000,  0.0000,  0.0000)
   1 Na     2.991062    2.115000   10.000000    ( 0.0000,  0.0000,  0.0000)
   2 Na     2.991062    0.000000   12.991062    ( 0.0000,  0.0000,  0.0000)
   3 Na     5.982123    2.115000   12.991062    ( 0.0000,  0.0000,  0.0000)
   4 Na     0.000000   -0.000801   15.978167    ( 0.0000,  0.0000,  0.0000)
   5 Na     2.990287    2.115000   15.980835    ( 0.0000,  0.0000,  0.0000)
   6 Na     2.984738    0.004807   18.976128    ( 0.0000,  0.0000,  0.0000)
   7 Na     0.000000    2.115000   18.575277    ( 0.0000,  0.0000,  0.0000)
   8 Na     0.000000    4.230000   10.000000    ( 0.0000,  0.0000,  0.0000)
   9 Na     2.991062    6.345000   10.000000    ( 0.0000,  0.0000,  0.0000)
  10 Na     2.991062    4.230000   12.991062    ( 0.0000,  0.0000,  0.0000)
  11 Na     5.982123    6.345000   12.991062    ( 0.0000,  0.0000,  0.0000)
  12 Na    -0.000000    4.230801   15.978167    ( 0.0000,  0.0000,  0.0000)
  13 Na     2.991177    6.344642   15.981877    ( 0.0000,  0.0000,  0.0000)
  14 Na     2.984738    4.225193   18.976128    ( 0.0000,  0.0000,  0.0000)
  15 Na     0.000000    6.337736   18.974002    ( 0.0000,  0.0000,  0.0000)
  16 Na     0.000000    8.460000   10.000000    ( 0.0000,  0.0000,  0.0000)
  17 Na     2.991062   10.575000   10.000000    ( 0.0000,  0.0000,  0.0000)
  18 Na     2.991062    8.460000   12.991062    ( 0.0000,  0.0000,  0.0000)
  19 Na     5.982123   10.575000   12.991062    ( 0.0000,  0.0000,  0.0000)
  20 Na     0.000000    8.460000   15.982309    ( 0.0000,  0.0000,  0.0000)
  21 Na     2.991177   10.575358   15.981877    ( 0.0000,  0.0000,  0.0000)
  22 Na     2.991561    8.460000   18.968043    ( 0.0000,  0.0000,  0.0000)
  23 Na    -0.000000   10.582264   18.974002    ( 0.0000,  0.0000,  0.0000)
  24 Na     5.982123    0.000000   10.000000    ( 0.0000,  0.0000,  0.0000)
  25 Na     8.973185    2.115000   10.000000    ( 0.0000,  0.0000,  0.0000)
  26 Na     8.973185    0.000000   12.991062    ( 0.0000,  0.0000,  0.0000)
  27 Na    11.964247    2.115000   12.991062    ( 0.0000,  0.0000,  0.0000)
  28 Na     5.981874   -0.000050   15.982456    ( 0.0000,  0.0000,  0.0000)
  29 Na     8.973185    2.115000   15.982470    ( 0.0000,  0.0000,  0.0000)
  30 Na     8.973185    0.000012   18.968700    ( 0.0000,  0.0000,  0.0000)
  31 Na     5.982417    2.115000   18.969011    ( 0.0000,  0.0000,  0.0000)
  32 Na     5.982123    4.230000   10.000000    ( 0.0000,  0.0000,  0.0000)
  33 Na     8.973185    6.345000   10.000000    ( 0.0000,  0.0000,  0.0000)
  34 Na     8.973185    4.230000   12.991062    ( 0.0000,  0.0000,  0.0000)
  35 Na    11.964247    6.345000   12.991062    ( 0.0000,  0.0000,  0.0000)
  36 Na     5.981874    4.230050   15.982456    ( 0.0000,  0.0000,  0.0000)
  37 Na     8.973185    6.345019   15.982210    ( 0.0000,  0.0000,  0.0000)
  38 Na     8.973185    4.229988   18.968700    ( 0.0000,  0.0000,  0.0000)
  39 Na     5.982560    6.344946   18.968457    ( 0.0000,  0.0000,  0.0000)
  40 Na     5.982123    8.460000   10.000000    ( 0.0000,  0.0000,  0.0000)
  41 Na     8.973185   10.575000   10.000000    ( 0.0000,  0.0000,  0.0000)
  42 Na     8.973185    8.460000   12.991062    ( 0.0000,  0.0000,  0.0000)
  43 Na    11.964247   10.575000   12.991062    ( 0.0000,  0.0000,  0.0000)
  44 Na     5.982109    8.460000   15.982182    ( 0.0000,  0.0000,  0.0000)
  45 Na     8.973185   10.574981   15.982210    ( 0.0000,  0.0000,  0.0000)
  46 Na     8.973185    8.460000   18.968999    ( 0.0000,  0.0000,  0.0000)
  47 Na     5.982560   10.575054   18.968457    ( 0.0000,  0.0000,  0.0000)
  48 Na    11.964247    0.000000   10.000000    ( 0.0000,  0.0000,  0.0000)
  49 Na    14.955308    2.115000   10.000000    ( 0.0000,  0.0000,  0.0000)
  50 Na    14.955308    0.000000   12.991062    ( 0.0000,  0.0000,  0.0000)
  51 Na    17.946370    2.115000   12.991062    ( 0.0000,  0.0000,  0.0000)
  52 Na    11.964496   -0.000050   15.982456    ( 0.0000,  0.0000,  0.0000)
  53 Na    14.956083    2.115000   15.980835    ( 0.0000,  0.0000,  0.0000)
  54 Na    14.961632    0.004807   18.976128    ( 0.0000,  0.0000,  0.0000)
  55 Na    11.963953    2.115000   18.969011    ( 0.0000,  0.0000,  0.0000)
  56 Na    11.964247    4.230000   10.000000    ( 0.0000,  0.0000,  0.0000)
  57 Na    14.955308    6.345000   10.000000    ( 0.0000,  0.0000,  0.0000)
  58 Na    14.955308    4.230000   12.991062    ( 0.0000,  0.0000,  0.0000)
  59 Na    17.946370    6.345000   12.991062    ( 0.0000,  0.0000,  0.0000)
  60 Na    11.964496    4.230050   15.982456    ( 0.0000,  0.0000,  0.0000)
  61 Na    14.955193    6.344642   15.981877    ( 0.0000,  0.0000,  0.0000)
  62 Na    14.961632    4.225193   18.976128    ( 0.0000,  0.0000,  0.0000)
  63 Na    11.963810    6.344946   18.968457    ( 0.0000,  0.0000,  0.0000)
  64 Na    11.964247    8.460000   10.000000    ( 0.0000,  0.0000,  0.0000)
  65 Na    14.955308   10.575000   10.000000    ( 0.0000,  0.0000,  0.0000)
  66 Na    14.955308    8.460000   12.991062    ( 0.0000,  0.0000,  0.0000)
  67 Na    17.946370   10.575000   12.991062    ( 0.0000,  0.0000,  0.0000)
  68 Na    11.964261    8.460000   15.982182    ( 0.0000,  0.0000,  0.0000)
  69 Na    14.955193   10.575358   15.981877    ( 0.0000,  0.0000,  0.0000)
  70 Na    14.954809    8.460000   18.968043    ( 0.0000,  0.0000,  0.0000)
  71 Na    11.963810   10.575054   18.968457    ( 0.0000,  0.0000,  0.0000)
  72 Na     0.000000    2.115000   21.336939    ( 0.0000,  0.0000,  0.0000)

Unit cell:
           periodic     x           y           z      points  spacing
  1. axis:    yes   17.946370    0.000000    0.000000    60     0.2991
  2. axis:    yes    0.000000   12.690000    0.000000    42     0.3021
  3. axis:    no     0.000000    0.000000   28.973185    96     0.3018

  Lengths:  17.946370  12.690000  28.973185
  Angles:   90.000000  90.000000  90.000000

Effective grid spacing dv^(1/3) = 0.3010

     iter     time        total  log10-change:
[...]
  56 Na    11.964247    4.230000   10.000000    ( 0.0000,  0.0000,  0.0000)
  57 Na    14.955308    6.345000   10.000000    ( 0.0000,  0.0000,  0.0000)
  58 Na    14.955308    4.230000   12.991062    ( 0.0000,  0.0000,  0.0000)
  59 Na    17.946370    6.345000   12.991062    ( 0.0000,  0.0000,  0.0000)
  60 Na    11.958923    4.230823   15.944506    ( 0.0000,  0.0000,  0.0000)
  61 Na    14.912018    6.320887   16.004422    ( 0.0000,  0.0000,  0.0000)
  62 Na    15.073419    4.094398   19.048576    ( 0.0000,  0.0000,  0.0000)
  63 Na    12.013624    6.312251   18.863979    ( 0.0000,  0.0000,  0.0000)
  64 Na    11.964247    8.460000   10.000000    ( 0.0000,  0.0000,  0.0000)
  65 Na    14.955308   10.575000   10.000000    ( 0.0000,  0.0000,  0.0000)
  66 Na    14.955308    8.460000   12.991062    ( 0.0000,  0.0000,  0.0000)
  67 Na    17.946370   10.575000   12.991062    ( 0.0000,  0.0000,  0.0000)
  68 Na    11.967408    8.460000   15.938311    ( 0.0000,  0.0000,  0.0000)
  69 Na    14.912018   10.599113   16.004422    ( 0.0000,  0.0000,  0.0000)
  70 Na    14.993691    8.460000   18.865441    ( 0.0000,  0.0000,  0.0000)
  71 Na    12.013624   10.607749   18.863979    ( 0.0000,  0.0000,  0.0000)
  72 Na    -0.000000    2.115000   21.339934    ( 0.0000,  0.0000,  0.0000)

Unit cell:
           periodic     x           y           z      points  spacing
  1. axis:    yes   17.946370    0.000000    0.000000    60     0.2991
  2. axis:    yes    0.000000   12.690000    0.000000    42     0.3021
  3. axis:    no     0.000000    0.000000   28.973185    96     0.3018

  Lengths:  17.946370  12.690000  28.973185
  Angles:   90.000000  90.000000  90.000000

Effective grid spacing dv^(1/3) = 0.3010

     iter     time        total  log10-change:
                         energy   eigst   dens
iter:   1 06:00:12   -80.373411   -4.28
iter:   2 06:00:26   -80.313173   -5.11  -2.38
iter:   3 06:00:40   -80.305460c  -5.83c -2.76
iter:   4 06:00:54   -80.305993c  -5.92c -3.13
iter:   5 06:01:07   -80.305959c  -6.42c -3.47
iter:   6 06:01:24   -80.305666c  -6.51c -3.63
iter:   7 06:01:38   -80.305676c  -7.13c -3.85
iter:   8 06:01:53   -80.305640c  -7.15c -3.90
iter:   9 06:02:07   -80.305641c  -7.58c -4.15c

Converged after 9 iterations.

Dipole moment: (0.000000, -3.538858, 0.281896) |e|*Ang

Energy contributions relative to reference atoms: (reference = -322558.566329)

Kinetic:       +157.321697
Potential:     -141.619788
External:        +0.000000
XC:             -98.627931
Entropy (-ST):   -1.343586
Local:           +3.292174
SIC:             +0.000000
--------------------------
Free energy:    -80.977435
Extrapolated:   -80.305641

 Band  Eigenvalues  Occupancy
    0    -27.08164    2.00000
    1    -27.05900    2.00000
    2    -27.05870    2.00000
    3    -26.58102    2.00000
    4    -26.57911    2.00000
    5    -26.57902    2.00000
    6    -26.57284    2.00000
    7    -26.57249    2.00000
    8    -26.57180    2.00000
    9    -26.57156    2.00000
   10    -26.57114    2.00000
   11    -26.57096    2.00000
   12    -26.57084    2.00000
   13    -26.57042    2.00000
   14    -26.57038    2.00000
   15    -26.57035    2.00000
   16    -26.57029    2.00000
   17    -26.57001    2.00000
   18    -26.56954    2.00000
   19    -26.56945    2.00000
   20    -26.56907    2.00000
   21    -26.56901    2.00000
   22    -26.56895    2.00000
   23    -26.56868    2.00000
   24    -26.56863    2.00000
   25    -26.56804    2.00000
   26    -26.56789    2.00000
   27    -26.56746    2.00000
   28    -26.56730    2.00000
   29    -26.56706    2.00000
   30    -26.56693    2.00000
   31    -26.56648    2.00000
   32    -26.56628    2.00000
   33    -26.56607    2.00000
   34    -26.56547    2.00000
   35    -26.56521    2.00000
   36    -26.56514    2.00000
   37    -26.56374    2.00000
   38    -26.56305    2.00000
   39    -26.56193    2.00000
   40    -26.56160    2.00000
   41    -26.56107    2.00000
   42    -26.56089    2.00000
   43    -26.56057    2.00000
   44    -26.55885    2.00000
   45    -26.55808    2.00000
   46    -26.55804    2.00000
   47    -26.55777    2.00000
   48    -26.55746    2.00000
   49    -26.55664    2.00000
   50    -26.55648    2.00000
   51    -26.55629    2.00000
   52    -26.55613    2.00000
   53    -26.55545    2.00000
   54    -26.55510    2.00000
   55    -26.55491    2.00000
   56    -26.55468    2.00000
   57    -26.55451    2.00000
   58    -26.55313    2.00000
   59    -26.55291    2.00000
   60    -26.55265    2.00000
   61    -26.55263    2.00000
   62    -26.55245    2.00000
   63    -26.55240    2.00000
   64    -26.55233    2.00000
   65    -26.55229    2.00000
   66    -26.55100    2.00000
   67    -26.55095    2.00000
   68    -26.55076    2.00000
   69    -26.55058    2.00000
   70    -26.55046    2.00000
   71    -26.54923    2.00000
   72    -26.54886    2.00000
   73    -26.54851    2.00000
   74    -26.54841    2.00000
   75    -26.54814    2.00000
   76    -26.54807    2.00000
   77    -26.54721    2.00000
   78    -26.54670    2.00000
   79    -26.54530    2.00000
   80    -26.54518    2.00000
   81    -26.54501    2.00000
   82    -26.54391    2.00000
   83    -26.54376    2.00000
   84    -26.54373    2.00000
   85    -26.54328    2.00000
   86    -26.54130    2.00000
   87    -26.53964    2.00000
   88    -26.53930    2.00000
   89    -26.53845    2.00000
   90    -26.53820    2.00000
   91    -26.53756    2.00000
   92    -26.53330    2.00000
   93    -26.53307    2.00000
   94    -26.53303    2.00000
   95    -26.53287    2.00000
   96    -26.53284    2.00000
   97    -26.53235    2.00000
   98    -26.53233    2.00000
   99    -26.53214    2.00000
  100    -26.52237    2.00000
  101    -26.52189    2.00000
  102    -26.52162    2.00000
  103    -26.52125    2.00000
  104    -26.51685    2.00000
  105    -26.51662    2.00000
  106    -26.51369    2.00000
  107    -26.51356    2.00000
  108    -26.35842    2.00000
  109    -26.35837    2.00000
  110    -26.35732    2.00000
  111    -26.35653    2.00000
  112    -26.35142    2.00000
  113    -26.35139    2.00000
  114    -26.34257    2.00000
  115    -26.34143    2.00000
  116    -26.34046    2.00000
  117    -26.34038    2.00000
  118    -26.33970    2.00000
  119    -26.33932    2.00000
  120    -26.33868    2.00000
  121    -26.33818    2.00000
  122    -26.33771    2.00000
  123    -26.33695    2.00000
  124    -26.33680    2.00000
  125    -26.33635    2.00000
  126    -26.33604    2.00000
  127    -26.33582    2.00000
  128    -26.33535    2.00000
  129    -26.33503    2.00000
  130    -26.33494    2.00000
  131    -26.33458    2.00000
  132    -26.33425    2.00000
  133    -26.33408    2.00000
  134    -26.33358    2.00000
  135    -26.33300    2.00000
  136    -26.33253    2.00000
  137    -26.33231    2.00000
  138    -26.33093    2.00000
  139    -26.33025    2.00000
  140    -26.32902    2.00000
  141    -26.32896    2.00000
  142    -26.32863    2.00000
  143    -26.32785    2.00000
  144    -26.32782    2.00000
  145    -26.32734    2.00000
  146    -26.32710    2.00000
  147    -26.32657    2.00000
  148    -26.32607    2.00000
  149    -26.32598    2.00000
  150    -26.32573    2.00000
  151    -26.32558    2.00000
  152    -26.32486    2.00000
  153    -26.32442    2.00000
  154    -26.32417    2.00000
  155    -26.32394    2.00000
  156    -26.32327    2.00000
  157    -26.32276    2.00000
  158    -26.32260    2.00000
  159    -26.32195    2.00000
  160    -26.32180    2.00000
  161    -26.32152    2.00000
  162    -26.32091    2.00000
  163    -26.32068    2.00000
  164    -26.32035    2.00000
  165    -26.32016    2.00000
  166    -26.31998    2.00000
  167    -26.31968    2.00000
  168    -26.31917    2.00000
  169    -26.31895    2.00000
  170    -26.31878    2.00000
  171    -26.31868    2.00000
  172    -26.31752    2.00000
  173    -26.31733    2.00000
  174    -26.31729    2.00000
  175    -26.31617    2.00000
  176    -26.31581    2.00000
  177    -26.31530    2.00000
  178    -26.31430    2.00000
  179    -26.31407    2.00000
  180    -26.31371    2.00000
  181    -26.31354    2.00000
  182    -26.31293    2.00000
  183    -26.31272    2.00000
  184    -26.31209    2.00000
  185    -26.31195    2.00000
  186    -26.31166    2.00000
  187    -26.31159    2.00000
  188    -26.31130    2.00000
  189    -26.30954    2.00000
  190    -26.30937    2.00000
  191    -26.30860    2.00000
  192    -26.30803    2.00000
  193    -26.30773    2.00000
  194    -26.30764    2.00000
  195    -26.30737    2.00000
  196    -26.30734    2.00000
  197    -26.30724    2.00000
  198    -26.30699    2.00000
  199    -26.30670    2.00000
  200    -26.30646    2.00000
  201    -26.30609    2.00000
  202    -26.30538    2.00000
  203    -26.30282    2.00000
  204    -26.30231    2.00000
  205    -26.29783    2.00000
  206    -26.29196    2.00000
  207    -26.29029    2.00000
  208    -26.28943    2.00000
  209    -26.28713    2.00000
  210    -26.28657    2.00000
  211    -26.28518    2.00000
  212    -26.28354    2.00000
  213    -26.28339    2.00000
  214    -26.28301    2.00000
  215    -26.28246    2.00000
  216    -26.28113    2.00000
  217    -26.28037    2.00000
  218    -26.27913    2.00000
  219     -4.46767    2.00000
  220     -4.22773    2.00000
  221     -3.98973    2.00000
  222     -3.92005    2.00000
  223     -3.76001    2.00000
  224     -3.74095    2.00000
  225     -3.67968    2.00000
  226     -3.44593    2.00000
  227     -3.27868    2.00000
  228     -3.22216    2.00000
  229     -3.19490    2.00000
  230     -3.05041    2.00000
  231     -3.03437    2.00000
  232     -3.01674    2.00000
  233     -2.81011    2.00000
  234     -2.78089    2.00000
  235     -2.73579    1.99999
  236     -2.57678    1.99996
  237     -2.54817    1.99995
  238     -2.50812    1.99992
  239     -2.49344    1.99991
  240     -2.34607    1.99962
  241     -2.32482    1.99953
  242     -2.28955    1.99933
  243     -2.26778    1.99917
  244     -2.11393    1.99613
  245     -2.04224    1.99208
  246     -1.92724    1.97520
  247     -1.81856    1.92823
  248     -1.80729    1.92001
  249     -1.66736    1.71113
  250     -1.66475    1.70462
  251     -1.65079    1.66771
  252     -1.64861    1.66164
  253     -1.59772    1.49396
  254     -1.58003    1.42422
  255     -1.56707    1.36965
  256     -1.43095    0.71551
  257     -1.39651    0.56603
  258     -1.37002    0.46491
  259     -1.19213    0.09729
  260     -1.15668    0.06925
  261     -1.13643    0.05692
  262     -1.13121    0.05411
  263     -1.11845    0.04778
  264     -1.09875    0.03940
  265     -0.99263    0.01381
  266     -0.98202    0.01243
  267     -0.93889    0.00809
  268     -0.90939    0.00603
  269     -0.83889    0.00299
  270     -0.76107    0.00137
  271     -0.70150    0.00076
  272     -0.66156    0.00051
  273     -0.58394    0.00023
  274     -0.55054    0.00017
  275     -0.54693    0.00016
  276     -0.47618    0.00008
  277     -0.44516    0.00006
  278     -0.41781    0.00004
  279     -0.36500    0.00003
  280     -0.34594    0.00002
  281     -0.33453    0.00002
  282     -0.26495    0.00001
  283     -0.25657    0.00001
  284     -0.24433    0.00001
  285     -0.11593    0.00000
  286     -0.09157    0.00000
  287     -0.07515    0.00000
  288     -0.04371    0.00000
  289      0.00412    0.00000
  290      0.12672    0.00000
  291      0.14483    0.00000
  292      0.17768    0.00000
  293      0.27151    0.00000
  294      0.28702    0.00000
  295      0.29763    0.00000
  296      0.33687    0.00000
  297      0.35933    0.00000
  298      0.39152    0.00000
  299      0.44023    0.00000
  300      0.46899    0.00000
  301      0.49724    0.00000
  302      0.52415    0.00000
  303      0.58016    0.00000
  304      0.60732    0.00000
  305      0.65353    0.00000
  306      0.71475    0.00000
  307      0.73186    0.00000
  308      0.81234    0.00000
  309      0.85892    0.00000
  310      0.86560    0.00000

Fermi level: -1.48947

Gap: 0.136 eV
Transition (v -> c):
  (s=0, k=0, n=255, [0.25, 0.25, 0.00]) -> (s=0, k=0, n=256, [0.25, 0.25, 0.00])
No difference between direct/indirect transitions

Forces in eV/Ang:
  0 Na    0.00000    0.00406    0.02560
  1 Na   -0.00476   -0.00000    0.02460
  2 Na    0.00027   -0.00899   -0.02072
  3 Na   -0.00310   -0.00000   -0.01212
  4 Na    0.00000   -0.02662    0.00180
  5 Na    0.03323   -0.00000    0.01105
  6 Na    0.01327   -0.00844   -0.00951
  7 Na    0.00000   -0.00000   -0.03305
  8 Na    0.00000   -0.00406    0.02560
  9 Na   -0.00242   -0.00480    0.02797
 10 Na    0.00027    0.00899   -0.02072
 11 Na    0.00200   -0.00066   -0.01213
 12 Na    0.00000    0.02662    0.00180
 13 Na   -0.02023   -0.01506   -0.00592
 14 Na    0.01327    0.00844   -0.00951
 15 Na    0.00000   -0.00477   -0.00823
 16 Na    0.00000    0.00000    0.03007
 17 Na   -0.00242    0.00480    0.02797
 18 Na   -0.00287    0.00000    0.01841
 19 Na    0.00200    0.00066   -0.01213
 20 Na    0.00000    0.00000   -0.01656
 21 Na   -0.02023    0.01506   -0.00592
 22 Na   -0.00765    0.00000    0.01197
 23 Na    0.00000    0.00477   -0.00823
 24 Na   -0.00087    0.00170    0.02869
 25 Na    0.00000   -0.00000    0.02848
 26 Na    0.00000   -0.00031   -0.01526
 27 Na    0.00310   -0.00000   -0.01212
 28 Na   -0.00110    0.01630   -0.01167
 29 Na    0.00000    0.00000   -0.00383
 30 Na    0.00000   -0.00059   -0.00570
 31 Na    0.00573    0.00000   -0.00545
 32 Na   -0.00087   -0.00170    0.02869
 33 Na    0.00000    0.00044    0.02841
 34 Na    0.00000    0.00031   -0.01526
 35 Na   -0.00200   -0.00066   -0.01213
 36 Na   -0.00110   -0.01630   -0.01167
 37 Na    0.00000    0.00105   -0.00314
 38 Na    0.00000    0.00059   -0.00570
 39 Na   -0.00344    0.00005   -0.00260
 40 Na    0.00257    0.00000    0.03209
 41 Na    0.00000   -0.00044    0.02841
 42 Na    0.00000    0.00000   -0.01584
 43 Na   -0.00200    0.00066   -0.01213
 44 Na    0.00991   -0.00000    0.00189
 45 Na    0.00000   -0.00105   -0.00314
 46 Na    0.00000   -0.00000   -0.00665
 47 Na   -0.00344   -0.00005   -0.00260
 48 Na    0.00087    0.00170    0.02869
 49 Na    0.00476   -0.00000    0.02460
 50 Na   -0.00027   -0.00899   -0.02072
 51 Na    0.00000   -0.00000   -0.03977
 52 Na    0.00110    0.01630   -0.01167
 53 Na   -0.03323   -0.00000    0.01105
 54 Na   -0.01327   -0.00844   -0.00951
 55 Na   -0.00573    0.00000   -0.00545
 56 Na    0.00087   -0.00170    0.02869
 57 Na    0.00242   -0.00480    0.02797
 58 Na   -0.00027    0.00899   -0.02072
 59 Na    0.00000    0.04377   -0.06582
 60 Na    0.00110   -0.01630   -0.01167
 61 Na    0.02023   -0.01506   -0.00592
 62 Na   -0.01327    0.00844   -0.00951
 63 Na    0.00344    0.00005   -0.00260
 64 Na   -0.00257    0.00000    0.03209
 65 Na    0.00242    0.00480    0.02797
 66 Na    0.00287    0.00000    0.01841
 67 Na    0.00000   -0.04377   -0.06582
 68 Na   -0.00991   -0.00000    0.00189
 69 Na    0.02023    0.01506   -0.00592
 70 Na    0.00765    0.00000    0.01197
 71 Na    0.00344   -0.00005   -0.00260
 72 Na    0.00000   -0.00000    0.00593

Timing:                                      incl.     excl.
-------------------------------------------------------------------
Density initialized from wave functions:    27.646    27.596   0.9% |
 Symmetrize density:                         0.050     0.050   0.0% |
Forces:                                    112.518   112.518   3.8% |-|
Hamiltonian:                                30.897     0.068   0.0% |
 Atomic:                                    15.095     0.046   0.0% |
  XC Correction:                            15.049    15.049   0.5% |
 Calculate atomic Hamiltonians:             11.425    11.425   0.4% |
 Communicate:                                0.000     0.000   0.0% |
 Initialize Hamiltonian:                     0.002     0.002   0.0% |
 Poisson:                                    0.097     0.097   0.0% |
 XC 3D grid:                                 4.211     4.211   0.1% |
LCAO initialization:                        73.771     0.012   0.0% |
 LCAO eigensolver:                           0.450     0.002   0.0% |
  Calculate projections:                     0.011     0.011   0.0% |
  DenseAtomicCorrection:                     0.052     0.052   0.0% |
  Distribute overlap matrix:                 0.000     0.000   0.0% |
  Orbital Layouts:                           0.103     0.103   0.0% |
  Potential matrix:                          0.279     0.279   0.0% |
  Sum over cells:                            0.004     0.004   0.0% |
 LCAO to grid:                              72.961    72.961   2.5% ||
 Set positions (LCAO WFS):                   0.348     0.110   0.0% |
  Basic WFS set positions:                   0.001     0.001   0.0% |
  Basis functions set positions:             0.000     0.000   0.0% |
  P tci:                                     0.144     0.144   0.0% |
  ST tci:                                    0.074     0.074   0.0% |
  mktci:                                     0.019     0.019   0.0% |
PWDescriptor:                                0.007     0.007   0.0% |
Redistribute:                                0.035     0.035   0.0% |
SCF-cycle:                                2651.200     0.202   0.0% |
 Davidson:                                2153.362   406.703  13.8% |-----|
  Apply H:                                 293.110   290.155   9.9% |---|
   HMM T:                                    2.956     2.956   0.1% |
  Subspace diag:                           399.872     0.015   0.0% |
   calc_h_matrix:                          334.933    56.590   1.9% ||
    Apply H:                               278.343   275.364   9.4% |---|
     HMM T:                                  2.979     2.979   0.1% |
   diagonalize:                              4.721     4.721   0.2% |
   rotate_psi:                              60.204    60.204   2.0% ||
  calc. matrices:                          863.892   285.101   9.7% |---|
   Apply H:                                578.790   572.896  19.5% |-------|
    HMM T:                                   5.895     5.895   0.2% |
  diagonalize:                              65.658    65.658   2.2% ||
  rotate_psi:                              124.126   124.126   4.2% |-|
 Density:                                  220.837     0.002   0.0% |
  Atomic density matrices:                   0.729     0.729   0.0% |
  Mix:                                      85.638    85.638   2.9% ||
  Multipole moments:                         0.078     0.078   0.0% |
  Pseudo density:                          134.389   133.945   4.6% |-|
   Symmetrize density:                       0.444     0.444   0.0% |
 Hamiltonian:                              257.788     0.426   0.0% |
  Atomic:                                  122.459     0.326   0.0% |
   XC Correction:                          122.133   122.133   4.2% |-|
  Calculate atomic Hamiltonians:            98.775    98.775   3.4% ||
  Communicate:                               0.001     0.001   0.0% |
  Poisson:                                   0.355     0.355   0.0% |
  XC 3D grid:                               35.771    35.771   1.2% |
 Orthonormalize:                            19.011     0.004   0.0% |
  calc_s_matrix:                             3.791     3.791   0.1% |
  inverse-cholesky:                          0.090     0.090   0.0% |
  projections:                              10.387    10.387   0.4% |
  rotate_psi_s:                              4.739     4.739   0.2% |
Set symmetry:                                0.001     0.001   0.0% |
Other:                                      45.548    45.548   1.5% ||
-------------------------------------------------------------------
Total:                                              2941.622 100.0%

Memory usage: 3.31 GiB
Date: Mon Nov 24 06:02:13 2025
