
  ___ ___ ___ _ _ _  
 |   |   |_  | | | | 
 | | | | | . | | | | 
 |__ |  _|___|_____|  25.7.0
 |___|_|             

User:   tew@Mathuss-MacBook-Air-357.local
Date:   Mon Nov 24 06:02:13 2025
Arch:   arm64
Pid:    82977
CWD:    /Users/tew/Documents/Project/GitHub/chem-com
Python: 3.13.5
gpaw:   /Users/tew/Documents/Project/GitHub/chem-com/.venv/lib/python3.13/site-packages/gpaw
_gpaw:  /Users/tew/Documents/Project/GitHub/chem-com/.venv/lib/python3.13/site-packages/
        _gpaw.cpython-313-darwin.so
ase:    /Users/tew/Documents/Project/GitHub/chem-com/.venv/lib/python3.13/site-packages/ase (version 3.26.0)
numpy:  /Users/tew/Documents/Project/GitHub/chem-com/.venv/lib/python3.13/site-packages/numpy (version 2.3.5)
scipy:  /Users/tew/Documents/Project/GitHub/chem-com/.venv/lib/python3.13/site-packages/scipy (version 1.16.3)
libxc:  2.x.y
units:  Angstrom and eV
cores: 1
OpenMP: False
OMP_NUM_THREADS: 1

Input parameters:
  convergence: {density: 0.0001,
                eigenstates: 5e-06}
  kpts: [2 2 1]
  mode: {ecut: 200.0,
         name: pw}
  xc: PBE

System changes: positions, numbers, cell, pbc, initial_charges, initial_magmoms 

Initialize ...

species:
  Na:
    name: Sodium
    id: d7ecbc49209718622bcbe287195dca2a
    Z: 11.0
    valence: 7
    core: 4
    charge: 0.0
    file: /Users/tew/Documents/Project/GitHub/chem-com/.venv/lib/python3.13/site-packages/gpaw_data/setups/Na.PBE.gz
    compensation charges: {type: gauss,
                           rc: 0.37,
                           lmax: 2}
    cutoffs: {filter: 2.17,
              core: 2.59}
    projectors:
      #              energy  rcut
      - 3s(1.00)    -2.744   1.201
      - 2p(6.00)   -28.672   1.217
      - 3p(0.00)    -0.743   1.217
      -  s          24.468   1.201
      -  d           0.000   1.238
  
    # Using partial waves for Na as LCAO basis

Reference energy: -322558.566329  # eV

Spin-paired calculation

Convergence criteria:
 Maximum [total energy] change in last 3 cyles: 0.0005 eV / valence electron
 Maximum integral of absolute [dens]ity change: 0.0001 electrons / valence electron
 Maximum integral of absolute [eigenst]ate change: 5e-06 eV^2 / valence electron
 Maximum number of scf [iter]ations: 333
 (Square brackets indicate name in SCF output, whereas a 'c' in
 the SCF output indicates the quantity has converged.)

Symmetries present (total): 1

  ( 1  0  0)
  ( 0  1  0)
  ( 0  0  1)

4 k-points: 2 x 2 x 1 Monkhorst-Pack grid
2 k-points in the irreducible part of the Brillouin zone
       k-points in crystal coordinates                weights
   0:     0.25000000   -0.25000000    0.00000000          2/4
   1:     0.25000000    0.25000000    0.00000000          2/4

Wave functions: Plane wave expansion
  Cutoff energy: 200.000 eV
  Number of coefficients (min, max): 42398, 42398
  Pulay-stress correction: 0.000000 eV/Ang^3 (de/decut=0.000000)
  Using Numpy's FFT
  ScaLapack parameters: grid=1x1, blocksize=None
  Wavefunction extrapolation:
    Improved wavefunction reuse through dual PAW basis 

Occupation numbers: Fermi-Dirac:
  width: 0.1000  # eV
 

Eigensolver
   Davidson(niter=2) 

Densities:
  Coarse grid: 60*42*96 grid
  Fine grid: 120*84*192 grid
  Total Charge: 0.000000 

Density mixing:
  Method: separate
  Backend: pulay
  Linear mixing parameter: 0.05
  old densities: 5
  Damping of long wavelength oscillations: 50 

Hamiltonian:
  XC and Coulomb potentials evaluated on a 120*84*192 grid
  Using the PBE Exchange-Correlation functional
  External potential:
    NoExternalPotential
 

XC parameters: PBE with 2 nearest neighbor stencil

Memory estimate:
  Process memory now: 4272.72 MiB
  Calculator: 793.74 MiB
    Density: 111.27 MiB
      Arrays: 47.99 MiB
      Localized functions: 44.82 MiB
      Mixer: 18.46 MiB
    Hamiltonian: 32.29 MiB
      Arrays: 31.38 MiB
      XC: 0.00 MiB
      Poisson: 0.00 MiB
      vbar: 0.91 MiB
    Wavefunctions: 650.19 MiB
      Arrays psit_nG: 402.40 MiB
      Eigensolver: 219.20 MiB
      Projections: 9.01 MiB
      Projectors: 9.06 MiB
      PW-descriptor: 10.52 MiB

Total number of cores used: 1

Number of atoms: 73
Number of atomic orbitals: 511
Number of bands in calculation: 311
Number of valence electrons: 511
Bands to converge: occupied

... initialized

Initializing position-dependent things.

Density initialized from atomic densities
Creating initial wave functions:
  311 bands from LCAO basis set

         .-------------------------------------------.  
        /|                                           |  
       / |                                           |  
      /  |                                           |  
     /   |                                           |  
    /    |                                           |  
   /     |                                           |  
  /      |                                           |  
 *       |                                           |  
 |       |                                           |  
 |       |                                           |  
 |       |                                           |  
 |       |                                           |  
 |       |                     Na                    |  
 |      Na            Na             Na              |  
 |       |    Na            Na             Na        |  
 |       Na             Na            Na             |  
 |   Na  |          Na            Na        Na       |  
 |       | Na  Na         Na  Na        Na           |  
 |       |       Na  Na         Na  Na            Na |  
 |Na     |  Na             Na         Na  Na         |  
 |      Na        Na  Na             Na              |  
 |       |                       Na             Na   |  
 |       |Na  Na        Na  Na         Na  Na        |  
 |   Na  |          Na            Na                 |  
 |       | Na  Na         Na  Na        Na  Na       |  
 |    Na |           Na             Na               |  
 |Na     |       Na             Na                   |  
 |      Na  Na         Na  Na         Na  Na         |  
 |  Na   |        Na             Na                  |  
 |       |Na            Na             Na            |  
 |       |                                           |  
 Na      |      Na            Na                     |  
 |       |                                           |  
 |       |                                           |  
 |       |                                           |  
 |       .-------------------------------------------.  
 |      /                                           /   
 |     /                                           /    
 |    /                                           /     
 |   /                                           /      
 |  /                                           /       
 | /                                           /        
 |/                                           /         
 *-------------------------------------------*          

Atomic positions and initial magnetic moments

Positions:
   0 Na     0.000000    0.000000   10.000000    ( 0.0000,  0.0000,  0.0000)
   1 Na     2.991062    2.115000   10.000000    ( 0.0000,  0.0000,  0.0000)
   2 Na     2.991062    0.000000   12.991062    ( 0.0000,  0.0000,  0.0000)
   3 Na     5.982123    2.115000   12.991062    ( 0.0000,  0.0000,  0.0000)
   4 Na     0.024784   -0.061419   15.824568    ( 0.0000,  0.0000,  0.0000)
   5 Na     2.966277    2.176419   15.824568    ( 0.0000,  0.0000,  0.0000)
   6 Na     2.932007    0.067801   18.625484    ( 0.0000,  0.0000,  0.0000)
   7 Na     0.059055    2.047199   18.625484    ( 0.0000,  0.0000,  0.0000)
   8 Na     0.000000    4.230000   10.000000    ( 0.0000,  0.0000,  0.0000)
   9 Na     2.991062    6.345000   10.000000    ( 0.0000,  0.0000,  0.0000)
  10 Na     2.991062    4.230000   12.991062    ( 0.0000,  0.0000,  0.0000)
  11 Na     5.982123    6.345000   12.991062    ( 0.0000,  0.0000,  0.0000)
  12 Na    -0.021645    4.279363   15.874680    ( 0.0000,  0.0000,  0.0000)
  13 Na     3.012707    6.332943   16.002374    ( 0.0000,  0.0000,  0.0000)
  14 Na     2.932007    4.110741   18.977972    ( 0.0000,  0.0000,  0.0000)
  15 Na     0.019191    6.293542   18.886405    ( 0.0000,  0.0000,  0.0000)
  16 Na     0.000000    8.460000   10.000000    ( 0.0000,  0.0000,  0.0000)
  17 Na     2.991062   10.575000   10.000000    ( 0.0000,  0.0000,  0.0000)
  18 Na     2.991062    8.460000   12.991062    ( 0.0000,  0.0000,  0.0000)
  19 Na     5.982123   10.575000   12.991062    ( 0.0000,  0.0000,  0.0000)
  20 Na    -0.021645    8.472057   16.002374    ( 0.0000,  0.0000,  0.0000)
  21 Na     3.012707   10.525637   15.874680    ( 0.0000,  0.0000,  0.0000)
  22 Na     2.971870    8.511458   18.886405    ( 0.0000,  0.0000,  0.0000)
  23 Na     0.059055   10.694259   18.977972    ( 0.0000,  0.0000,  0.0000)
  24 Na     5.982123    0.000000   10.000000    ( 0.0000,  0.0000,  0.0000)
  25 Na     8.973185    2.115000   10.000000    ( 0.0000,  0.0000,  0.0000)
  26 Na     8.973185    0.000000   12.991062    ( 0.0000,  0.0000,  0.0000)
  27 Na    11.964247    2.115000   12.991062    ( 0.0000,  0.0000,  0.0000)
  28 Na     5.960001   -0.000412   15.924352    ( 0.0000,  0.0000,  0.0000)
  29 Na     8.975847    2.115412   15.942052    ( 0.0000,  0.0000,  0.0000)
  30 Na     8.960498   -0.001058   18.866779    ( 0.0000,  0.0000,  0.0000)
  31 Na     5.910381    2.047199   18.958512    ( 0.0000,  0.0000,  0.0000)
  32 Na     5.982123    4.230000   10.000000    ( 0.0000,  0.0000,  0.0000)
  33 Na     8.973185    6.345000   10.000000    ( 0.0000,  0.0000,  0.0000)
  34 Na     8.973185    4.230000   12.991062    ( 0.0000,  0.0000,  0.0000)
  35 Na    11.964247    6.345000   12.991062    ( 0.0000,  0.0000,  0.0000)
  36 Na     6.006430    4.218355   15.974464    ( 0.0000,  0.0000,  0.0000)
  37 Na     8.971604    6.345218   15.938343    ( 0.0000,  0.0000,  0.0000)
  38 Na     8.948497    4.214683   18.864544    ( 0.0000,  0.0000,  0.0000)
  39 Na     5.938244    6.328625   18.864710    ( 0.0000,  0.0000,  0.0000)
  40 Na     5.982123    8.460000   10.000000    ( 0.0000,  0.0000,  0.0000)
  41 Na     8.973185   10.575000   10.000000    ( 0.0000,  0.0000,  0.0000)
  42 Na     8.973185    8.460000   12.991062    ( 0.0000,  0.0000,  0.0000)
  43 Na    11.964247   10.575000   12.991062    ( 0.0000,  0.0000,  0.0000)
  44 Na     6.002187    8.472057   15.971366    ( 0.0000,  0.0000,  0.0000)
  45 Na     8.975847   10.574370   15.941440    ( 0.0000,  0.0000,  0.0000)
  46 Na     8.948497    8.476375   18.867969    ( 0.0000,  0.0000,  0.0000)
  47 Na     5.898380   10.659176   18.956278    ( 0.0000,  0.0000,  0.0000)
  48 Na    11.964247    0.000000   10.000000    ( 0.0000,  0.0000,  0.0000)
  49 Na    14.955308    2.115000   10.000000    ( 0.0000,  0.0000,  0.0000)
  50 Na    14.955308    0.000000   12.991062    ( 0.0000,  0.0000,  0.0000)
  51 Na    17.946370    2.115000   12.991062    ( 0.0000,  0.0000,  0.0000)
  52 Na    11.961585   -0.000412   15.942052    ( 0.0000,  0.0000,  0.0000)
  53 Na    14.977431    2.115412   15.924352    ( 0.0000,  0.0000,  0.0000)
  54 Na    15.027051    0.067801   18.958512    ( 0.0000,  0.0000,  0.0000)
  55 Na    11.976934    2.116058   18.866779    ( 0.0000,  0.0000,  0.0000)
  56 Na    11.964247    4.230000   10.000000    ( 0.0000,  0.0000,  0.0000)
  57 Na    14.955308    6.345000   10.000000    ( 0.0000,  0.0000,  0.0000)
  58 Na    14.955308    4.230000   12.991062    ( 0.0000,  0.0000,  0.0000)
  59 Na    17.946370    6.345000   12.991062    ( 0.0000,  0.0000,  0.0000)
  60 Na    11.961585    4.230630   15.941440    ( 0.0000,  0.0000,  0.0000)
  61 Na    14.935244    6.332943   15.971366    ( 0.0000,  0.0000,  0.0000)
  62 Na    15.039052    4.145824   18.956278    ( 0.0000,  0.0000,  0.0000)
  63 Na    11.988935    6.328625   18.867969    ( 0.0000,  0.0000,  0.0000)
  64 Na    11.964247    8.460000   10.000000    ( 0.0000,  0.0000,  0.0000)
  65 Na    14.955308   10.575000   10.000000    ( 0.0000,  0.0000,  0.0000)
  66 Na    14.955308    8.460000   12.991062    ( 0.0000,  0.0000,  0.0000)
  67 Na    17.946370   10.575000   12.991062    ( 0.0000,  0.0000,  0.0000)
  68 Na    11.965828    8.459782   15.938343    ( 0.0000,  0.0000,  0.0000)
  69 Na    14.931002   10.586645   15.974464    ( 0.0000,  0.0000,  0.0000)
  70 Na    14.999188    8.476375   18.864710    ( 0.0000,  0.0000,  0.0000)
  71 Na    11.988935   10.590317   18.864544    ( 0.0000,  0.0000,  0.0000)
  72 Na     1.495531    1.057500   21.339934    ( 0.0000,  0.0000,  0.0000)

Unit cell:
           periodic     x           y           z      points  spacing
  1. axis:    yes   17.946370    0.000000    0.000000    60     0.2991
  2. axis:    yes    0.000000   12.690000    0.000000    42     0.3021
  3. axis:    no     0.000000    0.000000   28.973185    96     0.3018

  Lengths:  17.946370  12.690000  28.973185
  Angles:   90.000000  90.000000  90.000000

Effective grid spacing dv^(1/3) = 0.3010

     iter     time        total  log10-change:
                         energy   eigst   dens
iter:   1 06:24:18   -81.473972
iter:   2 06:24:43   -80.909131   -2.32  -1.52
iter:   3 06:25:08   -80.560531   -2.78  -1.59
iter:   4 06:25:34   -80.343826   -2.89  -1.71
iter:   5 06:25:59   -80.422694c  -3.05  -1.99
iter:   6 06:26:25   -80.372692c  -3.67  -2.13
iter:   7 06:26:50   -80.307953c  -3.86  -2.25
iter:   8 06:27:16   -80.303003c  -4.36  -2.74
iter:   9 06:27:41   -80.295352c  -4.56  -2.88
iter:  10 06:28:06   -80.292041c  -4.76  -3.16
iter:  11 06:28:31   -80.290329c  -5.03  -3.29
iter:  12 06:28:56   -80.289205c  -5.22  -3.39
iter:  13 06:29:21   -80.288920c  -5.25  -3.54
iter:  14 06:29:47   -80.288934c  -5.72c -3.83
iter:  15 06:30:12   -80.288947c  -5.96c -3.88
iter:  16 06:30:38   -80.288959c  -6.18c -4.06c

Converged after 16 iterations.

Dipole moment: (-6.358009, -4.459406, 0.294065) |e|*Ang

Energy contributions relative to reference atoms: (reference = -322558.566329)

Kinetic:       +159.497582
Potential:     -143.465121
External:        +0.000000
XC:             -98.946942
Entropy (-ST):   -1.344125
Local:           +3.297585
SIC:             +0.000000
--------------------------
Free energy:    -80.961022
Extrapolated:   -80.288959

Showing all kpts
 Kpt  Band  Eigenvalues  Occupancy
  0   253     -1.59280    1.47731
  0   254     -1.58191    1.43420
  0   255     -1.56723    1.37282
  0   256     -1.43078    0.71733

  1   253     -1.59706    1.49361
  1   254     -1.57991    1.42605
  1   255     -1.56652    1.36974
  1   256     -1.43061    0.71657


Fermi level: -1.48890

Gap: 0.136 eV
Transition (v -> c):
  (s=0, k=1, n=255, [0.25, 0.25, 0.00]) -> (s=0, k=0, n=256, [0.25, -0.25, 0.00])
Direct/indirect transitions are different
Direct gap: 0.136 eV
Transition at: (s=0, k=1, n=255, [0.25, 0.25, 0.00])

Forces in eV/Ang:
  0 Na    0.00235    0.00091    0.02649
  1 Na   -0.00235   -0.00091    0.02649
  2 Na    0.00024   -0.00565   -0.03496
  3 Na   -0.00336    0.00547   -0.01717
  4 Na   -0.00859   -0.00442    0.01000
  5 Na    0.00859    0.00442    0.01000
  6 Na    0.11826   -0.08502   -0.09669
  7 Na   -0.11826    0.08502   -0.09669
  8 Na    0.00235   -0.00514    0.02759
  9 Na   -0.00097   -0.00395    0.02959
 10 Na   -0.00039    0.02286   -0.04144
 11 Na    0.00102   -0.00287    0.00318
 12 Na    0.00726   -0.00427    0.00123
 13 Na   -0.00839   -0.00912   -0.01151
 14 Na    0.01460    0.00167   -0.00292
 15 Na    0.00564    0.00991   -0.00796
 16 Na    0.00097    0.00395    0.02959
 17 Na   -0.00235    0.00514    0.02759
 18 Na   -0.00312   -0.01495   -0.01654
 19 Na   -0.00057   -0.00289   -0.01600
 20 Na    0.00839    0.00912   -0.01151
 21 Na   -0.00726    0.00427    0.00123
 22 Na   -0.00564   -0.00991   -0.00796
 23 Na   -0.01460   -0.00167   -0.00292
 24 Na   -0.00429    0.00074    0.02811
 25 Na    0.00070   -0.00039    0.02981
 26 Na   -0.00075   -0.00023   -0.01299
 27 Na    0.00075    0.00023   -0.01299
 28 Na    0.00254    0.00820    0.01235
 29 Na    0.00126   -0.00825   -0.00770
 30 Na    0.00376   -0.00059   -0.00825
 31 Na    0.01138    0.01667   -0.00779
 32 Na   -0.00258   -0.00189    0.02925
 33 Na    0.00174    0.00098    0.03019
 34 Na    0.00072    0.00118   -0.01398
 35 Na   -0.00234    0.00088   -0.01481
 36 Na   -0.01222   -0.01465   -0.00732
 37 Na    0.00435    0.00077   -0.00161
 38 Na   -0.00201   -0.00017   -0.00519
 39 Na   -0.00628    0.00007    0.00398
 40 Na    0.00090    0.00094    0.03165
 41 Na    0.00101   -0.00066    0.03011
 42 Na    0.00234   -0.00088   -0.01481
 43 Na   -0.00072   -0.00118   -0.01398
 44 Na   -0.00196    0.00466   -0.00069
 45 Na    0.00026    0.00752   -0.00750
 46 Na   -0.00280    0.00054   -0.00581
 47 Na    0.02123   -0.01541   -0.02568
 48 Na   -0.00070    0.00039    0.02981
 49 Na    0.00429   -0.00074    0.02811
 50 Na    0.00336   -0.00547   -0.01717
 51 Na   -0.00024    0.00565   -0.03496
 52 Na   -0.00126    0.00825   -0.00770
 53 Na   -0.00254   -0.00820    0.01235
 54 Na   -0.01138   -0.01667   -0.00779
 55 Na   -0.00376    0.00059   -0.00825
 56 Na   -0.00101    0.00066    0.03011
 57 Na   -0.00090   -0.00094    0.03165
 58 Na    0.00057    0.00289   -0.01600
 59 Na    0.00312    0.01495   -0.01654
 60 Na   -0.00026   -0.00752   -0.00750
 61 Na    0.00196   -0.00466   -0.00069
 62 Na   -0.02123    0.01541   -0.02568
 63 Na    0.00280   -0.00054   -0.00581
 64 Na   -0.00174   -0.00098    0.03019
 65 Na    0.00258    0.00189    0.02925
 66 Na   -0.00102    0.00287    0.00318
 67 Na    0.00039   -0.02286   -0.04144
 68 Na   -0.00435   -0.00077   -0.00161
 69 Na    0.01222    0.01465   -0.00732
 70 Na    0.00628   -0.00007    0.00398
 71 Na    0.00201    0.00017   -0.00519
 72 Na   -0.00000    0.00000    0.14895

System changes: positions 

Initializing position-dependent things.

Density initialized from wave functions
         .-------------------------------------------.  
        /|                                           |  
       / |                                           |  
      /  |                                           |  
     /   |                                           |  
    /    |                                           |  
   /     |                                           |  
  /      |                                           |  
 *       |                                           |  
 |       |                                           |  
 |       |                                           |  
 |       |                                           |  
 |       |                                           |  
 |       |                     Na                    |  
 |      Na            Na             Na              |  
 |       |    Na            Na             Na        |  
 |       Na             Na            Na             |  
 |   Na  |          Na            Na        Na       |  
 |       | Na  Na         Na  Na        Na           |  
 |       |       Na  Na         Na  Na            Na |  
 |Na     |  Na             Na         Na  Na         |  
 |      Na        Na  Na             Na              |  
 |       |                       Na             Na   |  
 |       |Na  Na        Na  Na         Na  Na        |  
 |   Na  |          Na            Na                 |  
 |       | Na  Na         Na  Na        Na  Na       |  
 |    Na |           Na             Na               |  
 |Na     |       Na             Na                   |  
 |      Na  Na         Na  Na         Na  Na         |  
 |  Na   |        Na             Na                  |  
 |       |Na            Na             Na            |  
 |       |                                           |  
 Na      |      Na            Na                     |  
 |       |                                           |  
 |       |                                           |  
 |       |                                           |  
 |       .-------------------------------------------.  
 |      /                                           /   
 |     /                                           /    
 |    /                                           /     
 |   /                                           /      
 |  /                                           /       
 | /                                           /        
 |/                                           /         
 *-------------------------------------------*          

Atomic positions and initial magnetic moments

Positions:
   0 Na     0.000000    0.000000   10.000000    ( 0.0000,  0.0000,  0.0000)
   1 Na     2.991062    2.115000   10.000000    ( 0.0000,  0.0000,  0.0000)
   2 Na     2.991062    0.000000   12.991062    ( 0.0000,  0.0000,  0.0000)
   3 Na     5.982123    2.115000   12.991062    ( 0.0000,  0.0000,  0.0000)
   4 Na     0.024699   -0.061464   15.824668    ( 0.0000,  0.0000,  0.0000)
   5 Na     2.966363    2.176464   15.824668    ( 0.0000,  0.0000,  0.0000)
   6 Na     2.933189    0.066951   18.624517    ( 0.0000,  0.0000,  0.0000)
   7 Na     0.057872    2.048049   18.624517    ( 0.0000,  0.0000,  0.0000)
   8 Na     0.000000    4.230000   10.000000    ( 0.0000,  0.0000,  0.0000)
   9 Na     2.991062    6.345000   10.000000    ( 0.0000,  0.0000,  0.0000)
  10 Na     2.991062    4.230000   12.991062    ( 0.0000,  0.0000,  0.0000)
  11 Na     5.982123    6.345000   12.991062    ( 0.0000,  0.0000,  0.0000)
  12 Na    -0.021572    4.279320   15.874693    ( 0.0000,  0.0000,  0.0000)
  13 Na     3.012623    6.332852   16.002259    ( 0.0000,  0.0000,  0.0000)
  14 Na     2.932153    4.110758   18.977943    ( 0.0000,  0.0000,  0.0000)
  15 Na     0.019248    6.293641   18.886325    ( 0.0000,  0.0000,  0.0000)
  16 Na     0.000000    8.460000   10.000000    ( 0.0000,  0.0000,  0.0000)
  17 Na     2.991062   10.575000   10.000000    ( 0.0000,  0.0000,  0.0000)
  18 Na     2.991062    8.460000   12.991062    ( 0.0000,  0.0000,  0.0000)
  19 Na     5.982123   10.575000   12.991062    ( 0.0000,  0.0000,  0.0000)
  20 Na    -0.021561    8.472148   16.002259    ( 0.0000,  0.0000,  0.0000)
  21 Na     3.012634   10.525680   15.874693    ( 0.0000,  0.0000,  0.0000)
  22 Na     2.971814    8.511359   18.886325    ( 0.0000,  0.0000,  0.0000)
  23 Na     0.058909   10.694242   18.977943    ( 0.0000,  0.0000,  0.0000)
  24 Na     5.982123    0.000000   10.000000    ( 0.0000,  0.0000,  0.0000)
  25 Na     8.973185    2.115000   10.000000    ( 0.0000,  0.0000,  0.0000)
  26 Na     8.973185    0.000000   12.991062    ( 0.0000,  0.0000,  0.0000)
  27 Na    11.964247    2.115000   12.991062    ( 0.0000,  0.0000,  0.0000)
  28 Na     5.960026   -0.000330   15.924475    ( 0.0000,  0.0000,  0.0000)
  29 Na     8.975859    2.115329   15.941975    ( 0.0000,  0.0000,  0.0000)
  30 Na     8.960536   -0.001064   18.866696    ( 0.0000,  0.0000,  0.0000)
  31 Na     5.910495    2.047366   18.958434    ( 0.0000,  0.0000,  0.0000)
  32 Na     5.982123    4.230000   10.000000    ( 0.0000,  0.0000,  0.0000)
  33 Na     8.973185    6.345000   10.000000    ( 0.0000,  0.0000,  0.0000)
  34 Na     8.973185    4.230000   12.991062    ( 0.0000,  0.0000,  0.0000)
  35 Na    11.964247    6.345000   12.991062    ( 0.0000,  0.0000,  0.0000)
  36 Na     6.006308    4.218208   15.974390    ( 0.0000,  0.0000,  0.0000)
  37 Na     8.971648    6.345226   15.938327    ( 0.0000,  0.0000,  0.0000)
  38 Na     8.948476    4.214682   18.864492    ( 0.0000,  0.0000,  0.0000)
  39 Na     5.938181    6.328626   18.864750    ( 0.0000,  0.0000,  0.0000)
  40 Na     5.982123    8.460000   10.000000    ( 0.0000,  0.0000,  0.0000)
  41 Na     8.973185   10.575000   10.000000    ( 0.0000,  0.0000,  0.0000)
  42 Na     8.973185    8.460000   12.991062    ( 0.0000,  0.0000,  0.0000)
  43 Na    11.964247   10.575000   12.991062    ( 0.0000,  0.0000,  0.0000)
  44 Na     6.002168    8.472103   15.971360    ( 0.0000,  0.0000,  0.0000)
  45 Na     8.975850   10.574445   15.941365    ( 0.0000,  0.0000,  0.0000)
  46 Na     8.948469    8.476380   18.867911    ( 0.0000,  0.0000,  0.0000)
  47 Na     5.898592   10.659021   18.956021    ( 0.0000,  0.0000,  0.0000)
  48 Na    11.964247    0.000000   10.000000    ( 0.0000,  0.0000,  0.0000)
  49 Na    14.955308    2.115000   10.000000    ( 0.0000,  0.0000,  0.0000)
  50 Na    14.955308    0.000000   12.991062    ( 0.0000,  0.0000,  0.0000)
  51 Na    17.946370    2.115000   12.991062    ( 0.0000,  0.0000,  0.0000)
  52 Na    11.961572   -0.000329   15.941975    ( 0.0000,  0.0000,  0.0000)
  53 Na    14.977406    2.115330   15.924475    ( 0.0000,  0.0000,  0.0000)
  54 Na    15.026937    0.067634   18.958434    ( 0.0000,  0.0000,  0.0000)
  55 Na    11.976896    2.116064   18.866696    ( 0.0000,  0.0000,  0.0000)
  56 Na    11.964247    4.230000   10.000000    ( 0.0000,  0.0000,  0.0000)
  57 Na    14.955308    6.345000   10.000000    ( 0.0000,  0.0000,  0.0000)
  58 Na    14.955308    4.230000   12.991062    ( 0.0000,  0.0000,  0.0000)
  59 Na    17.946370    6.345000   12.991062    ( 0.0000,  0.0000,  0.0000)
  60 Na    11.961582    4.230555   15.941365    ( 0.0000,  0.0000,  0.0000)
  61 Na    14.935264    6.332897   15.971360    ( 0.0000,  0.0000,  0.0000)
  62 Na    15.038840    4.145979   18.956021    ( 0.0000,  0.0000,  0.0000)
  63 Na    11.988963    6.328620   18.867911    ( 0.0000,  0.0000,  0.0000)
  64 Na    11.964247    8.460000   10.000000    ( 0.0000,  0.0000,  0.0000)
  65 Na    14.955308   10.575000   10.000000    ( 0.0000,  0.0000,  0.0000)
  66 Na    14.955308    8.460000   12.991062    ( 0.0000,  0.0000,  0.0000)
  67 Na    17.946370   10.575000   12.991062    ( 0.0000,  0.0000,  0.0000)
  68 Na    11.965784    8.459774   15.938327    ( 0.0000,  0.0000,  0.0000)
  69 Na    14.931124   10.586792   15.974390    ( 0.0000,  0.0000,  0.0000)
  70 Na    14.999251    8.476374   18.864750    ( 0.0000,  0.0000,  0.0000)
  71 Na    11.988955   10.590318   18.864492    ( 0.0000,  0.0000,  0.0000)
  72 Na     1.495531    1.057500   21.341424    ( 0.0000,  0.0000,  0.0000)

Unit cell:
           periodic     x           y           z      points  spacing
  1. axis:    yes   17.946370    0.000000    0.000000    60     0.2991
  2. axis:    yes    0.000000   12.690000    0.000000    42     0.3021
  3. axis:    no     0.000000    0.000000   28.973185    96     0.3018

  Lengths:  17.946370  12.690000  28.973185
  Angles:   90.000000  90.000000  90.000000

Effective grid spacing dv^(1/3) = 0.3010

     iter     time        total  log10-change:
                         energy   eigst   dens
iter:   1 07:05:01   -80.289535   -6.16c
iter:   2 07:05:26   -80.289704   -6.60c -3.73
iter:   3 07:05:51   -80.289874c  -6.81c -3.97
iter:   4 07:06:16   -80.289905c  -7.03c -4.25c

Converged after 4 iterations.

Dipole moment: (-6.320276, -4.438972, 0.299214) |e|*Ang

Energy contributions relative to reference atoms: (reference = -322558.566329)

Kinetic:       +157.531394
Potential:     -141.714589
External:        +0.000000
XC:             -98.731026
Entropy (-ST):   -1.344048
Local:           +3.296339
SIC:             +0.000000
--------------------------
Free energy:    -80.961928
Extrapolated:   -80.289905

Showing all kpts
 Kpt  Band  Eigenvalues  Occupancy
  0   253     -1.59258    1.47692
  0   254     -1.58188    1.43454
  0   255     -1.56714    1.37292
  0   256     -1.43072    0.71757

  1   253     -1.59687    1.49334
  1   254     -1.57987    1.42638
  1   255     -1.56643    1.36987
  1   256     -1.43055    0.71680


Fermi level: -1.48878

Gap: 0.136 eV
Transition (v -> c):
  (s=0, k=1, n=255, [0.25, 0.25, 0.00]) -> (s=0, k=0, n=256, [0.25, -0.25, 0.00])
Direct/indirect transitions are different
Direct gap: 0.136 eV
Transition at: (s=0, k=1, n=255, [0.25, 0.25, 0.00])

Forces in eV/Ang:
  0 Na    0.00216    0.00061    0.02181
  1 Na   -0.00216   -0.00061    0.02181
  2 Na   -0.00009   -0.00597   -0.03206
  3 Na   -0.00258    0.00589   -0.01634
  4 Na   -0.00877   -0.00474    0.00860
  5 Na    0.00877    0.00474    0.00860
  6 Na    0.11669   -0.08408   -0.09324
  7 Na   -0.11669    0.08408   -0.09324
  8 Na    0.00259   -0.00459    0.02379
  9 Na   -0.00145   -0.00370    0.02654
 10 Na   -0.00065    0.02343   -0.03963
 11 Na    0.00140   -0.00281    0.00330
 12 Na    0.00723   -0.00430    0.00105
 13 Na   -0.00908   -0.00941   -0.01098
 14 Na    0.01447    0.00291   -0.00221
 15 Na    0.00578    0.00953   -0.00771
 16 Na    0.00145    0.00370    0.02654
 17 Na   -0.00259    0.00459    0.02379
 18 Na   -0.00368   -0.01521   -0.01609
 19 Na    0.00012   -0.00334   -0.01560
 20 Na    0.00908    0.00941   -0.01098
 21 Na   -0.00723    0.00430    0.00105
 22 Na   -0.00578   -0.00953   -0.00771
 23 Na   -0.01447   -0.00291   -0.00221
 24 Na   -0.00367    0.00111    0.02439
 25 Na    0.00118   -0.00131    0.02786
 26 Na    0.00072   -0.00015   -0.01366
 27 Na   -0.00072    0.00015   -0.01366
 28 Na    0.00112    0.00803    0.01355
 29 Na    0.00081   -0.00784   -0.00794
 30 Na    0.00287   -0.00084   -0.00739
 31 Na    0.01107    0.01618   -0.00731
 32 Na   -0.00280   -0.00239    0.02639
 33 Na    0.00109    0.00013    0.02905
 34 Na    0.00177    0.00106   -0.01372
 35 Na   -0.00315    0.00084   -0.01375
 36 Na   -0.01268   -0.01497   -0.00687
 37 Na    0.00522    0.00106   -0.00223
 38 Na   -0.00231    0.00029   -0.00430
 39 Na   -0.00658   -0.00002    0.00481
 40 Na   -0.00006    0.00107    0.02939
 41 Na    0.00100    0.00110    0.02857
 42 Na    0.00315   -0.00084   -0.01375
 43 Na   -0.00177   -0.00106   -0.01372
 44 Na   -0.00214    0.00514    0.00004
 45 Na    0.00040    0.00683   -0.00771
 46 Na   -0.00270    0.00033   -0.00515
 47 Na    0.02046   -0.01500   -0.02546
 48 Na   -0.00118    0.00131    0.02786
 49 Na    0.00367   -0.00111    0.02439
 50 Na    0.00258   -0.00589   -0.01634
 51 Na    0.00009    0.00597   -0.03206
 52 Na   -0.00081    0.00784   -0.00794
 53 Na   -0.00112   -0.00803    0.01355
 54 Na   -0.01107   -0.01618   -0.00731
 55 Na   -0.00287    0.00084   -0.00739
 56 Na   -0.00100   -0.00110    0.02857
 57 Na    0.00006   -0.00107    0.02939
 58 Na   -0.00012    0.00334   -0.01560
 59 Na    0.00368    0.01521   -0.01609
 60 Na   -0.00040   -0.00683   -0.00771
 61 Na    0.00214   -0.00514    0.00004
 62 Na   -0.02046    0.01500   -0.02546
 63 Na    0.00270   -0.00033   -0.00515
 64 Na   -0.00109   -0.00013    0.02905
 65 Na    0.00280    0.00239    0.02639
 66 Na   -0.00140    0.00281    0.00330
 67 Na    0.00065   -0.02343   -0.03963
 68 Na   -0.00522   -0.00106   -0.00223
 69 Na    0.01268    0.01497   -0.00687
 70 Na    0.00658    0.00002    0.00481
 71 Na    0.00231   -0.00029   -0.00430
 72 Na   -0.00000    0.00000    0.14462

System changes: positions 

Initializing position-dependent things.

Density initialized from wave functions
         .-------------------------------------------.  
        /|                                           |  
       / |                                           |  
      /  |                                           |  
     /   |                                           |  
    /    |                                           |  
   /     |                                           |  
  /      |                                           |  
 *       |                                           |  
 |       |                                           |  
 |       |                                           |  
 |       |                                           |  
 |       |                                           |  
 |       |                     Na                    |  
 |      Na            Na             Na              |  
 |       |    Na            Na             Na        |  
 |       Na             Na            Na             |  
 |   Na  |          Na            Na        Na       |  
 |       | Na  Na         Na  Na        Na           |  
 |       |       Na  Na         Na  Na            Na |  
 |Na     |  Na             Na         Na  Na         |  
 |      Na        Na  Na             Na              |  
 |       |                       Na             Na   |  
 |       |Na  Na        Na  Na         Na  Na        |  
 |   Na  |          Na            Na                 |  
 |       | Na  Na         Na  Na        Na  Na       |  
 |    Na |           Na             Na               |  
 |Na     |       Na             Na                   |  
 |      Na  Na         Na  Na         Na  Na         |  
 |  Na   |        Na             Na                  |  
 |       |Na            Na             Na            |  
 |       |                                           |  
 Na      |      Na            Na                     |  
 |       |                                           |  
 |       |                                           |  
 |       |                                           |  
 |       .-------------------------------------------.  
 |      /                                           /   
 |     /                                           /    
 |    /                                           /     
 |   /                                           /      
 |  /                                           /       
 | /                                           /        
 |/                                           /         
 *-------------------------------------------*          

Atomic positions and initial magnetic moments

Positions:
   0 Na     0.000000    0.000000   10.000000    ( 0.0000,  0.0000,  0.0000)
   1 Na     2.991062    2.115000   10.000000    ( 0.0000,  0.0000,  0.0000)
   2 Na     2.991062    0.000000   12.991062    ( 0.0000,  0.0000,  0.0000)
   3 Na     5.982123    2.115000   12.991062    ( 0.0000,  0.0000,  0.0000)
   4 Na     0.024524   -0.061556   15.824853    ( 0.0000,  0.0000,  0.0000)
   5 Na     2.966537    2.176556   15.824853    ( 0.0000,  0.0000,  0.0000)
   6 Na     2.935541    0.065258   18.622618    ( 0.0000,  0.0000,  0.0000)
   7 Na     0.055521    2.049742   18.622618    ( 0.0000,  0.0000,  0.0000)
   8 Na     0.000000    4.230000   10.000000    ( 0.0000,  0.0000,  0.0000)
   9 Na     2.991062    6.345000   10.000000    ( 0.0000,  0.0000,  0.0000)
  10 Na     2.991062    4.230000   12.991062    ( 0.0000,  0.0000,  0.0000)
  11 Na     5.982123    6.345000   12.991062    ( 0.0000,  0.0000,  0.0000)
  12 Na    -0.021427    4.279234   15.874715    ( 0.0000,  0.0000,  0.0000)
  13 Na     3.012447    6.332666   16.002034    ( 0.0000,  0.0000,  0.0000)
  14 Na     2.932444    4.110805   18.977892    ( 0.0000,  0.0000,  0.0000)
  15 Na     0.019362    6.293835   18.886169    ( 0.0000,  0.0000,  0.0000)
  16 Na     0.000000    8.460000   10.000000    ( 0.0000,  0.0000,  0.0000)
  17 Na     2.991062   10.575000   10.000000    ( 0.0000,  0.0000,  0.0000)
  18 Na     2.991062    8.460000   12.991062    ( 0.0000,  0.0000,  0.0000)
  19 Na     5.982123   10.575000   12.991062    ( 0.0000,  0.0000,  0.0000)
  20 Na    -0.021385    8.472334   16.002034    ( 0.0000,  0.0000,  0.0000)
  21 Na     3.012489   10.525766   15.874715    ( 0.0000,  0.0000,  0.0000)
  22 Na     2.971699    8.511165   18.886169    ( 0.0000,  0.0000,  0.0000)
  23 Na     0.058618   10.694195   18.977892    ( 0.0000,  0.0000,  0.0000)
  24 Na     5.982123    0.000000   10.000000    ( 0.0000,  0.0000,  0.0000)
  25 Na     8.973185    2.115000   10.000000    ( 0.0000,  0.0000,  0.0000)
  26 Na     8.973185    0.000000   12.991062    ( 0.0000,  0.0000,  0.0000)
  27 Na    11.964247    2.115000   12.991062    ( 0.0000,  0.0000,  0.0000)
  28 Na     5.960061   -0.000167   15.924736    ( 0.0000,  0.0000,  0.0000)
  29 Na     8.975880    2.115168   15.941818    ( 0.0000,  0.0000,  0.0000)
  30 Na     8.960601   -0.001078   18.866540    ( 0.0000,  0.0000,  0.0000)
  31 Na     5.910719    2.047694   18.958284    ( 0.0000,  0.0000,  0.0000)
  32 Na     5.982123    4.230000   10.000000    ( 0.0000,  0.0000,  0.0000)
  33 Na     8.973185    6.345000   10.000000    ( 0.0000,  0.0000,  0.0000)
  34 Na     8.973185    4.230000   12.991062    ( 0.0000,  0.0000,  0.0000)
  35 Na    11.964247    6.345000   12.991062    ( 0.0000,  0.0000,  0.0000)
  36 Na     6.006058    4.217911   15.974249    ( 0.0000,  0.0000,  0.0000)
  37 Na     8.971744    6.345245   15.938288    ( 0.0000,  0.0000,  0.0000)
  38 Na     8.948433    4.214683   18.864398    ( 0.0000,  0.0000,  0.0000)
  39 Na     5.938052    6.328626   18.864839    ( 0.0000,  0.0000,  0.0000)
  40 Na     5.982123    8.460000   10.000000    ( 0.0000,  0.0000,  0.0000)
  41 Na     8.973185   10.575000   10.000000    ( 0.0000,  0.0000,  0.0000)
  42 Na     8.973185    8.460000   12.991062    ( 0.0000,  0.0000,  0.0000)
  43 Na    11.964247   10.575000   12.991062    ( 0.0000,  0.0000,  0.0000)
  44 Na     6.002127    8.472202   15.971354    ( 0.0000,  0.0000,  0.0000)
  45 Na     8.975856   10.574588   15.941212    ( 0.0000,  0.0000,  0.0000)
  46 Na     8.948414    8.476389   18.867801    ( 0.0000,  0.0000,  0.0000)
  47 Na     5.899009   10.658717   18.955509    ( 0.0000,  0.0000,  0.0000)
  48 Na    11.964247    0.000000   10.000000    ( 0.0000,  0.0000,  0.0000)
  49 Na    14.955308    2.115000   10.000000    ( 0.0000,  0.0000,  0.0000)
  50 Na    14.955308    0.000000   12.991062    ( 0.0000,  0.0000,  0.0000)
  51 Na    17.946370    2.115000   12.991062    ( 0.0000,  0.0000,  0.0000)
  52 Na    11.961552   -0.000168   15.941818    ( 0.0000,  0.0000,  0.0000)
  53 Na    14.977370    2.115167   15.924736    ( 0.0000,  0.0000,  0.0000)
  54 Na    15.026712    0.067306   18.958284    ( 0.0000,  0.0000,  0.0000)
  55 Na    11.976831    2.116078   18.866540    ( 0.0000,  0.0000,  0.0000)
  56 Na    11.964247    4.230000   10.000000    ( 0.0000,  0.0000,  0.0000)
  57 Na    14.955308    6.345000   10.000000    ( 0.0000,  0.0000,  0.0000)
  58 Na    14.955308    4.230000   12.991062    ( 0.0000,  0.0000,  0.0000)
  59 Na    17.946370    6.345000   12.991062    ( 0.0000,  0.0000,  0.0000)
  60 Na    11.961576    4.230412   15.941212    ( 0.0000,  0.0000,  0.0000)
  61 Na    14.935305    6.332798   15.971354    ( 0.0000,  0.0000,  0.0000)
  62 Na    15.038423    4.146283   18.955509    ( 0.0000,  0.0000,  0.0000)
  63 Na    11.989018    6.328611   18.867801    ( 0.0000,  0.0000,  0.0000)
  64 Na    11.964247    8.460000   10.000000    ( 0.0000,  0.0000,  0.0000)
  65 Na    14.955308   10.575000   10.000000    ( 0.0000,  0.0000,  0.0000)
  66 Na    14.955308    8.460000   12.991062    ( 0.0000,  0.0000,  0.0000)
  67 Na    17.946370   10.575000   12.991062    ( 0.0000,  0.0000,  0.0000)
  68 Na    11.965687    8.459755   15.938288    ( 0.0000,  0.0000,  0.0000)
  69 Na    14.931374   10.587089   15.974249    ( 0.0000,  0.0000,  0.0000)
  70 Na    14.999380    8.476374   18.864839    ( 0.0000,  0.0000,  0.0000)
  71 Na    11.988999   10.590317   18.864398    ( 0.0000,  0.0000,  0.0000)
  72 Na     1.495531    1.057500   21.344360    ( 0.0000,  0.0000,  0.0000)

Unit cell:
           periodic     x           y           z      points  spacing
  1. axis:    yes   17.946370    0.000000    0.000000    60     0.2991
  2. axis:    yes    0.000000   12.690000    0.000000    42     0.3021
  3. axis:    no     0.000000    0.000000   28.973185    96     0.3018

  Lengths:  17.946370  12.690000  28.973185
  Angles:   90.000000  90.000000  90.000000

Effective grid spacing dv^(1/3) = 0.3010

     iter     time        total  log10-change:
                         energy   eigst   dens
iter:   1 07:15:06   -80.290936   -6.17c
iter:   2 07:15:31   -80.291193   -7.07c -3.50
iter:   3 07:15:56   -80.291539c  -7.28c -3.81
iter:   4 07:16:21   -80.291624c  -7.61c -4.22c

Converged after 4 iterations.

Dipole moment: (-6.247784, -4.396894, 0.295100) |e|*Ang

Energy contributions relative to reference atoms: (reference = -322558.566329)

Kinetic:       +158.244089
Potential:     -142.345354
External:        +0.000000
XC:             -98.815855
Entropy (-ST):   -1.344057
Local:           +3.297525
SIC:             +0.000000
--------------------------
Free energy:    -80.963652
Extrapolated:   -80.291624

Showing all kpts
 Kpt  Band  Eigenvalues  Occupancy
  0   253     -1.59234    1.47696
  0   254     -1.58158    1.43431
  0   255     -1.56691    1.37296
  0   256     -1.43048    0.71761

  1   253     -1.59663    1.49335
  1   254     -1.57958    1.42620
  1   255     -1.56622    1.37000
  1   256     -1.43029    0.71671


Fermi level: -1.48854

Gap: 0.136 eV
Transition (v -> c):
  (s=0, k=1, n=255, [0.25, 0.25, 0.00]) -> (s=0, k=0, n=256, [0.25, -0.25, 0.00])
Direct/indirect transitions are different
Direct gap: 0.136 eV
Transition at: (s=0, k=1, n=255, [0.25, 0.25, 0.00])

Forces in eV/Ang:
  0 Na    0.00211    0.00099    0.02464
  1 Na   -0.00211   -0.00099    0.02464
  2 Na    0.00027   -0.00575   -0.03368
  3 Na   -0.00295    0.00567   -0.01704
  4 Na   -0.00877   -0.00462    0.00893
  5 Na    0.00877    0.00462    0.00893
  6 Na    0.11386   -0.08250   -0.09050
  7 Na   -0.11386    0.08250   -0.09050
  8 Na    0.00215   -0.00525    0.02623
  9 Na   -0.00083   -0.00397    0.02856
 10 Na   -0.00023    0.02316   -0.04056
 11 Na    0.00108   -0.00281    0.00293
 12 Na    0.00678   -0.00398    0.00139
 13 Na   -0.00864   -0.00933   -0.01052
 14 Na    0.01456    0.00455   -0.00244
 15 Na    0.00566    0.00910   -0.00707
 16 Na    0.00083    0.00397    0.02856
 17 Na   -0.00215    0.00525    0.02623
 18 Na   -0.00326   -0.01515   -0.01636
 19 Na   -0.00012   -0.00312   -0.01622
 20 Na    0.00864    0.00933   -0.01052
 21 Na   -0.00678    0.00398    0.00139
 22 Na   -0.00566   -0.00910   -0.00707
 23 Na   -0.01456   -0.00455   -0.00244
 24 Na   -0.00391    0.00089    0.02663
 25 Na    0.00086   -0.00055    0.02866
 26 Na   -0.00015   -0.00012   -0.01347
 27 Na    0.00015    0.00012   -0.01347
 28 Na    0.00076    0.00796    0.01372
 29 Na    0.00096   -0.00818   -0.00758
 30 Na    0.00319   -0.00056   -0.00697
 31 Na    0.01137    0.01622   -0.00716
 32 Na   -0.00226   -0.00210    0.02809
 33 Na    0.00177    0.00084    0.02907
 34 Na    0.00105    0.00096   -0.01435
 35 Na   -0.00244    0.00077   -0.01501
 36 Na   -0.01274   -0.01474   -0.00659
 37 Na    0.00438    0.00082   -0.00183
 38 Na   -0.00231   -0.00019   -0.00352
 39 Na   -0.00693   -0.00018    0.00545
 40 Na    0.00116    0.00100    0.03069
 41 Na    0.00115   -0.00037    0.02900
 42 Na    0.00244   -0.00077   -0.01501
 43 Na   -0.00105   -0.00096   -0.01435
 44 Na   -0.00244    0.00499   -0.00006
 45 Na   -0.00001    0.00741   -0.00725
 46 Na   -0.00300    0.00056   -0.00434
 47 Na    0.02014   -0.01527   -0.02501
 48 Na   -0.00086    0.00055    0.02866
 49 Na    0.00391   -0.00089    0.02663
 50 Na    0.00295   -0.00567   -0.01704
 51 Na   -0.00027    0.00575   -0.03368
 52 Na   -0.00096    0.00818   -0.00758
 53 Na   -0.00076   -0.00796    0.01372
 54 Na   -0.01137   -0.01622   -0.00716
 55 Na   -0.00319    0.00056   -0.00697
 56 Na   -0.00115    0.00037    0.02900
 57 Na   -0.00116   -0.00100    0.03069
 58 Na    0.00012    0.00312   -0.01622
 59 Na    0.00326    0.01515   -0.01636
 60 Na    0.00001   -0.00741   -0.00725
 61 Na    0.00244   -0.00499   -0.00006
 62 Na   -0.02014    0.01527   -0.02501
 63 Na    0.00300   -0.00056   -0.00434
 64 Na   -0.00177   -0.00084    0.02907
 65 Na    0.00226    0.00210    0.02809
 66 Na   -0.00108    0.00281    0.00293
 67 Na    0.00023   -0.02316   -0.04056
 68 Na   -0.00438   -0.00082   -0.00183
 69 Na    0.01274    0.01474   -0.00659
 70 Na    0.00693    0.00018    0.00545
 71 Na    0.00231    0.00019   -0.00352
 72 Na   -0.00000    0.00000    0.14038

System changes: positions 

Initializing position-dependent things.

Density initialized from wave functions
         .-------------------------------------------.  
        /|                                           |  
       / |                                           |  
      /  |                                           |  
     /   |                                           |  
    /    |                                           |  
   /     |                                           |  
  /      |                                           |  
 *       |                                           |  
 |       |                                           |  
 |       |                                           |  
 |       |                                           |  
 |       |                                           |  
 |       |                     Na                    |  
 |      Na            Na             Na              |  
 |       |    Na            Na             Na        |  
 |       Na                                          |  
 |   Na  |          Na            Na        Na       |  
 |       | Na  Na         Na  Na        Na           |  
 |       |       Na  Na         Na  Na            Na |  
 |Na     |  Na             Na         Na  Na         |  
 |      Na        Na  Na             Na              |  
 |       |                       Na             Na   |  
 |       |Na  Na        Na  Na         Na  Na        |  
 |   Na  |      Na  Na        Na  Na                 |  
 |       | Na  Na         Na  Na        Na  Na       |  
 |    Na |           Na             Na               |  
 |Na     |       Na             Na                   |  
 |      Na  Na         Na  Na         Na  Na         |  
 |  Na   |        Na             Na                  |  
 |       |Na            Na             Na            |  
 |       |                                           |  
 Na      |      Na            Na                     |  
 |       |                                           |  
 |       |                                           |  
 |       |                                           |  
 |       .-------------------------------------------.  
 |      /                                           /   
 |     /                                           /    
 |    /                                           /     
 |   /                                           /      
 |  /                                           /       
 | /                                           /        
 |/                                           /         
 *-------------------------------------------*          

Atomic positions and initial magnetic moments

Positions:
   0 Na     0.000000    0.000000   10.000000    ( 0.0000,  0.0000,  0.0000)
   1 Na     2.991062    2.115000   10.000000    ( 0.0000,  0.0000,  0.0000)
   2 Na     2.991062    0.000000   12.991062    ( 0.0000,  0.0000,  0.0000)
   3 Na     5.982123    2.115000   12.991062    ( 0.0000,  0.0000,  0.0000)
   4 Na     0.024262   -0.061694   15.825127    ( 0.0000,  0.0000,  0.0000)
   5 Na     2.966800    2.176694   15.825127    ( 0.0000,  0.0000,  0.0000)
   6 Na     2.939032    0.062739   18.619817    ( 0.0000,  0.0000,  0.0000)
   7 Na     0.052030    2.052261   18.619817    ( 0.0000,  0.0000,  0.0000)
   8 Na     0.000000    4.230000   10.000000    ( 0.0000,  0.0000,  0.0000)
   9 Na     2.991062    6.345000   10.000000    ( 0.0000,  0.0000,  0.0000)
  10 Na     2.991062    4.230000   12.991062    ( 0.0000,  0.0000,  0.0000)
  11 Na     5.982123    6.345000   12.991062    ( 0.0000,  0.0000,  0.0000)
  12 Na    -0.021215    4.279109   15.874752    ( 0.0000,  0.0000,  0.0000)
  13 Na     3.012185    6.332386   16.001705    ( 0.0000,  0.0000,  0.0000)
  14 Na     2.932881    4.110902   18.977817    ( 0.0000,  0.0000,  0.0000)
  15 Na     0.019534    6.294120   18.885942    ( 0.0000,  0.0000,  0.0000)
  16 Na     0.000000    8.460000   10.000000    ( 0.0000,  0.0000,  0.0000)
  17 Na     2.991062   10.575000   10.000000    ( 0.0000,  0.0000,  0.0000)
  18 Na     2.991062    8.460000   12.991062    ( 0.0000,  0.0000,  0.0000)
  19 Na     5.982123   10.575000   12.991062    ( 0.0000,  0.0000,  0.0000)
  20 Na    -0.021123    8.472614   16.001705    ( 0.0000,  0.0000,  0.0000)
  21 Na     3.012276   10.525891   15.874752    ( 0.0000,  0.0000,  0.0000)
  22 Na     2.971528    8.510880   18.885942    ( 0.0000,  0.0000,  0.0000)
  23 Na     0.058180   10.694098   18.977817    ( 0.0000,  0.0000,  0.0000)
  24 Na     5.982123    0.000000   10.000000    ( 0.0000,  0.0000,  0.0000)
  25 Na     8.973185    2.115000   10.000000    ( 0.0000,  0.0000,  0.0000)
  26 Na     8.973185    0.000000   12.991062    ( 0.0000,  0.0000,  0.0000)
  27 Na    11.964247    2.115000   12.991062    ( 0.0000,  0.0000,  0.0000)
  28 Na     5.960102    0.000075   15.925136    ( 0.0000,  0.0000,  0.0000)
  29 Na     8.975910    2.114925   15.941585    ( 0.0000,  0.0000,  0.0000)
  30 Na     8.960699   -0.001098   18.866316    ( 0.0000,  0.0000,  0.0000)
  31 Na     5.911059    2.048186   18.958062    ( 0.0000,  0.0000,  0.0000)
  32 Na     5.982123    4.230000   10.000000    ( 0.0000,  0.0000,  0.0000)
  33 Na     8.973185    6.345000   10.000000    ( 0.0000,  0.0000,  0.0000)
  34 Na     8.973185    4.230000   12.991062    ( 0.0000,  0.0000,  0.0000)
  35 Na    11.964247    6.345000   12.991062    ( 0.0000,  0.0000,  0.0000)
  36 Na     6.005679    4.217466   15.974042    ( 0.0000,  0.0000,  0.0000)
  37 Na     8.971884    6.345272   15.938230    ( 0.0000,  0.0000,  0.0000)
  38 Na     8.948366    4.214682   18.864271    ( 0.0000,  0.0000,  0.0000)
  39 Na     5.937852    6.328625   18.864985    ( 0.0000,  0.0000,  0.0000)
  40 Na     5.982123    8.460000   10.000000    ( 0.0000,  0.0000,  0.0000)
  41 Na     8.973185   10.575000   10.000000    ( 0.0000,  0.0000,  0.0000)
  42 Na     8.973185    8.460000   12.991062    ( 0.0000,  0.0000,  0.0000)
  43 Na    11.964247   10.575000   12.991062    ( 0.0000,  0.0000,  0.0000)
  44 Na     6.002060    8.472351   15.971348    ( 0.0000,  0.0000,  0.0000)
  45 Na     8.975862   10.574806   15.940987    ( 0.0000,  0.0000,  0.0000)
  46 Na     8.948328    8.476403   18.867651    ( 0.0000,  0.0000,  0.0000)
  47 Na     5.899627   10.658259   18.954746    ( 0.0000,  0.0000,  0.0000)
  48 Na    11.964247    0.000000   10.000000    ( 0.0000,  0.0000,  0.0000)
  49 Na    14.955308    2.115000   10.000000    ( 0.0000,  0.0000,  0.0000)
  50 Na    14.955308    0.000000   12.991062    ( 0.0000,  0.0000,  0.0000)
  51 Na    17.946370    2.115000   12.991062    ( 0.0000,  0.0000,  0.0000)
  52 Na    11.961522    0.000075   15.941585    ( 0.0000,  0.0000,  0.0000)
  53 Na    14.977330    2.114925   15.925136    ( 0.0000,  0.0000,  0.0000)
  54 Na    15.026373    0.066814   18.958062    ( 0.0000,  0.0000,  0.0000)
  55 Na    11.976733    2.116098   18.866316    ( 0.0000,  0.0000,  0.0000)
  56 Na    11.964247    4.230000   10.000000    ( 0.0000,  0.0000,  0.0000)
  57 Na    14.955308    6.345000   10.000000    ( 0.0000,  0.0000,  0.0000)
  58 Na    14.955308    4.230000   12.991062    ( 0.0000,  0.0000,  0.0000)
  59 Na    17.946370    6.345000   12.991062    ( 0.0000,  0.0000,  0.0000)
  60 Na    11.961570    4.230194   15.940987    ( 0.0000,  0.0000,  0.0000)
  61 Na    14.935372    6.332649   15.971348    ( 0.0000,  0.0000,  0.0000)
  62 Na    15.037805    4.146741   18.954746    ( 0.0000,  0.0000,  0.0000)
  63 Na    11.989104    6.328597   18.867651    ( 0.0000,  0.0000,  0.0000)
  64 Na    11.964247    8.460000   10.000000    ( 0.0000,  0.0000,  0.0000)
  65 Na    14.955308   10.575000   10.000000    ( 0.0000,  0.0000,  0.0000)
  66 Na    14.955308    8.460000   12.991062    ( 0.0000,  0.0000,  0.0000)
  67 Na    17.946370   10.575000   12.991062    ( 0.0000,  0.0000,  0.0000)
  68 Na    11.965548    8.459728   15.938230    ( 0.0000,  0.0000,  0.0000)
  69 Na    14.931752   10.587534   15.974042    ( 0.0000,  0.0000,  0.0000)
  70 Na    14.999580    8.476375   18.864985    ( 0.0000,  0.0000,  0.0000)
  71 Na    11.989066   10.590318   18.864271    ( 0.0000,  0.0000,  0.0000)
  72 Na     1.495531    1.057500   21.348697    ( 0.0000,  0.0000,  0.0000)

Unit cell:
           periodic     x           y           z      points  spacing
  1. axis:    yes   17.946370    0.000000    0.000000    60     0.2991
  2. axis:    yes    0.000000   12.690000    0.000000    42     0.3021
  3. axis:    no     0.000000    0.000000   28.973185    96     0.3018

  Lengths:  17.946370  12.690000  28.973185
  Angles:   90.000000  90.000000  90.000000

Effective grid spacing dv^(1/3) = 0.3010

     iter     time        total  log10-change:
                         energy   eigst   dens
iter:   1 07:25:31   -80.294381   -5.89c
iter:   2 07:25:57   -80.293727   -6.73c -3.24
iter:   3 07:26:22   -80.293808c  -7.36c -3.57
iter:   4 07:26:47   -80.294083c  -7.44c -3.93
iter:   5 07:27:12   -80.294099c  -7.77c -4.20c

Converged after 5 iterations.

Dipole moment: (-6.128382, -4.331247, 0.298643) |e|*Ang

Energy contributions relative to reference atoms: (reference = -322558.566329)

Kinetic:       +157.934439
Potential:     -142.077858
External:        +0.000000
XC:             -98.776355
Entropy (-ST):   -1.343964
Local:           +3.297658
SIC:             +0.000000
--------------------------
Free energy:    -80.966081
Extrapolated:   -80.294099

Showing all kpts
 Kpt  Band  Eigenvalues  Occupancy
  0   253     -1.59246    1.47670
  0   254     -1.58188    1.43484
  0   255     -1.56706    1.37284
  0   256     -1.43075    0.71801

  1   253     -1.59673    1.49303
  1   254     -1.57991    1.42681
  1   255     -1.56637    1.36987
  1   256     -1.43052    0.71696


Fermi level: -1.48872

Gap: 0.136 eV
Transition (v -> c):
  (s=0, k=1, n=255, [0.25, 0.25, 0.00]) -> (s=0, k=0, n=256, [0.25, -0.25, 0.00])
Direct/indirect transitions are different
Direct gap: 0.136 eV
Transition at: (s=0, k=1, n=255, [0.25, 0.25, 0.00])

Forces in eV/Ang:
  0 Na    0.00205    0.00069    0.02236
  1 Na   -0.00205   -0.00069    0.02236
  2 Na   -0.00001   -0.00581   -0.03239
  3 Na   -0.00236    0.00590   -0.01653
  4 Na   -0.00812   -0.00451    0.00900
  5 Na    0.00812    0.00451    0.00900
  6 Na    0.10723   -0.07804   -0.08432
  7 Na   -0.10723    0.07804   -0.08432
  8 Na    0.00236   -0.00470    0.02424
  9 Na   -0.00119   -0.00374    0.02686
 10 Na   -0.00038    0.02331   -0.03968
 11 Na    0.00168   -0.00277    0.00339
 12 Na    0.00696   -0.00367    0.00049
 13 Na   -0.00859   -0.00947   -0.01059
 14 Na    0.01363    0.00325   -0.00235
 15 Na    0.00568    0.00827   -0.00735
 16 Na    0.00119    0.00374    0.02686
 17 Na   -0.00236    0.00470    0.02424
 18 Na   -0.00351   -0.01527   -0.01605
 19 Na    0.00049   -0.00339   -0.01579
 20 Na    0.00859    0.00947   -0.01059
 21 Na   -0.00696    0.00367    0.00049
 22 Na   -0.00568   -0.00827   -0.00735
 23 Na   -0.01363   -0.00325   -0.00235
 24 Na   -0.00344    0.00105    0.02489
 25 Na    0.00130   -0.00114    0.02808
 26 Na    0.00082   -0.00019   -0.01377
 27 Na   -0.00082    0.00019   -0.01377
 28 Na    0.00040    0.00794    0.01355
 29 Na    0.00091   -0.00742   -0.00799
 30 Na    0.00294   -0.00070   -0.00723
 31 Na    0.01057    0.01595   -0.00705
 32 Na   -0.00242   -0.00230    0.02677
 33 Na    0.00137    0.00025    0.02918
 34 Na    0.00180    0.00119   -0.01376
 35 Na   -0.00324    0.00093   -0.01378
 36 Na   -0.01222   -0.01433   -0.00656
 37 Na    0.00496    0.00102   -0.00267
 38 Na   -0.00224    0.00032   -0.00413
 39 Na   -0.00642   -0.00056    0.00491
 40 Na    0.00043    0.00106    0.02963
 41 Na    0.00121    0.00081    0.02873
 42 Na    0.00324   -0.00093   -0.01378
 43 Na   -0.00180   -0.00119   -0.01376
 44 Na   -0.00186    0.00468   -0.00040
 45 Na    0.00056    0.00644   -0.00779
 46 Na   -0.00238    0.00019   -0.00517
 47 Na    0.02010   -0.01507   -0.02482
 48 Na   -0.00130    0.00114    0.02808
 49 Na    0.00344   -0.00105    0.02489
 50 Na    0.00236   -0.00590   -0.01653
 51 Na    0.00001    0.00581   -0.03239
 52 Na   -0.00091    0.00742   -0.00799
 53 Na   -0.00040   -0.00794    0.01355
 54 Na   -0.01057   -0.01595   -0.00705
 55 Na   -0.00294    0.00070   -0.00723
 56 Na   -0.00121   -0.00081    0.02873
 57 Na   -0.00043   -0.00106    0.02963
 58 Na   -0.00049    0.00339   -0.01579
 59 Na    0.00351    0.01527   -0.01605
 60 Na   -0.00056   -0.00644   -0.00779
 61 Na    0.00186   -0.00468   -0.00040
 62 Na   -0.02010    0.01507   -0.02482
 63 Na    0.00238   -0.00019   -0.00517
 64 Na   -0.00137   -0.00025    0.02918
 65 Na    0.00242    0.00230    0.02677
 66 Na   -0.00168    0.00277    0.00339
 67 Na    0.00038   -0.02331   -0.03968
 68 Na   -0.00496   -0.00102   -0.00267
 69 Na    0.01222    0.01433   -0.00656
 70 Na    0.00642    0.00056    0.00491
 71 Na    0.00224   -0.00032   -0.00413
 72 Na   -0.00000    0.00000    0.13035

System changes: positions 

Initializing position-dependent things.

Density initialized from wave functions
         .-------------------------------------------.  
        /|                                           |  
       / |                                           |  
      /  |                                           |  
     /   |                                           |  
    /    |                                           |  
   /     |                                           |  
  /      |                                           |  
 *       |                                           |  
 |       |                                           |  
 |       |                                           |  
 |       |                                           |  
 |       |                                           |  
 |       |                     Na                    |  
 |      Na            Na             Na              |  
 |       |    Na            Na             Na        |  
 |       Na                                          |  
 |   Na  |          Na            Na        Na       |  
 |       | Na  Na         Na  Na        Na           |  
 |       |       Na  Na         Na  Na            Na |  
 |Na     |  Na             Na         Na  Na         |  
 |      Na        Na  Na             Na              |  
 |       |                       Na             Na   |  
 |       |Na  Na        Na  Na         Na  Na        |  
 |   Na  |      Na  Na        Na  Na                 |  
 |       | Na  Na         Na  Na        Na  Na       |  
 |    Na |           Na             Na               |  
 |Na     |       Na             Na                   |  
 |      Na  Na         Na  Na         Na  Na         |  
 |  Na   |        Na             Na                  |  
 |       |Na            Na             Na            |  
 |       |                                           |  
 Na      |      Na            Na                     |  
 |       |                                           |  
 |       |                                           |  
 |       |                                           |  
 |       .-------------------------------------------.  
 |      /                                           /   
 |     /                                           /    
 |    /                                           /     
 |   /                                           /      
 |  /                                           /       
 | /                                           /        
 |/                                           /         
 *-------------------------------------------*          

Atomic positions and initial magnetic moments

Positions:
   0 Na     0.000000    0.000000   10.000000    ( 0.0000,  0.0000,  0.0000)
   1 Na     2.991062    2.115000   10.000000    ( 0.0000,  0.0000,  0.0000)
   2 Na     2.991062    0.000000   12.991062    ( 0.0000,  0.0000,  0.0000)
   3 Na     5.982123    2.115000   12.991062    ( 0.0000,  0.0000,  0.0000)
   4 Na     0.023918   -0.061878   15.825494    ( 0.0000,  0.0000,  0.0000)
   5 Na     2.967144    2.176879   15.825493    ( 0.0000,  0.0000,  0.0000)
   6 Na     2.943596    0.059436   18.616175    ( 0.0000,  0.0000,  0.0000)
   7 Na     0.047466    2.055563   18.616179    ( 0.0000,  0.0000,  0.0000)
   8 Na     0.000000    4.230000   10.000000    ( 0.0000,  0.0000,  0.0000)
   9 Na     2.991062    6.345000   10.000000    ( 0.0000,  0.0000,  0.0000)
  10 Na     2.991062    4.230000   12.991062    ( 0.0000,  0.0000,  0.0000)
  11 Na     5.982123    6.345000   12.991062    ( 0.0000,  0.0000,  0.0000)
  12 Na    -0.020931    4.278947   15.874793    ( 0.0000,  0.0000,  0.0000)
  13 Na     3.011834    6.332009   16.001268    ( 0.0000,  0.0000,  0.0000)
  14 Na     2.933456    4.111033   18.977718    ( 0.0000,  0.0000,  0.0000)
  15 Na     0.019764    6.294486   18.885641    ( 0.0000,  0.0000,  0.0000)
  16 Na     0.000000    8.460000   10.000000    ( 0.0000,  0.0000,  0.0000)
  17 Na     2.991062   10.575000   10.000000    ( 0.0000,  0.0000,  0.0000)
  18 Na     2.991062    8.460000   12.991062    ( 0.0000,  0.0000,  0.0000)
  19 Na     5.982123   10.575000   12.991062    ( 0.0000,  0.0000,  0.0000)
  20 Na    -0.020773    8.472991   16.001268    ( 0.0000,  0.0000,  0.0000)
  21 Na     3.011993   10.526052   15.874792    ( 0.0000,  0.0000,  0.0000)
  22 Na     2.971298    8.510514   18.885641    ( 0.0000,  0.0000,  0.0000)
  23 Na     0.057606   10.693967   18.977719    ( 0.0000,  0.0000,  0.0000)
  24 Na     5.982123    0.000000   10.000000    ( 0.0000,  0.0000,  0.0000)
  25 Na     8.973185    2.115000   10.000000    ( 0.0000,  0.0000,  0.0000)
  26 Na     8.973185    0.000000   12.991062    ( 0.0000,  0.0000,  0.0000)
  27 Na    11.964247    2.115000   12.991062    ( 0.0000,  0.0000,  0.0000)
  28 Na     5.960144    0.000398   15.925675    ( 0.0000,  0.0000,  0.0000)
  29 Na     8.975949    2.114607   15.941270    ( 0.0000,  0.0000,  0.0000)
  30 Na     8.960825   -0.001125   18.866018    ( 0.0000,  0.0000,  0.0000)
  31 Na     5.911504    2.048839   18.957769    ( 0.0000,  0.0000,  0.0000)
  32 Na     5.982123    4.230000   10.000000    ( 0.0000,  0.0000,  0.0000)
  33 Na     8.973185    6.345000   10.000000    ( 0.0000,  0.0000,  0.0000)
  34 Na     8.973185    4.230000   12.991062    ( 0.0000,  0.0000,  0.0000)
  35 Na    11.964247    6.345000   12.991062    ( 0.0000,  0.0000,  0.0000)
  36 Na     6.005177    4.216875   15.973769    ( 0.0000,  0.0000,  0.0000)
  37 Na     8.972076    6.345309   15.938143    ( 0.0000,  0.0000,  0.0000)
  38 Na     8.948276    4.214686   18.864102    ( 0.0000,  0.0000,  0.0000)
  39 Na     5.937587    6.328616   18.865181    ( 0.0000,  0.0000,  0.0000)
  40 Na     5.982123    8.460000   10.000000    ( 0.0000,  0.0000,  0.0000)
  41 Na     8.973185   10.575000   10.000000    ( 0.0000,  0.0000,  0.0000)
  42 Na     8.973185    8.460000   12.991062    ( 0.0000,  0.0000,  0.0000)
  43 Na    11.964247   10.575000   12.991062    ( 0.0000,  0.0000,  0.0000)
  44 Na     6.001975    8.472547   15.971338    ( 0.0000,  0.0000,  0.0000)
  45 Na     8.975875   10.575088   15.940682    ( 0.0000,  0.0000,  0.0000)
  46 Na     8.948219    8.476419   18.867447    ( 0.0000,  0.0000,  0.0000)
  47 Na     5.900450   10.657647   18.953731    ( 0.0000,  0.0000,  0.0000)
  48 Na    11.964247    0.000000   10.000000    ( 0.0000,  0.0000,  0.0000)
  49 Na    14.955308    2.115000   10.000000    ( 0.0000,  0.0000,  0.0000)
  50 Na    14.955308    0.000000   12.991062    ( 0.0000,  0.0000,  0.0000)
  51 Na    17.946370    2.115000   12.991062    ( 0.0000,  0.0000,  0.0000)
  52 Na    11.961483    0.000393   15.941270    ( 0.0000,  0.0000,  0.0000)
  53 Na    14.977287    2.114602   15.925676    ( 0.0000,  0.0000,  0.0000)
  54 Na    15.025927    0.066160   18.957768    ( 0.0000,  0.0000,  0.0000)
  55 Na    11.976606    2.116125   18.866018    ( 0.0000,  0.0000,  0.0000)
  56 Na    11.964247    4.230000   10.000000    ( 0.0000,  0.0000,  0.0000)
  57 Na    14.955308    6.345000   10.000000    ( 0.0000,  0.0000,  0.0000)
  58 Na    14.955308    4.230000   12.991062    ( 0.0000,  0.0000,  0.0000)
  59 Na    17.946370    6.345000   12.991062    ( 0.0000,  0.0000,  0.0000)
  60 Na    11.961557    4.229912   15.940682    ( 0.0000,  0.0000,  0.0000)
  61 Na    14.935457    6.332453   15.971337    ( 0.0000,  0.0000,  0.0000)
  62 Na    15.036982    4.147353   18.953730    ( 0.0000,  0.0000,  0.0000)
  63 Na    11.989213    6.328582   18.867447    ( 0.0000,  0.0000,  0.0000)
  64 Na    11.964247    8.460000   10.000000    ( 0.0000,  0.0000,  0.0000)
  65 Na    14.955308   10.575000   10.000000    ( 0.0000,  0.0000,  0.0000)
  66 Na    14.955308    8.460000   12.991062    ( 0.0000,  0.0000,  0.0000)
  67 Na    17.946370   10.575000   12.991062    ( 0.0000,  0.0000,  0.0000)
  68 Na    11.965356    8.459691   15.938143    ( 0.0000,  0.0000,  0.0000)
  69 Na    14.932255   10.588125   15.973768    ( 0.0000,  0.0000,  0.0000)
  70 Na    14.999845    8.476385   18.865181    ( 0.0000,  0.0000,  0.0000)
  71 Na    11.989156   10.590314   18.864102    ( 0.0000,  0.0000,  0.0000)
  72 Na     1.495538    1.057495   21.354329    ( 0.0000,  0.0000,  0.0000)

Unit cell:
           periodic     x           y           z      points  spacing
  1. axis:    yes   17.946370    0.000000    0.000000    60     0.2991
  2. axis:    yes    0.000000   12.690000    0.000000    42     0.3021
  3. axis:    no     0.000000    0.000000   28.973185    96     0.3018

  Lengths:  17.946370  12.690000  28.973185
  Angles:   90.000000  90.000000  90.000000

Effective grid spacing dv^(1/3) = 0.3010

     iter     time        total  log10-change:
                         energy   eigst   dens
iter:   1 07:36:32   -80.297219   -5.63c
iter:   2 07:36:57   -80.296699   -6.64c -3.25
iter:   3 07:37:21   -80.296863c  -7.06c -3.48
iter:   4 07:37:45   -80.297164c  -7.11c -3.86
iter:   5 07:38:08   -80.297084c  -7.44c -4.09c

Converged after 5 iterations.

Dipole moment: (-5.979190, -4.246599, 0.298051) |e|*Ang

Energy contributions relative to reference atoms: (reference = -322558.566329)

Kinetic:       +158.005541
Potential:     -142.145684
External:        +0.000000
XC:             -98.783069
Entropy (-ST):   -1.343935
Local:           +3.298095
SIC:             +0.000000
--------------------------
Free energy:    -80.969052
Extrapolated:   -80.297084

Showing all kpts
 Kpt  Band  Eigenvalues  Occupancy
  0   253     -1.59222    1.47659
  0   254     -1.58169    1.43491
  0   255     -1.56684    1.37281
  0   256     -1.43058    0.71825

  1   253     -1.59646    1.49284
  1   254     -1.57974    1.42699
  1   255     -1.56617    1.36994
  1   256     -1.43031    0.71697


Fermi level: -1.48850

Gap: 0.136 eV
Transition (v -> c):
  (s=0, k=1, n=255, [0.25, 0.25, 0.00]) -> (s=0, k=0, n=256, [0.25, -0.25, 0.00])
Direct/indirect transitions are different
Direct gap: 0.136 eV
Transition at: (s=0, k=1, n=255, [0.25, 0.25, 0.00])

Forces in eV/Ang:
  0 Na    0.00207    0.00086    0.02351
  1 Na   -0.00207   -0.00086    0.02351
  2 Na    0.00012   -0.00560   -0.03311
  3 Na   -0.00238    0.00586   -0.01701
  4 Na   -0.00786   -0.00442    0.00874
  5 Na    0.00786    0.00442    0.00874
  6 Na    0.09997   -0.07342   -0.07728
  7 Na   -0.09997    0.07342   -0.07728
  8 Na    0.00221   -0.00503    0.02530
  9 Na   -0.00089   -0.00390    0.02782
 10 Na   -0.00006    0.02306   -0.04038
 11 Na    0.00177   -0.00282    0.00297
 12 Na    0.00655   -0.00308   -0.00027
 13 Na   -0.00806   -0.00955   -0.01019
 14 Na    0.01296    0.00341   -0.00225
 15 Na    0.00555    0.00768   -0.00684
 16 Na    0.00089    0.00390    0.02782
 17 Na   -0.00221    0.00503    0.02530
 18 Na   -0.00327   -0.01525   -0.01666
 19 Na    0.00060   -0.00329   -0.01627
 20 Na    0.00806    0.00955   -0.01019
 21 Na   -0.00655    0.00308   -0.00027
 22 Na   -0.00555   -0.00768   -0.00684
 23 Na   -0.01296   -0.00341   -0.00225
 24 Na   -0.00362    0.00098    0.02590
 25 Na    0.00113   -0.00074    0.02864
 26 Na    0.00066   -0.00018   -0.01385
 27 Na   -0.00066    0.00018   -0.01385
 28 Na    0.00025    0.00788    0.01322
 29 Na    0.00097   -0.00726   -0.00798
 30 Na    0.00296   -0.00056   -0.00715
 31 Na    0.01056    0.01588   -0.00685
 32 Na   -0.00219   -0.00214    0.02767
 33 Na    0.00169    0.00060    0.02944
 34 Na    0.00160    0.00124   -0.01406
 35 Na   -0.00310    0.00097   -0.01439
 36 Na   -0.01174   -0.01390   -0.00634
 37 Na    0.00460    0.00086   -0.00275
 38 Na   -0.00228    0.00031   -0.00405
 39 Na   -0.00640   -0.00087    0.00501
 40 Na    0.00101    0.00098    0.03036
 41 Na    0.00132    0.00006    0.02913
 42 Na    0.00310   -0.00097   -0.01439
 43 Na   -0.00160   -0.00124   -0.01406
 44 Na   -0.00171    0.00442   -0.00058
 45 Na    0.00055    0.00645   -0.00770
 46 Na   -0.00225    0.00009   -0.00510
 47 Na    0.02005   -0.01538   -0.02424
 48 Na   -0.00113    0.00074    0.02864
 49 Na    0.00362   -0.00098    0.02590
 50 Na    0.00238   -0.00586   -0.01701
 51 Na   -0.00012    0.00560   -0.03311
 52 Na   -0.00097    0.00726   -0.00798
 53 Na   -0.00025   -0.00788    0.01322
 54 Na   -0.01056   -0.01588   -0.00685
 55 Na   -0.00296    0.00056   -0.00715
 56 Na   -0.00132   -0.00006    0.02913
 57 Na   -0.00101   -0.00098    0.03036
 58 Na   -0.00060    0.00329   -0.01627
 59 Na    0.00327    0.01525   -0.01666
 60 Na   -0.00055   -0.00645   -0.00770
 61 Na    0.00171   -0.00442   -0.00058
 62 Na   -0.02005    0.01538   -0.02424
 63 Na    0.00225   -0.00009   -0.00510
 64 Na   -0.00169   -0.00060    0.02944
 65 Na    0.00219    0.00214    0.02767
 66 Na   -0.00177    0.00282    0.00297
 67 Na    0.00006   -0.02306   -0.04038
 68 Na   -0.00460   -0.00086   -0.00275
 69 Na    0.01174    0.01391   -0.00634
 70 Na    0.00640    0.00087    0.00501
 71 Na    0.00228   -0.00031   -0.00405
 72 Na    0.00000   -0.00000    0.11929

System changes: positions 

Initializing position-dependent things.

Density initialized from wave functions
         .-------------------------------------------.  
        /|                                           |  
       / |                                           |  
      /  |                                           |  
     /   |                                           |  
    /    |                                           |  
   /     |                                           |  
  /      |                                           |  
 *       |                                           |  
 |       |                                           |  
 |       |                                           |  
 |       |                                           |  
 |       |                                           |  
 |       |                     Na                    |  
 |      Na            Na             Na              |  
 |       |    Na            Na             Na        |  
 |       Na                                          |  
 |   Na  |          Na            Na        Na       |  
 |       | Na  Na         Na  Na        Na           |  
 |       |       Na  Na         Na  Na            Na |  
 |Na     |  Na             Na         Na  Na         |  
 |      Na        Na  Na             Na              |  
 |       |                       Na             Na   |  
 |       |Na  Na        Na  Na         Na  Na        |  
 |   Na  |      Na  Na        Na  Na                 |  
 |       | Na  Na         Na  Na        Na  Na       |  
 |    Na |           Na             Na               |  
 |Na     |       Na             Na                   |  
 |      Na  Na         Na  Na         Na  Na         |  
 |  Na   |        Na             Na                  |  
 |       |Na            Na             Na            |  
 |       |                                           |  
 Na      |      Na            Na                     |  
 |       |                                           |  
 |       |                                           |  
 |       |                                           |  
 |       .-------------------------------------------.  
 |      /                                           /   
 |     /                                           /    
 |    /                                           /     
 |   /                                           /      
 |  /                                           /       
 | /                                           /        
 |/                                           /         
 *-------------------------------------------*          

Atomic positions and initial magnetic moments

Positions:
   0 Na     0.000000    0.000000   10.000000    ( 0.0000,  0.0000,  0.0000)
   1 Na     2.991062    2.115000   10.000000    ( 0.0000,  0.0000,  0.0000)
   2 Na     2.991062    0.000000   12.991062    ( 0.0000,  0.0000,  0.0000)
   3 Na     5.982123    2.115000   12.991062    ( 0.0000,  0.0000,  0.0000)
   4 Na     0.023494   -0.062109   15.825950    ( 0.0000,  0.0000,  0.0000)
   5 Na     2.967568    2.177109   15.825950    ( 0.0000,  0.0000,  0.0000)
   6 Na     2.949163    0.055392   18.611773    ( 0.0000,  0.0000,  0.0000)
   7 Na     0.041899    2.059607   18.611774    ( 0.0000,  0.0000,  0.0000)
   8 Na     0.000000    4.230000   10.000000    ( 0.0000,  0.0000,  0.0000)
   9 Na     2.991062    6.345000   10.000000    ( 0.0000,  0.0000,  0.0000)
  10 Na     2.991062    4.230000   12.991062    ( 0.0000,  0.0000,  0.0000)
  11 Na     5.982123    6.345000   12.991062    ( 0.0000,  0.0000,  0.0000)
  12 Na    -0.020581    4.278757   15.874825    ( 0.0000,  0.0000,  0.0000)
  13 Na     3.011402    6.331530   16.000726    ( 0.0000,  0.0000,  0.0000)
  14 Na     2.934162    4.111200   18.977597    ( 0.0000,  0.0000,  0.0000)
  15 Na     0.020051    6.294928   18.885270    ( 0.0000,  0.0000,  0.0000)
  16 Na     0.000000    8.460000   10.000000    ( 0.0000,  0.0000,  0.0000)
  17 Na     2.991062   10.575000   10.000000    ( 0.0000,  0.0000,  0.0000)
  18 Na     2.991062    8.460000   12.991062    ( 0.0000,  0.0000,  0.0000)
  19 Na     5.982123   10.575000   12.991062    ( 0.0000,  0.0000,  0.0000)
  20 Na    -0.020340    8.473470   16.000726    ( 0.0000,  0.0000,  0.0000)
  21 Na     3.011642   10.526243   15.874824    ( 0.0000,  0.0000,  0.0000)
  22 Na     2.971011    8.510072   18.885270    ( 0.0000,  0.0000,  0.0000)
  23 Na     0.056900   10.693800   18.977597    ( 0.0000,  0.0000,  0.0000)
  24 Na     5.982123    0.000000   10.000000    ( 0.0000,  0.0000,  0.0000)
  25 Na     8.973185    2.115000   10.000000    ( 0.0000,  0.0000,  0.0000)
  26 Na     8.973185    0.000000   12.991062    ( 0.0000,  0.0000,  0.0000)
  27 Na    11.964247    2.115000   12.991062    ( 0.0000,  0.0000,  0.0000)
  28 Na     5.960186    0.000804   15.926354    ( 0.0000,  0.0000,  0.0000)
  29 Na     8.975998    2.114216   15.940869    ( 0.0000,  0.0000,  0.0000)
  30 Na     8.960983   -0.001158   18.865646    ( 0.0000,  0.0000,  0.0000)
  31 Na     5.912059    2.049660   18.957404    ( 0.0000,  0.0000,  0.0000)
  32 Na     5.982123    4.230000   10.000000    ( 0.0000,  0.0000,  0.0000)
  33 Na     8.973185    6.345000   10.000000    ( 0.0000,  0.0000,  0.0000)
  34 Na     8.973185    4.230000   12.991062    ( 0.0000,  0.0000,  0.0000)
  35 Na    11.964247    6.345000   12.991062    ( 0.0000,  0.0000,  0.0000)
  36 Na     6.004553    4.216141   15.973430    ( 0.0000,  0.0000,  0.0000)
  37 Na     8.972316    6.345356   15.938025    ( 0.0000,  0.0000,  0.0000)
  38 Na     8.948161    4.214694   18.863891    ( 0.0000,  0.0000,  0.0000)
  39 Na     5.937255    6.328595   18.865431    ( 0.0000,  0.0000,  0.0000)
  40 Na     5.982123    8.460000   10.000000    ( 0.0000,  0.0000,  0.0000)
  41 Na     8.973185   10.575000   10.000000    ( 0.0000,  0.0000,  0.0000)
  42 Na     8.973185    8.460000   12.991062    ( 0.0000,  0.0000,  0.0000)
  43 Na    11.964247   10.575000   12.991062    ( 0.0000,  0.0000,  0.0000)
  44 Na     6.001874    8.472789   15.971320    ( 0.0000,  0.0000,  0.0000)
  45 Na     8.975895   10.575436   15.940294    ( 0.0000,  0.0000,  0.0000)
  46 Na     8.948088    8.476434   18.867189    ( 0.0000,  0.0000,  0.0000)
  47 Na     5.901483   10.656871   18.952463    ( 0.0000,  0.0000,  0.0000)
  48 Na    11.964247    0.000000   10.000000    ( 0.0000,  0.0000,  0.0000)
  49 Na    14.955308    2.115000   10.000000    ( 0.0000,  0.0000,  0.0000)
  50 Na    14.955308    0.000000   12.991062    ( 0.0000,  0.0000,  0.0000)
  51 Na    17.946370    2.115000   12.991062    ( 0.0000,  0.0000,  0.0000)
  52 Na    11.961434    0.000784   15.940869    ( 0.0000,  0.0000,  0.0000)
  53 Na    14.977246    2.114196   15.926355    ( 0.0000,  0.0000,  0.0000)
  54 Na    15.025372    0.065340   18.957404    ( 0.0000,  0.0000,  0.0000)
  55 Na    11.976449    2.116158   18.865646    ( 0.0000,  0.0000,  0.0000)
  56 Na    11.964247    4.230000   10.000000    ( 0.0000,  0.0000,  0.0000)
  57 Na    14.955308    6.345000   10.000000    ( 0.0000,  0.0000,  0.0000)
  58 Na    14.955308    4.230000   12.991062    ( 0.0000,  0.0000,  0.0000)
  59 Na    17.946370    6.345000   12.991062    ( 0.0000,  0.0000,  0.0000)
  60 Na    11.961537    4.229564   15.940294    ( 0.0000,  0.0000,  0.0000)
  61 Na    14.935558    6.332211   15.971320    ( 0.0000,  0.0000,  0.0000)
  62 Na    15.035948    4.148129   18.952462    ( 0.0000,  0.0000,  0.0000)
  63 Na    11.989344    6.328566   18.867189    ( 0.0000,  0.0000,  0.0000)
  64 Na    11.964247    8.460000   10.000000    ( 0.0000,  0.0000,  0.0000)
  65 Na    14.955308   10.575000   10.000000    ( 0.0000,  0.0000,  0.0000)
  66 Na    14.955308    8.460000   12.991062    ( 0.0000,  0.0000,  0.0000)
  67 Na    17.946370   10.575000   12.991062    ( 0.0000,  0.0000,  0.0000)
  68 Na    11.965116    8.459644   15.938025    ( 0.0000,  0.0000,  0.0000)
  69 Na    14.932879   10.588859   15.973430    ( 0.0000,  0.0000,  0.0000)
  70 Na    15.000177    8.476405   18.865431    ( 0.0000,  0.0000,  0.0000)
  71 Na    11.989270   10.590306   18.863891    ( 0.0000,  0.0000,  0.0000)
  72 Na     1.495532    1.057499   21.361139    ( 0.0000,  0.0000,  0.0000)

Unit cell:
           periodic     x           y           z      points  spacing
  1. axis:    yes   17.946370    0.000000    0.000000    60     0.2991
  2. axis:    yes    0.000000   12.690000    0.000000    42     0.3021
  3. axis:    no     0.000000    0.000000   28.973185    96     0.3018

  Lengths:  17.946370  12.690000  28.973185
  Angles:   90.000000  90.000000  90.000000

Effective grid spacing dv^(1/3) = 0.3010

     iter     time        total  log10-change:
                         energy   eigst   dens
iter:   1 07:48:20   -80.301045   -5.47c
iter:   2 07:48:44   -80.300154   -6.48c -3.19
iter:   3 07:49:08   -80.300249c  -6.89c -3.42
iter:   4 07:49:32   -80.300551c  -6.93c -3.78
iter:   5 07:49:56   -80.300425c  -7.27c -3.98
iter:   6 07:50:20   -80.300367c  -7.61c -4.27c

Converged after 6 iterations.

Dipole moment: (-5.788984, -4.140559, 0.298757) |e|*Ang

Energy contributions relative to reference atoms: (reference = -322558.566329)

Kinetic:       +157.942347
Potential:     -142.095538
External:        +0.000000
XC:             -98.773308
Entropy (-ST):   -1.343978
Local:           +3.298121
SIC:             +0.000000
--------------------------
Free energy:    -80.972356
Extrapolated:   -80.300367

Showing all kpts
 Kpt  Band  Eigenvalues  Occupancy
  0   253     -1.59197    1.47667
  0   254     -1.58161    1.43567
  0   255     -1.56656    1.37275
  0   256     -1.43032    0.71823

  1   253     -1.59615    1.49265
  1   254     -1.57971    1.42793
  1   255     -1.56589    1.36987
  1   256     -1.42997    0.71664


Fermi level: -1.48824

Gap: 0.136 eV
Transition (v -> c):
  (s=0, k=1, n=255, [0.25, 0.25, 0.00]) -> (s=0, k=0, n=256, [0.25, -0.25, 0.00])
Direct/indirect transitions are different
Direct gap: 0.136 eV
Transition at: (s=0, k=1, n=255, [0.25, 0.25, 0.00])

Forces in eV/Ang:
  0 Na    0.00228    0.00082    0.02371
  1 Na   -0.00228   -0.00082    0.02371
  2 Na   -0.00016   -0.00557   -0.03278
  3 Na   -0.00256    0.00581   -0.01685
[...]
 20 Na    0.00667    0.00892   -0.01039
 21 Na   -0.00601   -0.00059   -0.00631
 22 Na   -0.00484   -0.00574   -0.00684
 23 Na   -0.00890    0.00035   -0.00155
 24 Na   -0.00424    0.00088    0.02632
 25 Na    0.00090   -0.00080    0.02920
 26 Na    0.00082   -0.00036   -0.01394
 27 Na   -0.00082    0.00036   -0.01394
 28 Na    0.00054    0.00718    0.00996
 29 Na    0.00103   -0.00546   -0.00774
 30 Na    0.00331   -0.00042   -0.00716
 31 Na    0.01027    0.01561   -0.00547
 32 Na   -0.00289   -0.00208    0.02831
 33 Na    0.00134    0.00055    0.03032
 34 Na    0.00158    0.00164   -0.01317
 35 Na   -0.00308    0.00120   -0.01325
 36 Na   -0.00944   -0.01114   -0.00611
 37 Na    0.00376    0.00059   -0.00329
 38 Na   -0.00159    0.00109   -0.00493
 39 Na   -0.00474   -0.00164    0.00359
 40 Na    0.00022    0.00105    0.03106
 41 Na    0.00098    0.00017    0.02984
 42 Na    0.00308   -0.00120   -0.01325
 43 Na   -0.00158   -0.00164   -0.01317
 44 Na   -0.00104    0.00259   -0.00219
 45 Na    0.00119    0.00484   -0.00765
 46 Na   -0.00065   -0.00078   -0.00618
 47 Na    0.02182   -0.01714   -0.02177
 48 Na   -0.00090    0.00080    0.02920
 49 Na    0.00424   -0.00088    0.02632
 50 Na    0.00253   -0.00574   -0.01705
 51 Na    0.00033    0.00533   -0.03250
 52 Na   -0.00103    0.00546   -0.00774
 53 Na   -0.00054   -0.00718    0.00996
 54 Na   -0.01027   -0.01562   -0.00547
 55 Na   -0.00331    0.00042   -0.00716
 56 Na   -0.00098   -0.00017    0.02984
 57 Na   -0.00022   -0.00105    0.03106
 58 Na   -0.00054    0.00340   -0.01585
 59 Na    0.00340    0.01535   -0.01683
 60 Na   -0.00119   -0.00484   -0.00765
 61 Na    0.00104   -0.00258   -0.00219
 62 Na   -0.02182    0.01714   -0.02177
 63 Na    0.00065    0.00078   -0.00618
 64 Na   -0.00134   -0.00055    0.03032
 65 Na    0.00289    0.00208    0.02831
 66 Na   -0.00170    0.00259    0.00372
 67 Na    0.00027   -0.02278   -0.04039
 68 Na   -0.00376   -0.00059   -0.00329
 69 Na    0.00944    0.01114   -0.00611
 70 Na    0.00474    0.00165    0.00359
 71 Na    0.00159   -0.00110   -0.00493
 72 Na   -0.00000    0.00000    0.07149

System changes: positions 

Initializing position-dependent things.

Density initialized from wave functions
         .-------------------------------------------.  
        /|                                           |  
       / |                                           |  
      /  |                                           |  
     /   |                                           |  
    /    |                                           |  
   /     |                                           |  
  /      |                                           |  
 *       |                                           |  
 |       |                                           |  
 |       |                                           |  
 |       |                                           |  
 |       |                                           |  
 |       |                     Na                    |  
 |      Na            Na             Na              |  
 |       |    Na            Na             Na        |  
 |       Na                                          |  
 |   Na  |          Na            Na        Na       |  
 |       | Na  Na         Na  Na        Na           |  
 |       |       Na  Na         Na  Na            Na |  
 |Na     |  Na             Na         Na  Na         |  
 |      Na        Na  Na             Na              |  
 |       |                       Na             Na   |  
 |       |Na  Na        Na  Na         Na  Na        |  
 |   Na  |      Na  Na        Na  Na                 |  
 |       | Na  Na         Na  Na        Na  Na       |  
 |    Na |           Na             Na               |  
 |Na     |       Na             Na                   |  
 |      Na  Na         Na  Na         Na  Na         |  
 |  Na   |        Na             Na                  |  
 |       |Na            Na             Na            |  
 |       |                                           |  
 Na      |      Na            Na                     |  
 |       |                                           |  
 |       |                                           |  
 |       |                                           |  
 |       .-------------------------------------------.  
 |      /                                           /   
 |     /                                           /    
 |    /                                           /     
 |   /                                           /      
 |  /                                           /       
 | /                                           /        
 |/                                           /         
 *-------------------------------------------*          

Atomic positions and initial magnetic moments

Positions:
   0 Na     0.000000    0.000000   10.000000    ( 0.0000,  0.0000,  0.0000)
   1 Na     2.991062    2.115000   10.000000    ( 0.0000,  0.0000,  0.0000)
   2 Na     2.991062    0.000000   12.991062    ( 0.0000,  0.0000,  0.0000)
   3 Na     5.982123    2.115000   12.991062    ( 0.0000,  0.0000,  0.0000)
   4 Na     0.021784   -0.063147   15.827922    ( 0.0000,  0.0000,  0.0000)
   5 Na     2.969278    2.178149   15.827919    ( 0.0000,  0.0000,  0.0000)
   6 Na     2.971671    0.038803   18.594387    ( 0.0000,  0.0000,  0.0000)
   7 Na     0.019394    2.076194   18.594403    ( 0.0000,  0.0000,  0.0000)
   8 Na     0.000000    4.230000   10.000000    ( 0.0000,  0.0000,  0.0000)
   9 Na     2.991062    6.345000   10.000000    ( 0.0000,  0.0000,  0.0000)
  10 Na     2.991062    4.230000   12.991062    ( 0.0000,  0.0000,  0.0000)
  11 Na     5.982123    6.345000   12.991062    ( 0.0000,  0.0000,  0.0000)
  12 Na    -0.019017    4.278180   15.874467    ( 0.0000,  0.0000,  0.0000)
  13 Na     3.009552    6.329358   15.998228    ( 0.0000,  0.0000,  0.0000)
  14 Na     2.937040    4.111671   18.977106    ( 0.0000,  0.0000,  0.0000)
  15 Na     0.021328    6.296735   18.883605    ( 0.0000,  0.0000,  0.0000)
  16 Na     0.000000    8.460000   10.000000    ( 0.0000,  0.0000,  0.0000)
  17 Na     2.991062   10.575000   10.000000    ( 0.0000,  0.0000,  0.0000)
  18 Na     2.991062    8.460000   12.991062    ( 0.0000,  0.0000,  0.0000)
  19 Na     5.982123   10.575000   12.991062    ( 0.0000,  0.0000,  0.0000)
  20 Na    -0.018491    8.475643   15.998228    ( 0.0000,  0.0000,  0.0000)
  21 Na     3.010078   10.526818   15.874463    ( 0.0000,  0.0000,  0.0000)
  22 Na     2.969734    8.508267   18.883606    ( 0.0000,  0.0000,  0.0000)
  23 Na     0.054024   10.693329   18.977108    ( 0.0000,  0.0000,  0.0000)
  24 Na     5.982123    0.000000   10.000000    ( 0.0000,  0.0000,  0.0000)
  25 Na     8.973185    2.115000   10.000000    ( 0.0000,  0.0000,  0.0000)
  26 Na     8.973185    0.000000   12.991062    ( 0.0000,  0.0000,  0.0000)
  27 Na    11.964247    2.115000   12.991062    ( 0.0000,  0.0000,  0.0000)
  28 Na     5.960351    0.002617   15.929215    ( 0.0000,  0.0000,  0.0000)
  29 Na     8.976238    2.112588   15.939021    ( 0.0000,  0.0000,  0.0000)
  30 Na     8.961740   -0.001294   18.863943    ( 0.0000,  0.0000,  0.0000)
  31 Na     5.914527    2.053400   18.955865    ( 0.0000,  0.0000,  0.0000)
  32 Na     5.982123    4.230000   10.000000    ( 0.0000,  0.0000,  0.0000)
  33 Na     8.973185    6.345000   10.000000    ( 0.0000,  0.0000,  0.0000)
  34 Na     8.973185    4.230000   12.991062    ( 0.0000,  0.0000,  0.0000)
  35 Na    11.964247    6.345000   12.991062    ( 0.0000,  0.0000,  0.0000)
  36 Na     6.001894    4.213014   15.971894    ( 0.0000,  0.0000,  0.0000)
  37 Na     8.973356    6.345550   15.937395    ( 0.0000,  0.0000,  0.0000)
  38 Na     8.947688    4.214807   18.862853    ( 0.0000,  0.0000,  0.0000)
  39 Na     5.935868    6.328400   18.866474    ( 0.0000,  0.0000,  0.0000)
  40 Na     5.982123    8.460000   10.000000    ( 0.0000,  0.0000,  0.0000)
  41 Na     8.973185   10.575000   10.000000    ( 0.0000,  0.0000,  0.0000)
  42 Na     8.973185    8.460000   12.991062    ( 0.0000,  0.0000,  0.0000)
  43 Na    11.964247   10.575000   12.991062    ( 0.0000,  0.0000,  0.0000)
  44 Na     6.001495    8.473725   15.971077    ( 0.0000,  0.0000,  0.0000)
  45 Na     8.976061   10.576876   15.938489    ( 0.0000,  0.0000,  0.0000)
  46 Na     8.947639    8.476418   18.865909    ( 0.0000,  0.0000,  0.0000)
  47 Na     5.906325   10.653184   18.946872    ( 0.0000,  0.0000,  0.0000)
  48 Na    11.964247    0.000000   10.000000    ( 0.0000,  0.0000,  0.0000)
  49 Na    14.955308    2.115000   10.000000    ( 0.0000,  0.0000,  0.0000)
  50 Na    14.955308    0.000000   12.991062    ( 0.0000,  0.0000,  0.0000)
  51 Na    17.946370    2.115000   12.991062    ( 0.0000,  0.0000,  0.0000)
  52 Na    11.961194    0.002412   15.939021    ( 0.0000,  0.0000,  0.0000)
  53 Na    14.977080    2.112383   15.929216    ( 0.0000,  0.0000,  0.0000)
  54 Na    15.022903    0.061597   18.955862    ( 0.0000,  0.0000,  0.0000)
  55 Na    11.975692    2.116294   18.863943    ( 0.0000,  0.0000,  0.0000)
  56 Na    11.964247    4.230000   10.000000    ( 0.0000,  0.0000,  0.0000)
  57 Na    14.955308    6.345000   10.000000    ( 0.0000,  0.0000,  0.0000)
  58 Na    14.955308    4.230000   12.991062    ( 0.0000,  0.0000,  0.0000)
  59 Na    17.946370    6.345000   12.991062    ( 0.0000,  0.0000,  0.0000)
  60 Na    11.961371    4.228124   15.938489    ( 0.0000,  0.0000,  0.0000)
  61 Na    14.935937    6.331275   15.971076    ( 0.0000,  0.0000,  0.0000)
  62 Na    15.031106    4.151818   18.946869    ( 0.0000,  0.0000,  0.0000)
  63 Na    11.989792    6.328582   18.865909    ( 0.0000,  0.0000,  0.0000)
  64 Na    11.964247    8.460000   10.000000    ( 0.0000,  0.0000,  0.0000)
  65 Na    14.955308   10.575000   10.000000    ( 0.0000,  0.0000,  0.0000)
  66 Na    14.955308    8.460000   12.991062    ( 0.0000,  0.0000,  0.0000)
  67 Na    17.946370   10.575000   12.991062    ( 0.0000,  0.0000,  0.0000)
  68 Na    11.964076    8.459450   15.937395    ( 0.0000,  0.0000,  0.0000)
  69 Na    14.935539   10.591985   15.971893    ( 0.0000,  0.0000,  0.0000)
  70 Na    15.001564    8.476600   18.866474    ( 0.0000,  0.0000,  0.0000)
  71 Na    11.989743   10.590192   18.862853    ( 0.0000,  0.0000,  0.0000)
  72 Na     1.495557    1.057481   21.387847    ( 0.0000,  0.0000,  0.0000)

Unit cell:
           periodic     x           y           z      points  spacing
  1. axis:    yes   17.946370    0.000000    0.000000    60     0.2991
  2. axis:    yes    0.000000   12.690000    0.000000    42     0.3021
  3. axis:    no     0.000000    0.000000   28.973185    96     0.3018

  Lengths:  17.946370  12.690000  28.973185
  Angles:   90.000000  90.000000  90.000000

Effective grid spacing dv^(1/3) = 0.3010

     iter     time        total  log10-change:
                         energy   eigst   dens
iter:   1 08:29:02   -80.315404   -5.03
iter:   2 08:29:27   -80.311635   -6.06c -3.00
iter:   3 08:29:51   -80.311082c  -6.52c -3.20
iter:   4 08:30:15   -80.311073c  -6.43c -3.51
iter:   5 08:30:39   -80.310855c  -6.76c -3.72
iter:   6 08:31:03   -80.310659c  -7.09c -3.97
iter:   7 08:31:31   -80.310670c  -7.57c -4.18c

Converged after 7 iterations.

Dipole moment: (-5.041019, -3.699598, 0.302839) |e|*Ang

Energy contributions relative to reference atoms: (reference = -322558.566329)

Kinetic:       +157.837291
Potential:     -142.022614
External:        +0.000000
XC:             -98.751812
Entropy (-ST):   -1.343708
Local:           +3.298318
SIC:             +0.000000
--------------------------
Free energy:    -80.982524
Extrapolated:   -80.310670

Showing all kpts
 Kpt  Band  Eigenvalues  Occupancy
  0   253     -1.59132    1.47589
  0   254     -1.58149    1.43699
  0   255     -1.56584    1.37156
  0   256     -1.43027    0.72008

  1   253     -1.59540    1.49150
  1   254     -1.57972    1.42981
  1   255     -1.56525    1.36903
  1   256     -1.42970    0.71742


Fermi level: -1.48779

Gap: 0.135 eV
Transition (v -> c):
  (s=0, k=1, n=255, [0.25, 0.25, 0.00]) -> (s=0, k=0, n=256, [0.25, -0.25, 0.00])
Direct/indirect transitions are different
Direct gap: 0.136 eV
Transition at: (s=0, k=1, n=255, [0.25, 0.25, 0.00])

Forces in eV/Ang:
  0 Na    0.00245    0.00088    0.02382
  1 Na   -0.00245   -0.00088    0.02383
  2 Na   -0.00028   -0.00535   -0.03252
  3 Na   -0.00250    0.00537   -0.01742
  4 Na   -0.00405   -0.00432    0.00603
  5 Na    0.00405    0.00432    0.00603
  6 Na    0.05399   -0.04364   -0.03472
  7 Na   -0.05399    0.04364   -0.03472
  8 Na    0.00240   -0.00494    0.02598
  9 Na   -0.00128   -0.00382    0.02854
 10 Na   -0.00044    0.02277   -0.04057
 11 Na    0.00128   -0.00244    0.00392
 12 Na    0.00550    0.00292   -0.00887
 13 Na   -0.00617   -0.00800   -0.01001
 14 Na    0.00697   -0.00145   -0.00123
 15 Na    0.00436    0.00531   -0.00716
 16 Na    0.00128    0.00382    0.02854
 17 Na   -0.00240    0.00494    0.02598
 18 Na   -0.00345   -0.01539   -0.01672
 19 Na    0.00033   -0.00320   -0.01570
 20 Na    0.00617    0.00800   -0.01001
 21 Na   -0.00550   -0.00292   -0.00887
 22 Na   -0.00436   -0.00531   -0.00716
 23 Na   -0.00697    0.00146   -0.00123
 24 Na   -0.00422    0.00083    0.02635
 25 Na    0.00091   -0.00095    0.02899
 26 Na    0.00068   -0.00026   -0.01433
 27 Na   -0.00068    0.00026   -0.01433
 28 Na    0.00113    0.00650    0.00835
 29 Na    0.00117   -0.00498   -0.00714
 30 Na    0.00368   -0.00034   -0.00694
 31 Na    0.01073    0.01537   -0.00466
 32 Na   -0.00295   -0.00221    0.02822
 33 Na    0.00131    0.00046    0.02993
 34 Na    0.00145    0.00133   -0.01328
 35 Na   -0.00268    0.00098   -0.01332
 36 Na   -0.00837   -0.00960   -0.00573
 37 Na    0.00291    0.00031   -0.00277
 38 Na   -0.00101    0.00120   -0.00494
 39 Na   -0.00414   -0.00148    0.00296
 40 Na    0.00005    0.00122    0.03102
 41 Na    0.00087    0.00041    0.02958
 42 Na    0.00268   -0.00098   -0.01332
 43 Na   -0.00145   -0.00133   -0.01328
 44 Na   -0.00126    0.00178   -0.00247
 45 Na    0.00108    0.00460   -0.00700
 46 Na   -0.00017   -0.00097   -0.00619
 47 Na    0.02292   -0.01836   -0.02055
 48 Na   -0.00091    0.00095    0.02899
 49 Na    0.00422   -0.00083    0.02635
 50 Na    0.00250   -0.00537   -0.01742
 51 Na    0.00027    0.00535   -0.03252
 52 Na   -0.00117    0.00498   -0.00713
 53 Na   -0.00112   -0.00650    0.00835
 54 Na   -0.01073   -0.01537   -0.00466
 55 Na   -0.00368    0.00034   -0.00694
 56 Na   -0.00087   -0.00041    0.02958
 57 Na   -0.00005   -0.00122    0.03102
 58 Na   -0.00033    0.00320   -0.01570
 59 Na    0.00345    0.01539   -0.01671
 60 Na   -0.00107   -0.00460   -0.00700
 61 Na    0.00126   -0.00178   -0.00247
 62 Na   -0.02291    0.01836   -0.02055
 63 Na    0.00017    0.00097   -0.00619
 64 Na   -0.00131   -0.00046    0.02993
 65 Na    0.00295    0.00221    0.02822
 66 Na   -0.00128    0.00245    0.00392
 67 Na    0.00044   -0.02277   -0.04056
 68 Na   -0.00291   -0.00031   -0.00277
 69 Na    0.00837    0.00960   -0.00573
 70 Na    0.00414    0.00148    0.00296
 71 Na    0.00101   -0.00120   -0.00494
 72 Na    0.00000   -0.00000    0.05182

Timing:                                      incl.     excl.
-------------------------------------------------------------------
Density initialized from wave functions:    24.670    24.670   0.0% |
 Symmetrize density:                         0.000     0.000   0.0% |
Forces:                                     63.294    63.294   0.1% |
Hamiltonian:                                13.955     0.247   0.0% |
 Atomic:                                     6.316     0.028   0.0% |
  XC Correction:                             6.288     6.288   0.0% |
 Calculate atomic Hamiltonians:              4.860     4.860   0.0% |
 Communicate:                                0.000     0.000   0.0% |
 Initialize Hamiltonian:                     0.000     0.000   0.0% |
 Poisson:                                    0.744     0.744   0.0% |
 XC 3D grid:                                 1.788     1.788   0.0% |
LCAO initialization:                       149.964     0.010   0.0% |
 LCAO eigensolver:                           0.637     0.000   0.0% |
  Calculate projections:                     0.023     0.023   0.0% |
  DenseAtomicCorrection:                     0.111     0.111   0.0% |
  Distribute overlap matrix:                 0.001     0.001   0.0% |
  Orbital Layouts:                           0.200     0.200   0.0% |
  Potential matrix:                          0.295     0.295   0.0% |
  Sum over cells:                            0.007     0.007   0.0% |
 LCAO to grid:                             148.790   148.790   0.3% |
 Set positions (LCAO WFS):                   0.526     0.171   0.0% |
  Basic WFS set positions:                   0.001     0.001   0.0% |
  Basis functions set positions:             0.000     0.000   0.0% |
  P tci:                                     0.261     0.261   0.0% |
  ST tci:                                    0.084     0.084   0.0% |
  mktci:                                     0.009     0.009   0.0% |
PWDescriptor:                                0.010     0.010   0.0% |
Redistribute:                                0.037     0.037   0.0% |
SCF-cycle:                                1470.106     0.325   0.0% |
 Davidson:                                1264.357   237.922   0.4% |
  Apply H:                                 169.110   167.409   0.3% |
   HMM T:                                    1.701     1.701   0.0% |
  Subspace diag:                           237.787     0.013   0.0% |
   calc_h_matrix:                          199.812    33.000   0.1% |
    Apply H:                               166.812   164.241   0.3% |
     HMM T:                                  2.571     2.571   0.0% |
   diagonalize:                              2.783     2.783   0.0% |
   rotate_psi:                              35.179    35.179   0.1% |
  calc. matrices:                          507.495   169.187   0.3% |
   Apply H:                                338.309   334.789   0.6% |
    HMM T:                                   3.520     3.520   0.0% |
  diagonalize:                              38.734    38.734   0.1% |
  rotate_psi:                               73.308    73.308   0.1% |
 Density:                                   99.376     0.001   0.0% |
  Atomic density matrices:                   0.334     0.334   0.0% |
  Mix:                                      26.186    26.186   0.0% |
  Multipole moments:                         0.023     0.023   0.0% |
  Pseudo density:                           72.831    72.830   0.1% |
   Symmetrize density:                       0.001     0.001   0.0% |
 Hamiltonian:                               73.014     0.155   0.0% |
  Atomic:                                   34.595     0.096   0.0% |
   XC Correction:                           34.499    34.499   0.1% |
  Calculate atomic Hamiltonians:            28.200    28.200   0.1% |
  Communicate:                               0.000     0.000   0.0% |
  Poisson:                                   0.140     0.140   0.0% |
  XC 3D grid:                                9.925     9.925   0.0% |
 Orthonormalize:                            33.034     0.003   0.0% |
  calc_s_matrix:                             3.307     3.307   0.0% |
  inverse-cholesky:                          0.086     0.086   0.0% |
  projections:                              10.020    10.020   0.0% |
  rotate_psi_s:                             19.618    19.618   0.0% |
Set symmetry:                                0.000     0.000   0.0% |
Other:                                   51475.428 51475.428  96.8% |--------------------------------------|
-------------------------------------------------------------------
Total:                                             53197.464 100.0%

Memory usage: 5.62 GiB
Date: Mon Nov 24 20:48:50 2025
