
  ___ ___ ___ _ _ _  
 |   |   |_  | | | | 
 | | | | | . | | | | 
 |__ |  _|___|_____|  25.7.0
 |___|_|             

User:   tew@Mathuss-MacBook-Air-357.local
Date:   Mon Nov 24 06:02:13 2025
Arch:   arm64
Pid:    82977
CWD:    /Users/tew/Documents/Project/GitHub/chem-com
Python: 3.13.5
gpaw:   /Users/tew/Documents/Project/GitHub/chem-com/.venv/lib/python3.13/site-packages/gpaw
_gpaw:  /Users/tew/Documents/Project/GitHub/chem-com/.venv/lib/python3.13/site-packages/
        _gpaw.cpython-313-darwin.so
ase:    /Users/tew/Documents/Project/GitHub/chem-com/.venv/lib/python3.13/site-packages/ase (version 3.26.0)
numpy:  /Users/tew/Documents/Project/GitHub/chem-com/.venv/lib/python3.13/site-packages/numpy (version 2.3.5)
scipy:  /Users/tew/Documents/Project/GitHub/chem-com/.venv/lib/python3.13/site-packages/scipy (version 1.16.3)
libxc:  2.x.y
units:  Angstrom and eV
cores: 1
OpenMP: False
OMP_NUM_THREADS: 1

Input parameters:
  convergence: {density: 0.0001,
                eigenstates: 5e-06}
  kpts: [2 2 1]
  mode: {ecut: 200.0,
         name: pw}
  xc: PBE

System changes: positions, numbers, cell, pbc, initial_charges, initial_magmoms 

Initialize ...

species:
  Na:
    name: Sodium
    id: d7ecbc49209718622bcbe287195dca2a
    Z: 11.0
    valence: 7
    core: 4
    charge: 0.0
    file: /Users/tew/Documents/Project/GitHub/chem-com/.venv/lib/python3.13/site-packages/gpaw_data/setups/Na.PBE.gz
    compensation charges: {type: gauss,
                           rc: 0.37,
                           lmax: 2}
    cutoffs: {filter: 2.17,
              core: 2.59}
    projectors:
      #              energy  rcut
      - 3s(1.00)    -2.744   1.201
      - 2p(6.00)   -28.672   1.217
      - 3p(0.00)    -0.743   1.217
      -  s          24.468   1.201
      -  d           0.000   1.238
  
    # Using partial waves for Na as LCAO basis

Reference energy: -322558.566329  # eV

Spin-paired calculation

Convergence criteria:
 Maximum [total energy] change in last 3 cyles: 0.0005 eV / valence electron
 Maximum integral of absolute [dens]ity change: 0.0001 electrons / valence electron
 Maximum integral of absolute [eigenst]ate change: 5e-06 eV^2 / valence electron
 Maximum number of scf [iter]ations: 333
 (Square brackets indicate name in SCF output, whereas a 'c' in
 the SCF output indicates the quantity has converged.)

Symmetries present (total): 1

  ( 1  0  0)
  ( 0  1  0)
  ( 0  0  1)

4 k-points: 2 x 2 x 1 Monkhorst-Pack grid
2 k-points in the irreducible part of the Brillouin zone
       k-points in crystal coordinates                weights
   0:     0.25000000   -0.25000000    0.00000000          2/4
   1:     0.25000000    0.25000000    0.00000000          2/4

Wave functions: Plane wave expansion
  Cutoff energy: 200.000 eV
  Number of coefficients (min, max): 42398, 42398
  Pulay-stress correction: 0.000000 eV/Ang^3 (de/decut=0.000000)
  Using Numpy's FFT
  ScaLapack parameters: grid=1x1, blocksize=None
  Wavefunction extrapolation:
    Improved wavefunction reuse through dual PAW basis 

Occupation numbers: Fermi-Dirac:
  width: 0.1000  # eV
 

Eigensolver
   Davidson(niter=2) 

Densities:
  Coarse grid: 60*42*96 grid
  Fine grid: 120*84*192 grid
  Total Charge: 0.000000 

Density mixing:
  Method: separate
  Backend: pulay
  Linear mixing parameter: 0.05
  old densities: 5
  Damping of long wavelength oscillations: 50 

Hamiltonian:
  XC and Coulomb potentials evaluated on a 120*84*192 grid
  Using the PBE Exchange-Correlation functional
  External potential:
    NoExternalPotential
 

XC parameters: PBE with 2 nearest neighbor stencil

Memory estimate:
  Process memory now: 3387.00 MiB
  Calculator: 793.74 MiB
    Density: 111.27 MiB
      Arrays: 47.99 MiB
      Localized functions: 44.82 MiB
      Mixer: 18.46 MiB
    Hamiltonian: 32.29 MiB
      Arrays: 31.38 MiB
      XC: 0.00 MiB
      Poisson: 0.00 MiB
      vbar: 0.91 MiB
    Wavefunctions: 650.19 MiB
      Arrays psit_nG: 402.40 MiB
      Eigensolver: 219.20 MiB
      Projections: 9.01 MiB
      Projectors: 9.06 MiB
      PW-descriptor: 10.52 MiB

Total number of cores used: 1

Number of atoms: 73
Number of atomic orbitals: 511
Number of bands in calculation: 311
Number of valence electrons: 511
Bands to converge: occupied

... initialized

Initializing position-dependent things.

Density initialized from atomic densities
Creating initial wave functions:
  311 bands from LCAO basis set

         .-------------------------------------------.  
        /|                                           |  
       / |                                           |  
      /  |                                           |  
     /   |                                           |  
    /    |                                           |  
   /     |                                           |  
  /      |                                           |  
 *       |                                           |  
 |       |                                           |  
 |       |                                           |  
 |       |                                           |  
 |       |                                           |  
 |       |                     Na                    |  
 |      Na            Na             Na              |  
 |       |    Na            Na             Na        |  
 |       Na             Na            Na             |  
 |   NaNa|          Na            Na                 |  
 |       | Na  Na         Na  Na        Na  Na       |  
 | Na    |       Na  Na         Na  Na            Na |  
 |       |  Na             Na             Na         |  
 |      Na        Na  Na             NNa             |  
 |       |                       Na             Na   |  
 |       |Na  Na        Na  Na         Na  Na        |  
 |   Na  |          Na            Na                 |  
 |       | Na  Na         Na  Na        Na  Na       |  
 |    Na |           Na             Na               |  
 |Na     |       Na             Na                   |  
 |      Na  Na         Na  Na         Na  Na         |  
 |  Na   |        Na             Na                  |  
 |       |Na            Na             Na            |  
 |       |                                           |  
 Na      |      Na            Na                     |  
 |       |                                           |  
 |       |                                           |  
 |       |                                           |  
 |       .-------------------------------------------.  
 |      /                                           /   
 |     /                                           /    
 |    /                                           /     
 |   /                                           /      
 |  /                                           /       
 | /                                           /        
 |/                                           /         
 *-------------------------------------------*          

Atomic positions and initial magnetic moments

Positions:
   0 Na     0.000000    0.000000   10.000000    ( 0.0000,  0.0000,  0.0000)
   1 Na     2.991062    2.115000   10.000000    ( 0.0000,  0.0000,  0.0000)
   2 Na     2.991062    0.000000   12.991062    ( 0.0000,  0.0000,  0.0000)
   3 Na     5.982123    2.115000   12.991062    ( 0.0000,  0.0000,  0.0000)
   4 Na     0.041307   -0.020473   15.877655    ( 0.0000,  0.0000,  0.0000)
   5 Na     2.982800    2.217366   15.771482    ( 0.0000,  0.0000,  0.0000)
   6 Na     2.971377    0.022600   18.343423    ( 0.0000,  0.0000,  0.0000)
   7 Na     0.098425    2.001998   18.907545    ( 0.0000,  0.0000,  0.0000)
   8 Na     0.000000    4.230000   10.000000    ( 0.0000,  0.0000,  0.0000)
   9 Na     2.991062    6.345000   10.000000    ( 0.0000,  0.0000,  0.0000)
  10 Na     2.991062    4.230000   12.991062    ( 0.0000,  0.0000,  0.0000)
  11 Na     5.982123    6.345000   12.991062    ( 0.0000,  0.0000,  0.0000)
  12 Na    -0.036075    4.230379   15.961175    ( 0.0000,  0.0000,  0.0000)
  13 Na     2.998277    6.340981   16.001009    ( 0.0000,  0.0000,  0.0000)
  14 Na     2.971377    4.121636   18.930903    ( 0.0000,  0.0000,  0.0000)
  15 Na     0.031986    6.327847   18.872429    ( 0.0000,  0.0000,  0.0000)
  16 Na     0.000000    8.460000   10.000000    ( 0.0000,  0.0000,  0.0000)
  17 Na     2.991062   10.575000   10.000000    ( 0.0000,  0.0000,  0.0000)
  18 Na     2.991062    8.460000   12.991062    ( 0.0000,  0.0000,  0.0000)
  19 Na     5.982123   10.575000   12.991062    ( 0.0000,  0.0000,  0.0000)
  20 Na    -0.036075    8.480094   16.003739    ( 0.0000,  0.0000,  0.0000)
  21 Na     2.998277   10.476653   15.788186    ( 0.0000,  0.0000,  0.0000)
  22 Na     2.984665    8.545764   18.900381    ( 0.0000,  0.0000,  0.0000)
  23 Na     0.098425   10.705154   19.025041    ( 0.0000,  0.0000,  0.0000)
  24 Na     5.982123    0.000000   10.000000    ( 0.0000,  0.0000,  0.0000)
  25 Na     8.973185    2.115000   10.000000    ( 0.0000,  0.0000,  0.0000)
  26 Na     8.973185    0.000000   12.991062    ( 0.0000,  0.0000,  0.0000)
  27 Na    11.964247    2.115000   12.991062    ( 0.0000,  0.0000,  0.0000)
  28 Na     5.941703   -0.000137   15.910916    ( 0.0000,  0.0000,  0.0000)
  29 Na     8.977621    2.115686   15.943688    ( 0.0000,  0.0000,  0.0000)
  30 Na     8.952040   -0.000353   18.867892    ( 0.0000,  0.0000,  0.0000)
  31 Na     5.879469    2.001998   19.018555    ( 0.0000,  0.0000,  0.0000)
  32 Na     5.982123    4.230000   10.000000    ( 0.0000,  0.0000,  0.0000)
  33 Na     8.973185    6.345000   10.000000    ( 0.0000,  0.0000,  0.0000)
  34 Na     8.973185    4.230000   12.991062    ( 0.0000,  0.0000,  0.0000)
  35 Na    11.964247    6.345000   12.991062    ( 0.0000,  0.0000,  0.0000)
  36 Na     6.019086    4.210043   15.994436    ( 0.0000,  0.0000,  0.0000)
  37 Na     8.970550    6.345073   15.938322    ( 0.0000,  0.0000,  0.0000)
  38 Na     8.932038    4.203062   18.864168    ( 0.0000,  0.0000,  0.0000)
  39 Na     5.941908    6.339542   18.865198    ( 0.0000,  0.0000,  0.0000)
  40 Na     5.982123    8.460000   10.000000    ( 0.0000,  0.0000,  0.0000)
  41 Na     8.973185   10.575000   10.000000    ( 0.0000,  0.0000,  0.0000)
  42 Na     8.973185    8.460000   12.991062    ( 0.0000,  0.0000,  0.0000)
  43 Na    11.964247   10.575000   12.991062    ( 0.0000,  0.0000,  0.0000)
  44 Na     6.017671    8.480094   15.993403    ( 0.0000,  0.0000,  0.0000)
  45 Na     8.977621   10.574241   15.943484    ( 0.0000,  0.0000,  0.0000)
  46 Na     8.932038    8.487291   18.865309    ( 0.0000,  0.0000,  0.0000)
  47 Na     5.875469   10.693460   19.017810    ( 0.0000,  0.0000,  0.0000)
  48 Na    11.964247    0.000000   10.000000    ( 0.0000,  0.0000,  0.0000)
  49 Na    14.955308    2.115000   10.000000    ( 0.0000,  0.0000,  0.0000)
  50 Na    14.955308    0.000000   12.991062    ( 0.0000,  0.0000,  0.0000)
  51 Na    17.946370    2.115000   12.991062    ( 0.0000,  0.0000,  0.0000)
  52 Na    11.963359   -0.000137   15.940416    ( 0.0000,  0.0000,  0.0000)
  53 Na    14.959133    2.115686   15.937788    ( 0.0000,  0.0000,  0.0000)
  54 Na    14.996139    0.022600   18.898470    ( 0.0000,  0.0000,  0.0000)
  55 Na    11.968476    2.116763   18.865665    ( 0.0000,  0.0000,  0.0000)
  56 Na    11.964247    4.230000   10.000000    ( 0.0000,  0.0000,  0.0000)
  57 Na    14.955308    6.345000   10.000000    ( 0.0000,  0.0000,  0.0000)
  58 Na    14.955308    4.230000   12.991062    ( 0.0000,  0.0000,  0.0000)
  59 Na    17.946370    6.345000   12.991062    ( 0.0000,  0.0000,  0.0000)
  60 Na    11.963359    4.230501   15.939396    ( 0.0000,  0.0000,  0.0000)
  61 Na    14.950728    6.340981   15.949329    ( 0.0000,  0.0000,  0.0000)
  62 Na    15.016141    4.180109   18.894746    ( 0.0000,  0.0000,  0.0000)
  63 Na    11.972476    6.339542   18.870628    ( 0.0000,  0.0000,  0.0000)
  64 Na    11.964247    8.460000   10.000000    ( 0.0000,  0.0000,  0.0000)
  65 Na    14.955308   10.575000   10.000000    ( 0.0000,  0.0000,  0.0000)
  66 Na    14.955308    8.460000   12.991062    ( 0.0000,  0.0000,  0.0000)
  67 Na    17.946370   10.575000   12.991062    ( 0.0000,  0.0000,  0.0000)
  68 Na    11.964774    8.459636   15.938364    ( 0.0000,  0.0000,  0.0000)
  69 Na    14.943657   10.578333   15.954492    ( 0.0000,  0.0000,  0.0000)
  70 Na    15.002853    8.487291   18.864223    ( 0.0000,  0.0000,  0.0000)
  71 Na    11.972476   10.578695   18.864921    ( 0.0000,  0.0000,  0.0000)
  72 Na     2.492551    0.352500   21.339934    ( 0.0000,  0.0000,  0.0000)

Unit cell:
           periodic     x           y           z      points  spacing
  1. axis:    yes   17.946370    0.000000    0.000000    60     0.2991
  2. axis:    yes    0.000000   12.690000    0.000000    42     0.3021
  3. axis:    no     0.000000    0.000000   28.973185    96     0.3018

  Lengths:  17.946370  12.690000  28.973185
  Angles:   90.000000  90.000000  90.000000

Effective grid spacing dv^(1/3) = 0.3010

     iter     time        total  log10-change:
                         energy   eigst   dens
iter:   1 06:05:02   -81.487960
iter:   2 06:05:26   -80.918543   -2.32  -1.52
iter:   3 06:05:51   -80.569433   -2.78  -1.59
iter:   4 06:06:16   -80.352764   -2.89  -1.71
iter:   5 06:06:42   -80.435802c  -3.04  -1.99
iter:   6 06:07:07   -80.373633c  -3.69  -2.13
iter:   7 06:07:31   -80.315213c  -3.88  -2.27
iter:   8 06:07:57   -80.309928c  -4.37  -2.74
iter:   9 06:08:21   -80.302156c  -4.56  -2.88
iter:  10 06:08:47   -80.298891c  -4.77  -3.16
iter:  11 06:09:11   -80.297075c  -5.02  -3.29
iter:  12 06:09:37   -80.296025c  -5.23  -3.40
iter:  13 06:10:02   -80.295767c  -5.24  -3.53
iter:  14 06:10:27   -80.295764c  -5.68c -3.82
iter:  15 06:10:51   -80.295727c  -5.95c -3.90
iter:  16 06:11:16   -80.295660c  -6.16c -3.97
iter:  17 06:11:42   -80.295714c  -6.36c -4.11c

Converged after 17 iterations.

Dipole moment: (-6.982309, -6.268083, 0.287875) |e|*Ang

Energy contributions relative to reference atoms: (reference = -322558.566329)

Kinetic:       +160.043561
Potential:     -143.987241
External:        +0.000000
XC:             -98.984302
Entropy (-ST):   -1.343755
Local:           +3.304145
SIC:             +0.000000
--------------------------
Free energy:    -80.967592
Extrapolated:   -80.295714

Showing all kpts
 Kpt  Band  Eigenvalues  Occupancy
  0   253     -1.59616    1.48906
  0   254     -1.58084    1.42863
  0   255     -1.56727    1.37169
  0   256     -1.43078    0.71599

  1   253     -1.59765    1.49470
  1   254     -1.58021    1.42609
  1   255     -1.56696    1.37035
  1   256     -1.43067    0.71546


Fermi level: -1.48919

Gap: 0.136 eV
Transition (v -> c):
  (s=0, k=1, n=255, [0.25, 0.25, 0.00]) -> (s=0, k=0, n=256, [0.25, -0.25, 0.00])
Direct/indirect transitions are different
Direct gap: 0.136 eV
Transition at: (s=0, k=1, n=255, [0.25, 0.25, 0.00])

Forces in eV/Ang:
  0 Na    0.00384    0.00028    0.02484
  1 Na   -0.00102   -0.00182    0.02580
  2 Na    0.00004   -0.00215   -0.03950
  3 Na   -0.00085    0.00827   -0.02091
  4 Na   -0.02199    0.00019    0.01404
  5 Na    0.00150    0.01638    0.00619
  6 Na    0.06067   -0.04466   -0.16179
  7 Na   -0.03767    0.02576    0.00791
  8 Na    0.00270   -0.00493    0.02685
  9 Na   -0.00040   -0.00151    0.02882
 10 Na   -0.00048    0.03556   -0.05796
 11 Na   -0.00097   -0.00143    0.01324
 12 Na    0.01516   -0.01388   -0.00117
 13 Na   -0.00260   -0.00329   -0.01493
 14 Na    0.00718   -0.00913   -0.00189
 15 Na    0.00639    0.00518    0.00434
 16 Na    0.00180    0.00454    0.02770
 17 Na   -0.00099    0.00349    0.02625
 18 Na   -0.00123   -0.03207   -0.04885
 19 Na   -0.00019   -0.00700   -0.02049
 20 Na    0.01532    0.01400   -0.00732
 21 Na   -0.00183   -0.01322    0.00232
 22 Na   -0.00426    0.00100   -0.00863
 23 Na   -0.01536   -0.00724   -0.00707
 24 Na   -0.00467    0.00020    0.02562
 25 Na   -0.00052   -0.00059    0.02899
 26 Na   -0.00222   -0.00013   -0.01284
 27 Na   -0.00019    0.00097   -0.01466
 28 Na    0.01853    0.00263    0.01542
 29 Na    0.00012   -0.01313   -0.01001
 30 Na    0.00460   -0.00036   -0.00742
 31 Na    0.00554    0.01055   -0.00291
 32 Na   -0.00240   -0.00342    0.02760
 33 Na    0.00215    0.00022    0.03126
 34 Na    0.00168    0.00076   -0.01316
 35 Na   -0.00105    0.00055   -0.01570
 36 Na   -0.01719   -0.01518   -0.00573
 37 Na    0.00876    0.00056    0.00019
 38 Na   -0.00382   -0.00025   -0.00388
 39 Na   -0.00711    0.00018    0.00998
 40 Na   -0.00127    0.00311    0.02866
 41 Na   -0.00030    0.00037    0.02932
 42 Na    0.00290   -0.00055   -0.01324
 43 Na   -0.00050   -0.00151   -0.01486
 44 Na   -0.01314    0.01152   -0.00314
 45 Na    0.00027    0.01261   -0.01015
 46 Na   -0.00426    0.00054   -0.00416
 47 Na    0.01025   -0.00644   -0.01171
 48 Na   -0.00064    0.00018    0.02861
 49 Na    0.00267   -0.00086    0.02824
 50 Na    0.00366   -0.00206   -0.01432
 51 Na   -0.00022    0.00832   -0.02767
 52 Na   -0.00082    0.00267   -0.00489
 53 Na    0.00135   -0.01319   -0.00074
 54 Na   -0.01168   -0.00831   -0.01043
 55 Na   -0.00126    0.00071   -0.00755
 56 Na   -0.00064    0.00132    0.02892
 57 Na   -0.00189    0.00010    0.03184
 58 Na   -0.00128    0.00092   -0.01337
 59 Na    0.00316    0.00398    0.00790
 60 Na    0.00016   -0.00128   -0.00461
 61 Na   -0.00771   -0.00100    0.00081
 62 Na   -0.00666    0.00675   -0.01474
 63 Na    0.00085   -0.00011   -0.00794
 64 Na   -0.00068   -0.00147    0.02883
 65 Na    0.00220    0.00082    0.02862
 66 Na   -0.00205    0.00123   -0.00747
 67 Na   -0.00013   -0.01346   -0.02842
 68 Na   -0.00179   -0.00142   -0.00298
 69 Na    0.00504    0.01518   -0.00921
 70 Na    0.00523    0.00048   -0.00095
 71 Na    0.00054   -0.00047   -0.00656
 72 Na   -0.00918    0.02596    0.10372

System changes: positions 

Initializing position-dependent things.

Density initialized from wave functions
         .-------------------------------------------.  
        /|                                           |  
       / |                                           |  
      /  |                                           |  
     /   |                                           |  
    /    |                                           |  
   /     |                                           |  
  /      |                                           |  
 *       |                                           |  
 |       |                                           |  
 |       |                                           |  
 |       |                                           |  
 |       |                                           |  
 |       |                     Na                    |  
 |      Na            Na             Na              |  
 |       |    Na            Na             Na        |  
 |       Na             Na            Na             |  
 |   NaNa|          Na            Na                 |  
 |       | Na  Na         Na  Na        Na  Na       |  
 | Na    |       Na  Na         Na  Na            Na |  
 |       |  Na             Na             Na         |  
 |      Na        Na  Na             NNa             |  
 |       |                       Na             Na   |  
 |       |Na  Na        Na  Na         Na  Na        |  
 |   Na  |          Na            Na                 |  
 |       | Na  Na         Na  Na        Na  Na       |  
 |    Na |           Na             Na               |  
 |Na     |       Na             Na                   |  
 |      Na  Na         Na  Na         Na  Na         |  
 |  Na   |        Na             Na                  |  
 |       |Na            Na             Na            |  
 |       |                                           |  
 Na      |      Na            Na                     |  
 |       |                                           |  
 |       |                                           |  
 |       |                                           |  
 |       .-------------------------------------------.  
 |      /                                           /   
 |     /                                           /    
 |    /                                           /     
 |   /                                           /      
 |  /                                           /       
 | /                                           /        
 |/                                           /         
 *-------------------------------------------*          

Atomic positions and initial magnetic moments

Positions:
   0 Na     0.000000    0.000000   10.000000    ( 0.0000,  0.0000,  0.0000)
   1 Na     2.991062    2.115000   10.000000    ( 0.0000,  0.0000,  0.0000)
   2 Na     2.991062    0.000000   12.991062    ( 0.0000,  0.0000,  0.0000)
   3 Na     5.982123    2.115000   12.991062    ( 0.0000,  0.0000,  0.0000)
   4 Na     0.041085   -0.020477   15.877788    ( 0.0000,  0.0000,  0.0000)
   5 Na     2.982813    2.217524   15.771551    ( 0.0000,  0.0000,  0.0000)
   6 Na     2.971978    0.022160   18.341842    ( 0.0000,  0.0000,  0.0000)
   7 Na     0.098043    2.002262   18.907587    ( 0.0000,  0.0000,  0.0000)
   8 Na     0.000000    4.230000   10.000000    ( 0.0000,  0.0000,  0.0000)
   9 Na     2.991062    6.345000   10.000000    ( 0.0000,  0.0000,  0.0000)
  10 Na     2.991062    4.230000   12.991062    ( 0.0000,  0.0000,  0.0000)
  11 Na     5.982123    6.345000   12.991062    ( 0.0000,  0.0000,  0.0000)
  12 Na    -0.035921    4.230246   15.961152    ( 0.0000,  0.0000,  0.0000)
  13 Na     2.998253    6.340947   16.000860    ( 0.0000,  0.0000,  0.0000)
  14 Na     2.971443    4.121543   18.930890    ( 0.0000,  0.0000,  0.0000)
  15 Na     0.032048    6.327895   18.872474    ( 0.0000,  0.0000,  0.0000)
  16 Na     0.000000    8.460000   10.000000    ( 0.0000,  0.0000,  0.0000)
  17 Na     2.991062   10.575000   10.000000    ( 0.0000,  0.0000,  0.0000)
  18 Na     2.991062    8.460000   12.991062    ( 0.0000,  0.0000,  0.0000)
  19 Na     5.982123   10.575000   12.991062    ( 0.0000,  0.0000,  0.0000)
  20 Na    -0.035920    8.480233   16.003666    ( 0.0000,  0.0000,  0.0000)
  21 Na     2.998260   10.476528   15.788220    ( 0.0000,  0.0000,  0.0000)
  22 Na     2.984620    8.545769   18.900292    ( 0.0000,  0.0000,  0.0000)
  23 Na     0.098266   10.705081   19.024964    ( 0.0000,  0.0000,  0.0000)
  24 Na     5.982123    0.000000   10.000000    ( 0.0000,  0.0000,  0.0000)
  25 Na     8.973185    2.115000   10.000000    ( 0.0000,  0.0000,  0.0000)
  26 Na     8.973185    0.000000   12.991062    ( 0.0000,  0.0000,  0.0000)
  27 Na    11.964247    2.115000   12.991062    ( 0.0000,  0.0000,  0.0000)
  28 Na     5.941891   -0.000111   15.911072    ( 0.0000,  0.0000,  0.0000)
  29 Na     8.977622    2.115555   15.943587    ( 0.0000,  0.0000,  0.0000)
  30 Na     8.952087   -0.000356   18.867818    ( 0.0000,  0.0000,  0.0000)
  31 Na     5.879529    2.002110   19.018518    ( 0.0000,  0.0000,  0.0000)
  32 Na     5.982123    4.230000   10.000000    ( 0.0000,  0.0000,  0.0000)
  33 Na     8.973185    6.345000   10.000000    ( 0.0000,  0.0000,  0.0000)
  34 Na     8.973185    4.230000   12.991062    ( 0.0000,  0.0000,  0.0000)
  35 Na    11.964247    6.345000   12.991062    ( 0.0000,  0.0000,  0.0000)
  36 Na     6.018912    4.209892   15.994376    ( 0.0000,  0.0000,  0.0000)
  37 Na     8.970638    6.345078   15.938324    ( 0.0000,  0.0000,  0.0000)
  38 Na     8.932002    4.203061   18.864129    ( 0.0000,  0.0000,  0.0000)
  39 Na     5.941837    6.339542   18.865297    ( 0.0000,  0.0000,  0.0000)
  40 Na     5.982123    8.460000   10.000000    ( 0.0000,  0.0000,  0.0000)
  41 Na     8.973185   10.575000   10.000000    ( 0.0000,  0.0000,  0.0000)
  42 Na     8.973185    8.460000   12.991062    ( 0.0000,  0.0000,  0.0000)
  43 Na    11.964247   10.575000   12.991062    ( 0.0000,  0.0000,  0.0000)
  44 Na     6.017538    8.480209   15.993369    ( 0.0000,  0.0000,  0.0000)
  45 Na     8.977624   10.574367   15.943382    ( 0.0000,  0.0000,  0.0000)
  46 Na     8.931997    8.487295   18.865268    ( 0.0000,  0.0000,  0.0000)
  47 Na     5.875574   10.693391   19.017685    ( 0.0000,  0.0000,  0.0000)
  48 Na    11.964247    0.000000   10.000000    ( 0.0000,  0.0000,  0.0000)
  49 Na    14.955308    2.115000   10.000000    ( 0.0000,  0.0000,  0.0000)
  50 Na    14.955308    0.000000   12.991062    ( 0.0000,  0.0000,  0.0000)
  51 Na    17.946370    2.115000   12.991062    ( 0.0000,  0.0000,  0.0000)
  52 Na    11.963351   -0.000111   15.940367    ( 0.0000,  0.0000,  0.0000)
  53 Na    14.959149    2.115554   15.937778    ( 0.0000,  0.0000,  0.0000)
  54 Na    14.996026    0.022523   18.898373    ( 0.0000,  0.0000,  0.0000)
  55 Na    11.968464    2.116770   18.865590    ( 0.0000,  0.0000,  0.0000)
  56 Na    11.964247    4.230000   10.000000    ( 0.0000,  0.0000,  0.0000)
  57 Na    14.955308    6.345000   10.000000    ( 0.0000,  0.0000,  0.0000)
  58 Na    14.955308    4.230000   12.991062    ( 0.0000,  0.0000,  0.0000)
  59 Na    17.946370    6.345000   12.991062    ( 0.0000,  0.0000,  0.0000)
  60 Na    11.963361    4.230489   15.939351    ( 0.0000,  0.0000,  0.0000)
  61 Na    14.950649    6.340970   15.949341    ( 0.0000,  0.0000,  0.0000)
  62 Na    15.016077    4.180172   18.894606    ( 0.0000,  0.0000,  0.0000)
  63 Na    11.972487    6.339539   18.870548    ( 0.0000,  0.0000,  0.0000)
  64 Na    11.964247    8.460000   10.000000    ( 0.0000,  0.0000,  0.0000)
  65 Na    14.955308   10.575000   10.000000    ( 0.0000,  0.0000,  0.0000)
  66 Na    14.955308    8.460000   12.991062    ( 0.0000,  0.0000,  0.0000)
  67 Na    17.946370   10.575000   12.991062    ( 0.0000,  0.0000,  0.0000)
  68 Na    11.964756    8.459622   15.938334    ( 0.0000,  0.0000,  0.0000)
  69 Na    14.943706   10.578486   15.954402    ( 0.0000,  0.0000,  0.0000)
  70 Na    15.002905    8.487294   18.864214    ( 0.0000,  0.0000,  0.0000)
  71 Na    11.972484   10.578692   18.864855    ( 0.0000,  0.0000,  0.0000)
  72 Na     2.492329    0.352852   21.340971    ( 0.0000,  0.0000,  0.0000)

Unit cell:
           periodic     x           y           z      points  spacing
  1. axis:    yes   17.946370    0.000000    0.000000    60     0.2991
  2. axis:    yes    0.000000   12.690000    0.000000    42     0.3021
  3. axis:    no     0.000000    0.000000   28.973185    96     0.3018

  Lengths:  17.946370  12.690000  28.973185
  Angles:   90.000000  90.000000  90.000000

Effective grid spacing dv^(1/3) = 0.3010

     iter     time        total  log10-change:
                         energy   eigst   dens
iter:   1 07:00:53   -80.296123   -6.15c
iter:   2 07:01:20   -80.296191   -6.76c -3.85
iter:   3 07:01:46   -80.296249c  -6.98c -3.98
iter:   4 07:02:13   -80.296275c  -7.16c -4.24c

Converged after 4 iterations.

Dipole moment: (-6.974135, -6.258141, 0.289165) |e|*Ang

Energy contributions relative to reference atoms: (reference = -322558.566329)

Kinetic:       +156.625814
Potential:     -140.966064
External:        +0.000000
XC:             -98.580102
Entropy (-ST):   -1.343630
Local:           +3.295892
SIC:             +0.000000
--------------------------
Free energy:    -80.968089
Extrapolated:   -80.296275

Showing all kpts
 Kpt  Band  Eigenvalues  Occupancy
  0   253     -1.59632    1.48857
  0   254     -1.58121    1.42900
  0   255     -1.56752    1.37152
  0   256     -1.43116    0.71640

  1   253     -1.59780    1.49421
  1   254     -1.58060    1.42647
  1   255     -1.56721    1.37017
  1   256     -1.43105    0.71588


Fermi level: -1.48948

Gap: 0.136 eV
Transition (v -> c):
  (s=0, k=1, n=255, [0.25, 0.25, 0.00]) -> (s=0, k=0, n=256, [0.25, -0.25, 0.00])
Direct/indirect transitions are different
Direct gap: 0.136 eV
Transition at: (s=0, k=1, n=255, [0.25, 0.25, 0.00])

Forces in eV/Ang:
  0 Na    0.00323    0.00030    0.02258
  1 Na   -0.00089   -0.00150    0.02357
  2 Na   -0.00011   -0.00209   -0.03553
  3 Na   -0.00081    0.00856   -0.01882
  4 Na   -0.02263   -0.00012    0.00993
  5 Na    0.00195    0.01758    0.00123
  6 Na    0.06006   -0.04413   -0.15242
  7 Na   -0.03790    0.02629    0.01074
  8 Na    0.00264   -0.00484    0.02555
  9 Na   -0.00037   -0.00150    0.02766
 10 Na   -0.00057    0.03547   -0.05553
 11 Na   -0.00119   -0.00157    0.01387
 12 Na    0.01542   -0.01368   -0.00236
 13 Na   -0.00288   -0.00333   -0.01490
 14 Na    0.00728   -0.00669   -0.00058
 15 Na    0.00664    0.00545    0.00468
 16 Na    0.00178    0.00443    0.02657
 17 Na   -0.00090    0.00318    0.02419
 18 Na   -0.00139   -0.03203   -0.04695
 19 Na   -0.00009   -0.00717   -0.01871
 20 Na    0.01593    0.01402   -0.00773
 21 Na   -0.00161   -0.01436   -0.00148
 22 Na   -0.00418   -0.00101   -0.00826
 23 Na   -0.01588   -0.00846   -0.00529
 24 Na   -0.00395    0.00028    0.02350
 25 Na   -0.00019   -0.00127    0.02807
 26 Na   -0.00153   -0.00004   -0.01230
 27 Na   -0.00045    0.00060   -0.01456
 28 Na    0.01815    0.00255    0.01330
 29 Na   -0.00051   -0.01326   -0.01060
 30 Na    0.00461   -0.00035   -0.00669
 31 Na    0.00636    0.01096   -0.00174
 32 Na   -0.00233   -0.00348    0.02645
 33 Na    0.00166    0.00007    0.03089
 34 Na    0.00206    0.00047   -0.01271
 35 Na   -0.00113    0.00046   -0.01506
 36 Na   -0.01786   -0.01538   -0.00642
 37 Na    0.00872    0.00043   -0.00023
 38 Na   -0.00401   -0.00013   -0.00283
 39 Na   -0.00761    0.00031    0.01061
 40 Na   -0.00128    0.00307    0.02766
 41 Na   -0.00010    0.00121    0.02850
 42 Na    0.00326   -0.00035   -0.01281
 43 Na   -0.00070   -0.00105   -0.01462
 44 Na   -0.01403    0.01180   -0.00331
 45 Na   -0.00023    0.01287   -0.01066
 46 Na   -0.00450    0.00042   -0.00305
 47 Na    0.01096   -0.00716   -0.01103
 48 Na   -0.00078    0.00043    0.02791
 49 Na    0.00222   -0.00138    0.02703
 50 Na    0.00335   -0.00207   -0.01305
 51 Na   -0.00016    0.00851   -0.02487
 52 Na   -0.00040    0.00268   -0.00558
 53 Na    0.00205   -0.01344   -0.00125
 54 Na   -0.01247   -0.00824   -0.00990
 55 Na   -0.00093    0.00082   -0.00651
 56 Na   -0.00061    0.00030    0.02851
 57 Na   -0.00151    0.00002    0.03141
 58 Na   -0.00157    0.00072   -0.01278
 59 Na    0.00356    0.00386    0.00888
 60 Na    0.00029   -0.00136   -0.00520
 61 Na   -0.00724   -0.00120    0.00086
 62 Na   -0.00654    0.00690   -0.01407
 63 Na    0.00098   -0.00016   -0.00678
 64 Na   -0.00059   -0.00070    0.02847
 65 Na    0.00192    0.00142    0.02759
 66 Na   -0.00230    0.00145   -0.00699
 67 Na   -0.00015   -0.01354   -0.02591
 68 Na   -0.00175   -0.00136   -0.00367
 69 Na    0.00571    0.01560   -0.00966
 70 Na    0.00551    0.00032   -0.00009
 71 Na    0.00079   -0.00054   -0.00544
 72 Na   -0.00913    0.02600    0.09724

System changes: positions 

Initializing position-dependent things.

Density initialized from wave functions
         .-------------------------------------------.  
        /|                                           |  
       / |                                           |  
      /  |                                           |  
     /   |                                           |  
    /    |                                           |  
   /     |                                           |  
  /      |                                           |  
 *       |                                           |  
 |       |                                           |  
 |       |                                           |  
 |       |                                           |  
 |       |                                           |  
 |       |                     Na                    |  
 |      Na            Na             Na              |  
 |       |    Na            Na             Na        |  
 |       Na             Na            Na             |  
 |   NaNa|          Na            Na                 |  
 |       | Na  Na         Na  Na        Na  Na       |  
 | Na    |       Na  Na         Na  Na            Na |  
 |       |  Na             Na             Na         |  
 |      Na        Na  Na             NNa             |  
 |       |                       Na             Na   |  
 |       |Na  Na        Na  Na         Na  Na        |  
 |   Na  |          Na            Na                 |  
 |       | Na  Na         Na  Na        Na  Na       |  
 |    Na |           Na             Na               |  
 |Na     |       Na             Na                   |  
 |      Na  Na         Na  Na         Na  Na         |  
 |  Na   |        Na             Na                  |  
 |       |Na            Na             Na            |  
 |       |                                           |  
 Na      |      Na            Na                     |  
 |       |                                           |  
 |       |                                           |  
 |       |                                           |  
 |       .-------------------------------------------.  
 |      /                                           /   
 |     /                                           /    
 |    /                                           /     
 |   /                                           /      
 |  /                                           /       
 | /                                           /        
 |/                                           /         
 *-------------------------------------------*          

Atomic positions and initial magnetic moments

Positions:
   0 Na     0.000000    0.000000   10.000000    ( 0.0000,  0.0000,  0.0000)
   1 Na     2.991062    2.115000   10.000000    ( 0.0000,  0.0000,  0.0000)
   2 Na     2.991062    0.000000   12.991062    ( 0.0000,  0.0000,  0.0000)
   3 Na     5.982123    2.115000   12.991062    ( 0.0000,  0.0000,  0.0000)
   4 Na     0.040634   -0.020487   15.878011    ( 0.0000,  0.0000,  0.0000)
   5 Na     2.982844    2.217855   15.771633    ( 0.0000,  0.0000,  0.0000)
   6 Na     2.973177    0.021282   18.338775    ( 0.0000,  0.0000,  0.0000)
   7 Na     0.097276    2.002795   18.907706    ( 0.0000,  0.0000,  0.0000)
   8 Na     0.000000    4.230000   10.000000    ( 0.0000,  0.0000,  0.0000)
   9 Na     2.991062    6.345000   10.000000    ( 0.0000,  0.0000,  0.0000)
  10 Na     2.991062    4.230000   12.991062    ( 0.0000,  0.0000,  0.0000)
  11 Na     5.982123    6.345000   12.991062    ( 0.0000,  0.0000,  0.0000)
  12 Na    -0.035611    4.229983   15.961093    ( 0.0000,  0.0000,  0.0000)
  13 Na     2.998201    6.340879   16.000561    ( 0.0000,  0.0000,  0.0000)
  14 Na     2.971578    4.121385   18.930879    ( 0.0000,  0.0000,  0.0000)
  15 Na     0.032175    6.327993   18.872568    ( 0.0000,  0.0000,  0.0000)
  16 Na     0.000000    8.460000   10.000000    ( 0.0000,  0.0000,  0.0000)
  17 Na     2.991062   10.575000   10.000000    ( 0.0000,  0.0000,  0.0000)
  18 Na     2.991062    8.460000   12.991062    ( 0.0000,  0.0000,  0.0000)
  19 Na     5.982123   10.575000   12.991062    ( 0.0000,  0.0000,  0.0000)
  20 Na    -0.035603    8.480512   16.003514    ( 0.0000,  0.0000,  0.0000)
  21 Na     2.998230   10.476263   15.788247    ( 0.0000,  0.0000,  0.0000)
  22 Na     2.984533    8.545758   18.900120    ( 0.0000,  0.0000,  0.0000)
  23 Na     0.097943   10.704919   19.024831    ( 0.0000,  0.0000,  0.0000)
  24 Na     5.982123    0.000000   10.000000    ( 0.0000,  0.0000,  0.0000)
  25 Na     8.973185    2.115000   10.000000    ( 0.0000,  0.0000,  0.0000)
  26 Na     8.973185    0.000000   12.991062    ( 0.0000,  0.0000,  0.0000)
  27 Na    11.964247    2.115000   12.991062    ( 0.0000,  0.0000,  0.0000)
  28 Na     5.942262   -0.000059   15.911361    ( 0.0000,  0.0000,  0.0000)
  29 Na     8.977617    2.115290   15.943380    ( 0.0000,  0.0000,  0.0000)
  30 Na     8.952181   -0.000363   18.867677    ( 0.0000,  0.0000,  0.0000)
  31 Na     5.879656    2.002337   19.018457    ( 0.0000,  0.0000,  0.0000)
  32 Na     5.982123    4.230000   10.000000    ( 0.0000,  0.0000,  0.0000)
  33 Na     8.973185    6.345000   10.000000    ( 0.0000,  0.0000,  0.0000)
  34 Na     8.973185    4.230000   12.991062    ( 0.0000,  0.0000,  0.0000)
  35 Na    11.964247    6.345000   12.991062    ( 0.0000,  0.0000,  0.0000)
  36 Na     6.018557    4.209588   15.994249    ( 0.0000,  0.0000,  0.0000)
  37 Na     8.970813    6.345088   15.938323    ( 0.0000,  0.0000,  0.0000)
  38 Na     8.931927    4.203060   18.864063    ( 0.0000,  0.0000,  0.0000)
  39 Na     5.941688    6.339545   18.865504    ( 0.0000,  0.0000,  0.0000)
  40 Na     5.982123    8.460000   10.000000    ( 0.0000,  0.0000,  0.0000)
  41 Na     8.973185   10.575000   10.000000    ( 0.0000,  0.0000,  0.0000)
  42 Na     8.973185    8.460000   12.991062    ( 0.0000,  0.0000,  0.0000)
  43 Na    11.964247   10.575000   12.991062    ( 0.0000,  0.0000,  0.0000)
  44 Na     6.017261    8.480441   15.993299    ( 0.0000,  0.0000,  0.0000)
  45 Na     8.977623   10.574623   15.943173    ( 0.0000,  0.0000,  0.0000)
  46 Na     8.931913    8.487302   18.865197    ( 0.0000,  0.0000,  0.0000)
  47 Na     5.875793   10.693245   19.017442    ( 0.0000,  0.0000,  0.0000)
  48 Na    11.964247    0.000000   10.000000    ( 0.0000,  0.0000,  0.0000)
  49 Na    14.955308    2.115000   10.000000    ( 0.0000,  0.0000,  0.0000)
  50 Na    14.955308    0.000000   12.991062    ( 0.0000,  0.0000,  0.0000)
  51 Na    17.946370    2.115000   12.991062    ( 0.0000,  0.0000,  0.0000)
  52 Na    11.963339   -0.000057   15.940262    ( 0.0000,  0.0000,  0.0000)
  53 Na    14.959189    2.115287   15.937755    ( 0.0000,  0.0000,  0.0000)
  54 Na    14.995791    0.022369   18.898185    ( 0.0000,  0.0000,  0.0000)
  55 Na    11.968445    2.116785   18.865451    ( 0.0000,  0.0000,  0.0000)
  56 Na    11.964247    4.230000   10.000000    ( 0.0000,  0.0000,  0.0000)
  57 Na    14.955308    6.345000   10.000000    ( 0.0000,  0.0000,  0.0000)
  58 Na    14.955308    4.230000   12.991062    ( 0.0000,  0.0000,  0.0000)
  59 Na    17.946370    6.345000   12.991062    ( 0.0000,  0.0000,  0.0000)
  60 Na    11.963365    4.230462   15.939252    ( 0.0000,  0.0000,  0.0000)
  61 Na    14.950496    6.340946   15.949363    ( 0.0000,  0.0000,  0.0000)
  62 Na    15.015951    4.180300   18.894334    ( 0.0000,  0.0000,  0.0000)
  63 Na    11.972510    6.339534   18.870401    ( 0.0000,  0.0000,  0.0000)
  64 Na    11.964247    8.460000   10.000000    ( 0.0000,  0.0000,  0.0000)
  65 Na    14.955308   10.575000   10.000000    ( 0.0000,  0.0000,  0.0000)
  66 Na    14.955308    8.460000   12.991062    ( 0.0000,  0.0000,  0.0000)
  67 Na    17.946370   10.575000   12.991062    ( 0.0000,  0.0000,  0.0000)
  68 Na    11.964721    8.459594   15.938267    ( 0.0000,  0.0000,  0.0000)
  69 Na    14.943811   10.578797   15.954218    ( 0.0000,  0.0000,  0.0000)
  70 Na    15.003012    8.487300   18.864204    ( 0.0000,  0.0000,  0.0000)
  71 Na    11.972502   10.578685   18.864736    ( 0.0000,  0.0000,  0.0000)
  72 Na     2.491895    0.353550   21.342978    ( 0.0000,  0.0000,  0.0000)

Unit cell:
           periodic     x           y           z      points  spacing
  1. axis:    yes   17.946370    0.000000    0.000000    60     0.2991
  2. axis:    yes    0.000000   12.690000    0.000000    42     0.3021
  3. axis:    no     0.000000    0.000000   28.973185    96     0.3018

  Lengths:  17.946370  12.690000  28.973185
  Angles:   90.000000  90.000000  90.000000

Effective grid spacing dv^(1/3) = 0.3010

     iter     time        total  log10-change:
                         energy   eigst   dens
iter:   1 07:11:02   -80.296757   -6.35c
iter:   2 07:11:28   -80.296803   -7.11c -3.46
iter:   3 07:11:54   -80.296964c  -7.58c -3.81
iter:   4 07:12:19   -80.297200c  -7.70c -4.17c

Converged after 4 iterations.

Dipole moment: (-6.953869, -6.237989, 0.289671) |e|*Ang

Energy contributions relative to reference atoms: (reference = -322558.566329)

Kinetic:       +157.965086
Potential:     -142.147608
External:        +0.000000
XC:             -98.740618
Entropy (-ST):   -1.343719
Local:           +3.297800
SIC:             +0.000000
--------------------------
Free energy:    -80.969059
Extrapolated:   -80.297200

Showing all kpts
 Kpt  Band  Eigenvalues  Occupancy
  0   253     -1.59597    1.48869
  0   254     -1.58072    1.42853
  0   255     -1.56717    1.37164
  0   256     -1.43075    0.71625

  1   253     -1.59747    1.49437
  1   254     -1.58010    1.42599
  1   255     -1.56686    1.37032
  1   256     -1.43063    0.71570


Fermi level: -1.48910

Gap: 0.136 eV
Transition (v -> c):
  (s=0, k=1, n=255, [0.25, 0.25, 0.00]) -> (s=0, k=0, n=256, [0.25, -0.25, 0.00])
Direct/indirect transitions are different
Direct gap: 0.136 eV
Transition at: (s=0, k=1, n=255, [0.25, 0.25, 0.00])

Forces in eV/Ang:
  0 Na    0.00338    0.00035    0.02381
  1 Na   -0.00096   -0.00188    0.02481
  2 Na    0.00001   -0.00220   -0.03768
  3 Na   -0.00051    0.00854   -0.02024
  4 Na   -0.02148   -0.00018    0.01213
  5 Na    0.00200    0.01703    0.00339
  6 Na    0.05862   -0.04325   -0.14966
  7 Na   -0.03763    0.02627    0.00858
  8 Na    0.00256   -0.00512    0.02648
  9 Na   -0.00044   -0.00155    0.02871
 10 Na   -0.00052    0.03601   -0.05680
 11 Na   -0.00153   -0.00147    0.01347
 12 Na    0.01514   -0.01364   -0.00126
 13 Na   -0.00282   -0.00328   -0.01449
 14 Na    0.00715   -0.00643   -0.00182
 15 Na    0.00661    0.00515    0.00469
 16 Na    0.00171    0.00466    0.02748
 17 Na   -0.00095    0.00360    0.02542
 18 Na   -0.00140   -0.03246   -0.04789
 19 Na    0.00009   -0.00723   -0.01989
 20 Na    0.01571    0.01412   -0.00693
 21 Na   -0.00155   -0.01418    0.00033
 22 Na   -0.00408   -0.00016   -0.00916
 23 Na   -0.01596   -0.00905   -0.00718
 24 Na   -0.00422    0.00030    0.02468
 25 Na   -0.00026   -0.00109    0.02851
 26 Na   -0.00160    0.00001   -0.01267
 27 Na   -0.00032    0.00036   -0.01464
 28 Na    0.01704    0.00240    0.01506
 29 Na   -0.00004   -0.01336   -0.01010
 30 Na    0.00442   -0.00034   -0.00711
 31 Na    0.00651    0.01086   -0.00326
 32 Na   -0.00228   -0.00371    0.02721
 33 Na    0.00208    0.00008    0.03072
 34 Na    0.00186    0.00021   -0.01315
 35 Na   -0.00091    0.00039   -0.01530
 36 Na   -0.01771   -0.01530   -0.00550
 37 Na    0.00864    0.00050   -0.00004
 38 Na   -0.00395   -0.00036   -0.00290
 39 Na   -0.00766    0.00019    0.01058
 40 Na   -0.00122    0.00329    0.02837
 41 Na   -0.00008    0.00101    0.02882
 42 Na    0.00296   -0.00013   -0.01314
 43 Na   -0.00055   -0.00073   -0.01479
 44 Na   -0.01387    0.01188   -0.00276
 45 Na    0.00003    0.01290   -0.01011
 46 Na   -0.00445    0.00067   -0.00321
 47 Na    0.01078   -0.00729   -0.01234
 48 Na   -0.00065    0.00035    0.02824
 49 Na    0.00235   -0.00132    0.02772
 50 Na    0.00323   -0.00205   -0.01392
 51 Na   -0.00053    0.00864   -0.02671
 52 Na   -0.00063    0.00273   -0.00529
 53 Na    0.00177   -0.01333   -0.00063
 54 Na   -0.01200   -0.00819   -0.01033
 55 Na   -0.00102    0.00060   -0.00686
 56 Na   -0.00061    0.00059    0.02834
 57 Na   -0.00182   -0.00000    0.03153
 58 Na   -0.00142    0.00064   -0.01329
 59 Na    0.00363    0.00401    0.00831
 60 Na    0.00038   -0.00148   -0.00477
 61 Na   -0.00727   -0.00111    0.00081
 62 Na   -0.00625    0.00670   -0.01408
 63 Na    0.00102   -0.00017   -0.00716
 64 Na   -0.00062   -0.00090    0.02817
 65 Na    0.00195    0.00137    0.02815
 66 Na   -0.00198    0.00150   -0.00736
 67 Na   -0.00044   -0.01381   -0.02740
 68 Na   -0.00165   -0.00129   -0.00325
 69 Na    0.00549    0.01537   -0.00900
 70 Na    0.00558    0.00059   -0.00020
 71 Na    0.00069   -0.00031   -0.00572
 72 Na   -0.00822    0.02558    0.09402

System changes: positions 

Initializing position-dependent things.

Density initialized from wave functions
         .-------------------------------------------.  
        /|                                           |  
       / |                                           |  
      /  |                                           |  
     /   |                                           |  
    /    |                                           |  
   /     |                                           |  
  /      |                                           |  
 *       |                                           |  
 |       |                                           |  
 |       |                                           |  
 |       |                                           |  
 |       |                                           |  
 |       |                     Na                    |  
 |      Na            Na             Na              |  
 |       |    Na            Na             Na        |  
 |       Na                                          |  
 |   NaNa|          Na            Na                 |  
 |       | Na  Na         Na  Na        Na  Na       |  
 |Na     |       Na  Na         Na  Na            Na |  
 |       |  Na             Na             Na         |  
 |      Na        Na  Na             NNa             |  
 |       |                       Na             Na   |  
 |       |Na  Na        Na  Na         Na  Na        |  
 |   Na  |      Na  Na        Na  Na                 |  
 |       | Na  Na         Na  Na        Na  Na       |  
 |    Na |           Na             Na               |  
 |Na     |       Na             Na                   |  
 |      Na  Na         Na  Na         Na  Na         |  
 |  Na   |        Na             Na                  |  
 |       |Na            Na             Na            |  
 |       |                                           |  
 Na      |      Na            Na                     |  
 |       |                                           |  
 |       |                                           |  
 |       |                                           |  
 |       .-------------------------------------------.  
 |      /                                           /   
 |     /                                           /    
 |    /                                           /     
 |   /                                           /      
 |  /                                           /       
 | /                                           /        
 |/                                           /         
 *-------------------------------------------*          

Atomic positions and initial magnetic moments

Positions:
   0 Na     0.000000    0.000000   10.000000    ( 0.0000,  0.0000,  0.0000)
   1 Na     2.991062    2.115000   10.000000    ( 0.0000,  0.0000,  0.0000)
   2 Na     2.991062    0.000000   12.991062    ( 0.0000,  0.0000,  0.0000)
   3 Na     5.982123    2.115000   12.991062    ( 0.0000,  0.0000,  0.0000)
   4 Na     0.039966   -0.020503   15.878350    ( 0.0000,  0.0000,  0.0000)
   5 Na     2.982894    2.218353   15.771756    ( 0.0000,  0.0000,  0.0000)
   6 Na     2.974959    0.019976   18.334247    ( 0.0000,  0.0000,  0.0000)
   7 Na     0.096125    2.003599   18.907877    ( 0.0000,  0.0000,  0.0000)
   8 Na     0.000000    4.230000   10.000000    ( 0.0000,  0.0000,  0.0000)
   9 Na     2.991062    6.345000   10.000000    ( 0.0000,  0.0000,  0.0000)
  10 Na     2.991062    4.230000   12.991062    ( 0.0000,  0.0000,  0.0000)
  11 Na     5.982123    6.345000   12.991062    ( 0.0000,  0.0000,  0.0000)
  12 Na    -0.035147    4.229588   15.961014    ( 0.0000,  0.0000,  0.0000)
  13 Na     2.998123    6.340776   16.000118    ( 0.0000,  0.0000,  0.0000)
  14 Na     2.971781    4.121163   18.930853    ( 0.0000,  0.0000,  0.0000)
  15 Na     0.032368    6.328138   18.872712    ( 0.0000,  0.0000,  0.0000)
  16 Na     0.000000    8.460000   10.000000    ( 0.0000,  0.0000,  0.0000)
  17 Na     2.991062   10.575000   10.000000    ( 0.0000,  0.0000,  0.0000)
  18 Na     2.991062    8.460000   12.991062    ( 0.0000,  0.0000,  0.0000)
  19 Na     5.982123   10.575000   12.991062    ( 0.0000,  0.0000,  0.0000)
  20 Na    -0.035125    8.480932   16.003294    ( 0.0000,  0.0000,  0.0000)
  21 Na     2.998185   10.475860   15.788286    ( 0.0000,  0.0000,  0.0000)
  22 Na     2.984403    8.545742   18.899853    ( 0.0000,  0.0000,  0.0000)
  23 Na     0.097454   10.704664   19.024617    ( 0.0000,  0.0000,  0.0000)
  24 Na     5.982123    0.000000   10.000000    ( 0.0000,  0.0000,  0.0000)
  25 Na     8.973185    2.115000   10.000000    ( 0.0000,  0.0000,  0.0000)
  26 Na     8.973185    0.000000   12.991062    ( 0.0000,  0.0000,  0.0000)
  27 Na    11.964247    2.115000   12.991062    ( 0.0000,  0.0000,  0.0000)
  28 Na     5.942805    0.000016   15.911804    ( 0.0000,  0.0000,  0.0000)
  29 Na     8.977612    2.114891   15.943071    ( 0.0000,  0.0000,  0.0000)
  30 Na     8.952321   -0.000374   18.867464    ( 0.0000,  0.0000,  0.0000)
  31 Na     5.879854    2.002679   19.018355    ( 0.0000,  0.0000,  0.0000)
  32 Na     5.982123    4.230000   10.000000    ( 0.0000,  0.0000,  0.0000)
  33 Na     8.973185    6.345000   10.000000    ( 0.0000,  0.0000,  0.0000)
  34 Na     8.973185    4.230000   12.991062    ( 0.0000,  0.0000,  0.0000)
  35 Na    11.964247    6.345000   12.991062    ( 0.0000,  0.0000,  0.0000)
  36 Na     6.018022    4.209131   15.994065    ( 0.0000,  0.0000,  0.0000)
  37 Na     8.971076    6.345103   15.938321    ( 0.0000,  0.0000,  0.0000)
  38 Na     8.931815    4.203056   18.863969    ( 0.0000,  0.0000,  0.0000)
  39 Na     5.941461    6.339547   18.865818    ( 0.0000,  0.0000,  0.0000)
  40 Na     5.982123    8.460000   10.000000    ( 0.0000,  0.0000,  0.0000)
  41 Na     8.973185   10.575000   10.000000    ( 0.0000,  0.0000,  0.0000)
  42 Na     8.973185    8.460000   12.991062    ( 0.0000,  0.0000,  0.0000)
  43 Na    11.964247   10.575000   12.991062    ( 0.0000,  0.0000,  0.0000)
  44 Na     6.016842    8.480792   15.993199    ( 0.0000,  0.0000,  0.0000)
  45 Na     8.977623   10.575009   15.942862    ( 0.0000,  0.0000,  0.0000)
  46 Na     8.931786    8.487314   18.865096    ( 0.0000,  0.0000,  0.0000)
  47 Na     5.876124   10.693022   19.017066    ( 0.0000,  0.0000,  0.0000)
  48 Na    11.964247    0.000000   10.000000    ( 0.0000,  0.0000,  0.0000)
  49 Na    14.955308    2.115000   10.000000    ( 0.0000,  0.0000,  0.0000)
  50 Na    14.955308    0.000000   12.991062    ( 0.0000,  0.0000,  0.0000)
  51 Na    17.946370    2.115000   12.991062    ( 0.0000,  0.0000,  0.0000)
  52 Na    11.963320    0.000024   15.940104    ( 0.0000,  0.0000,  0.0000)
  53 Na    14.959248    2.114886   15.937724    ( 0.0000,  0.0000,  0.0000)
  54 Na    14.995439    0.022137   18.897900    ( 0.0000,  0.0000,  0.0000)
  55 Na    11.968416    2.116806   18.865242    ( 0.0000,  0.0000,  0.0000)
  56 Na    11.964247    4.230000   10.000000    ( 0.0000,  0.0000,  0.0000)
  57 Na    14.955308    6.345000   10.000000    ( 0.0000,  0.0000,  0.0000)
  58 Na    14.955308    4.230000   12.991062    ( 0.0000,  0.0000,  0.0000)
  59 Na    17.946370    6.345000   12.991062    ( 0.0000,  0.0000,  0.0000)
  60 Na    11.963373    4.230420   15.939106    ( 0.0000,  0.0000,  0.0000)
  61 Na    14.950268    6.340910   15.949396    ( 0.0000,  0.0000,  0.0000)
  62 Na    15.015765    4.180492   18.893927    ( 0.0000,  0.0000,  0.0000)
  63 Na    11.972544    6.339525   18.870182    ( 0.0000,  0.0000,  0.0000)
  64 Na    11.964247    8.460000   10.000000    ( 0.0000,  0.0000,  0.0000)
  65 Na    14.955308   10.575000   10.000000    ( 0.0000,  0.0000,  0.0000)
  66 Na    14.955308    8.460000   12.991062    ( 0.0000,  0.0000,  0.0000)
  67 Na    17.946370   10.575000   12.991062    ( 0.0000,  0.0000,  0.0000)
  68 Na    11.964669    8.459553   15.938167    ( 0.0000,  0.0000,  0.0000)
  69 Na    14.943970   10.579263   15.953946    ( 0.0000,  0.0000,  0.0000)
  70 Na    15.003175    8.487310   18.864193    ( 0.0000,  0.0000,  0.0000)
  71 Na    11.972528   10.578676   18.864559    ( 0.0000,  0.0000,  0.0000)
  72 Na     2.491267    0.354584   21.345919    ( 0.0000,  0.0000,  0.0000)

Unit cell:
           periodic     x           y           z      points  spacing
  1. axis:    yes   17.946370    0.000000    0.000000    60     0.2991
  2. axis:    yes    0.000000   12.690000    0.000000    42     0.3021
  3. axis:    no     0.000000    0.000000   28.973185    96     0.3018

  Lengths:  17.946370  12.690000  28.973185
  Angles:   90.000000  90.000000  90.000000

Effective grid spacing dv^(1/3) = 0.3010

     iter     time        total  log10-change:
                         energy   eigst   dens
iter:   1 07:21:21   -80.298306   -6.17c
iter:   2 07:21:48   -80.298264   -7.05c -3.43
iter:   3 07:22:16   -80.298393c  -7.63c -3.77
iter:   4 07:22:43   -80.298604c  -7.77c -4.18c

Converged after 4 iterations.

Dipole moment: (-6.920372, -6.206663, 0.289615) |e|*Ang

Energy contributions relative to reference atoms: (reference = -322558.566329)

Kinetic:       +157.371969
Potential:     -141.629665
External:        +0.000000
XC:             -98.666851
Entropy (-ST):   -1.343648
Local:           +3.297767
SIC:             +0.000000
--------------------------
Free energy:    -80.970428
Extrapolated:   -80.298604

Showing all kpts
 Kpt  Band  Eigenvalues  Occupancy
  0   253     -1.59621    1.48837
  0   254     -1.58118    1.42908
  0   255     -1.56745    1.37145
  0   256     -1.43112    0.71643

  1   253     -1.59772    1.49408
  1   254     -1.58057    1.42656
  1   255     -1.56715    1.37014
  1   256     -1.43099    0.71586


Fermi level: -1.48943

Gap: 0.136 eV
Transition (v -> c):
  (s=0, k=1, n=255, [0.25, 0.25, 0.00]) -> (s=0, k=0, n=256, [0.25, -0.25, 0.00])
Direct/indirect transitions are different
Direct gap: 0.136 eV
Transition at: (s=0, k=1, n=255, [0.25, 0.25, 0.00])

Forces in eV/Ang:
  0 Na    0.00311    0.00029    0.02258
  1 Na   -0.00093   -0.00152    0.02354
  2 Na   -0.00018   -0.00204   -0.03562
  3 Na   -0.00068    0.00848   -0.01886
  4 Na   -0.02171   -0.00024    0.00959
  5 Na    0.00220    0.01794    0.00004
  6 Na    0.05623   -0.04160   -0.13833
  7 Na   -0.03673    0.02579    0.01008
  8 Na    0.00258   -0.00488    0.02530
  9 Na   -0.00043   -0.00151    0.02732
 10 Na   -0.00062    0.03556   -0.05531
 11 Na   -0.00156   -0.00160    0.01402
 12 Na    0.01479   -0.01318   -0.00208
 13 Na   -0.00292   -0.00329   -0.01453
 14 Na    0.00703   -0.00526   -0.00099
 15 Na    0.00656    0.00504    0.00482
 16 Na    0.00174    0.00448    0.02626
 17 Na   -0.00095    0.00320    0.02410
 18 Na   -0.00154   -0.03219   -0.04669
 19 Na    0.00006   -0.00704   -0.01873
 20 Na    0.01555    0.01376   -0.00723
 21 Na   -0.00145   -0.01544   -0.00282
 22 Na   -0.00396   -0.00093   -0.00883
 23 Na   -0.01596   -0.00932   -0.00599
 24 Na   -0.00384    0.00028    0.02341
 25 Na   -0.00002   -0.00139    0.02780
 26 Na   -0.00146   -0.00001   -0.01235
 27 Na   -0.00043    0.00039   -0.01463
 28 Na    0.01693    0.00239    0.01333
 29 Na   -0.00045   -0.01305   -0.01032
 30 Na    0.00424   -0.00033   -0.00674
 31 Na    0.00689    0.01094   -0.00238
 32 Na   -0.00231   -0.00354    0.02614
 33 Na    0.00173    0.00005    0.03042
 34 Na    0.00214    0.00022   -0.01281
 35 Na   -0.00110    0.00044   -0.01496
 36 Na   -0.01750   -0.01502   -0.00585
 37 Na    0.00837    0.00044   -0.00036
 38 Na   -0.00396   -0.00021   -0.00245
 39 Na   -0.00763    0.00012    0.01071
 40 Na   -0.00128    0.00314    0.02727
 41 Na    0.00006    0.00134    0.02820
 42 Na    0.00336   -0.00012   -0.01286
 43 Na   -0.00065   -0.00082   -0.01466
 44 Na   -0.01380    0.01164   -0.00290
 45 Na   -0.00026    0.01265   -0.01029
 46 Na   -0.00440    0.00051   -0.00279
 47 Na    0.01129   -0.00769   -0.01158
 48 Na   -0.00078    0.00045    0.02764
 49 Na    0.00211   -0.00147    0.02684
 50 Na    0.00341   -0.00206   -0.01298
 51 Na   -0.00036    0.00840   -0.02501
 52 Na   -0.00026    0.00262   -0.00552
 53 Na    0.00210   -0.01326   -0.00112
 54 Na   -0.01206   -0.00809   -0.00990
 55 Na   -0.00084    0.00073   -0.00637
 56 Na   -0.00059    0.00010    0.02812
 57 Na   -0.00152   -0.00000    0.03093
 58 Na   -0.00159    0.00045   -0.01278
 59 Na    0.00389    0.00386    0.00911
 60 Na    0.00047   -0.00140   -0.00506
 61 Na   -0.00684   -0.00115    0.00070
 62 Na   -0.00628    0.00679   -0.01360
 63 Na    0.00098   -0.00015   -0.00667
 64 Na   -0.00056   -0.00050    0.02806
 65 Na    0.00182    0.00153    0.02737
 66 Na   -0.00225    0.00170   -0.00700
 67 Na   -0.00039   -0.01341   -0.02588
 68 Na   -0.00161   -0.00126   -0.00371
 69 Na    0.00568    0.01531   -0.00930
 70 Na    0.00547    0.00054    0.00012
 71 Na    0.00078   -0.00046   -0.00522
 72 Na   -0.00769    0.02526    0.08750

System changes: positions 

Initializing position-dependent things.

Density initialized from wave functions
         .-------------------------------------------.  
        /|                                           |  
       / |                                           |  
      /  |                                           |  
     /   |                                           |  
    /    |                                           |  
   /     |                                           |  
  /      |                                           |  
 *       |                                           |  
 |       |                                           |  
 |       |                                           |  
 |       |                                           |  
 |       |                                           |  
 |       |                     Na                    |  
 |      Na            Na             Na              |  
 |       |    Na            Na             Na        |  
 |       Na                                          |  
 |   NaNa|          Na            Na                 |  
 |       | Na  Na         Na  Na        Na  Na       |  
 |Na     |       Na  Na         Na  Na            Na |  
 |       |  Na             Na             Na         |  
 |      Na        Na  Na             NNa             |  
 |       |                       Na             Na   |  
 |       |Na  Na        Na  Na         Na  Na        |  
 |   Na  |      Na  Na        Na  Na                 |  
 |       | Na  Na         Na  Na        Na  Na       |  
 |    Na |           Na             Na               |  
 |Na     |       Na             Na                   |  
 |      Na  Na         Na  Na         Na  Na         |  
 |  Na   |        Na             Na                  |  
 |       |Na            Na             Na            |  
 |       |                                           |  
 Na      |      Na            Na                     |  
 |       |                                           |  
 |       |                                           |  
 |       |                                           |  
 |       .-------------------------------------------.  
 |      /                                           /   
 |     /                                           /    
 |    /                                           /     
 |   /                                           /      
 |  /                                           /       
 | /                                           /        
 |/                                           /         
 *-------------------------------------------*          

Atomic positions and initial magnetic moments

Positions:
   0 Na     0.000000    0.000000   10.000000    ( 0.0000,  0.0000,  0.0000)
   1 Na     2.991062    2.115000   10.000000    ( 0.0000,  0.0000,  0.0000)
   2 Na     2.991062    0.000000   12.991062    ( 0.0000,  0.0000,  0.0000)
   3 Na     5.982123    2.115000   12.991062    ( 0.0000,  0.0000,  0.0000)
   4 Na     0.039074   -0.020527   15.878776    ( 0.0000,  0.0000,  0.0000)
   5 Na     2.982965    2.219033   15.771874    ( 0.0000,  0.0000,  0.0000)
   6 Na     2.977303    0.018255   18.328376    ( 0.0000,  0.0000,  0.0000)
   7 Na     0.094597    2.004670   18.908127    ( 0.0000,  0.0000,  0.0000)
   8 Na     0.000000    4.230000   10.000000    ( 0.0000,  0.0000,  0.0000)
   9 Na     2.991062    6.345000   10.000000    ( 0.0000,  0.0000,  0.0000)
  10 Na     2.991062    4.230000   12.991062    ( 0.0000,  0.0000,  0.0000)
  11 Na     5.982123    6.345000   12.991062    ( 0.0000,  0.0000,  0.0000)
  12 Na    -0.034532    4.229064   15.960903    ( 0.0000,  0.0000,  0.0000)
  13 Na     2.998015    6.340640   15.999526    ( 0.0000,  0.0000,  0.0000)
  14 Na     2.972051    4.120892   18.930823    ( 0.0000,  0.0000,  0.0000)
  15 Na     0.032627    6.328332   18.872906    ( 0.0000,  0.0000,  0.0000)
  16 Na     0.000000    8.460000   10.000000    ( 0.0000,  0.0000,  0.0000)
  17 Na     2.991062   10.575000   10.000000    ( 0.0000,  0.0000,  0.0000)
  18 Na     2.991062    8.460000   12.991062    ( 0.0000,  0.0000,  0.0000)
  19 Na     5.982123   10.575000   12.991062    ( 0.0000,  0.0000,  0.0000)
  20 Na    -0.034488    8.481492   16.003000    ( 0.0000,  0.0000,  0.0000)
  21 Na     2.998128   10.475299   15.788296    ( 0.0000,  0.0000,  0.0000)
  22 Na     2.984232    8.545710   18.899493    ( 0.0000,  0.0000,  0.0000)
  23 Na     0.096796   10.704308   19.024339    ( 0.0000,  0.0000,  0.0000)
  24 Na     5.982123    0.000000   10.000000    ( 0.0000,  0.0000,  0.0000)
  25 Na     8.973185    2.115000   10.000000    ( 0.0000,  0.0000,  0.0000)
  26 Na     8.973185    0.000000   12.991062    ( 0.0000,  0.0000,  0.0000)
  27 Na    11.964247    2.115000   12.991062    ( 0.0000,  0.0000,  0.0000)
  28 Na     5.943520    0.000116   15.912382    ( 0.0000,  0.0000,  0.0000)
  29 Na     8.977601    2.114358   15.942656    ( 0.0000,  0.0000,  0.0000)
  30 Na     8.952504   -0.000388   18.867183    ( 0.0000,  0.0000,  0.0000)
  31 Na     5.880128    2.003138   19.018224    ( 0.0000,  0.0000,  0.0000)
  32 Na     5.982123    4.230000   10.000000    ( 0.0000,  0.0000,  0.0000)
  33 Na     8.973185    6.345000   10.000000    ( 0.0000,  0.0000,  0.0000)
  34 Na     8.973185    4.230000   12.991062    ( 0.0000,  0.0000,  0.0000)
  35 Na    11.964247    6.345000   12.991062    ( 0.0000,  0.0000,  0.0000)
  36 Na     6.017307    4.208521   15.993819    ( 0.0000,  0.0000,  0.0000)
  37 Na     8.971423    6.345122   15.938315    ( 0.0000,  0.0000,  0.0000)
  38 Na     8.931663    4.203052   18.863851    ( 0.0000,  0.0000,  0.0000)
  39 Na     5.941155    6.339550   18.866242    ( 0.0000,  0.0000,  0.0000)
  40 Na     5.982123    8.460000   10.000000    ( 0.0000,  0.0000,  0.0000)
  41 Na     8.973185   10.575000   10.000000    ( 0.0000,  0.0000,  0.0000)
  42 Na     8.973185    8.460000   12.991062    ( 0.0000,  0.0000,  0.0000)
  43 Na    11.964247   10.575000   12.991062    ( 0.0000,  0.0000,  0.0000)
  44 Na     6.016280    8.481261   15.993068    ( 0.0000,  0.0000,  0.0000)
  45 Na     8.977619   10.575523   15.942445    ( 0.0000,  0.0000,  0.0000)
  46 Na     8.931616    8.487331   18.864967    ( 0.0000,  0.0000,  0.0000)
  47 Na     5.876574   10.692714   19.016566    ( 0.0000,  0.0000,  0.0000)
  48 Na    11.964247    0.000000   10.000000    ( 0.0000,  0.0000,  0.0000)
  49 Na    14.955308    2.115000   10.000000    ( 0.0000,  0.0000,  0.0000)
  50 Na    14.955308    0.000000   12.991062    ( 0.0000,  0.0000,  0.0000)
  51 Na    17.946370    2.115000   12.991062    ( 0.0000,  0.0000,  0.0000)
  52 Na    11.963299    0.000132   15.939889    ( 0.0000,  0.0000,  0.0000)
  53 Na    14.959332    2.114349   15.937679    ( 0.0000,  0.0000,  0.0000)
  54 Na    14.994966    0.021827   18.897520    ( 0.0000,  0.0000,  0.0000)
  55 Na    11.968380    2.116835   18.864971    ( 0.0000,  0.0000,  0.0000)
  56 Na    11.964247    4.230000   10.000000    ( 0.0000,  0.0000,  0.0000)
  57 Na    14.955308    6.345000   10.000000    ( 0.0000,  0.0000,  0.0000)
  58 Na    14.955308    4.230000   12.991062    ( 0.0000,  0.0000,  0.0000)
  59 Na    17.946370    6.345000   12.991062    ( 0.0000,  0.0000,  0.0000)
  60 Na    11.963386    4.230364   15.938908    ( 0.0000,  0.0000,  0.0000)
  61 Na    14.949971    6.340861   15.949438    ( 0.0000,  0.0000,  0.0000)
  62 Na    15.015517    4.180749   18.893389    ( 0.0000,  0.0000,  0.0000)
  63 Na    11.972591    6.339514   18.869896    ( 0.0000,  0.0000,  0.0000)
  64 Na    11.964247    8.460000   10.000000    ( 0.0000,  0.0000,  0.0000)
  65 Na    14.955308   10.575000   10.000000    ( 0.0000,  0.0000,  0.0000)
  66 Na    14.955308    8.460000   12.991062    ( 0.0000,  0.0000,  0.0000)
  67 Na    17.946370   10.575000   12.991062    ( 0.0000,  0.0000,  0.0000)
  68 Na    11.964602    8.459500   15.938028    ( 0.0000,  0.0000,  0.0000)
  69 Na    14.944187   10.579887   15.953580    ( 0.0000,  0.0000,  0.0000)
  70 Na    15.003394    8.487325   18.864185    ( 0.0000,  0.0000,  0.0000)
  71 Na    11.972565   10.578664   18.864331    ( 0.0000,  0.0000,  0.0000)
  72 Na     2.490467    0.355944   21.349726    ( 0.0000,  0.0000,  0.0000)

Unit cell:
           periodic     x           y           z      points  spacing
  1. axis:    yes   17.946370    0.000000    0.000000    60     0.2991
  2. axis:    yes    0.000000   12.690000    0.000000    42     0.3021
  3. axis:    no     0.000000    0.000000   28.973185    96     0.3018

  Lengths:  17.946370  12.690000  28.973185
  Angles:   90.000000  90.000000  90.000000

Effective grid spacing dv^(1/3) = 0.3010

     iter     time        total  log10-change:
                         energy   eigst   dens
iter:   1 07:32:05   -80.300130   -6.00c
iter:   2 07:32:30   -80.299838   -6.85c -3.31
iter:   3 07:32:55   -80.299985c  -7.44c -3.67
iter:   4 07:33:20   -80.300271c  -7.58c -4.04c

Converged after 4 iterations.

Dipole moment: (-6.877823, -6.166000, 0.290555) |e|*Ang

Energy contributions relative to reference atoms: (reference = -322558.566329)

Kinetic:       +157.602837
Potential:     -141.835654
External:        +0.000000
XC:             -98.694158
Entropy (-ST):   -1.343660
Local:           +3.298535
SIC:             +0.000000
--------------------------
Free energy:    -80.972101
Extrapolated:   -80.300271

Showing all kpts
 Kpt  Band  Eigenvalues  Occupancy
  0   253     -1.59584    1.48835
  0   254     -1.58067    1.42851
  0   255     -1.56708    1.37142
  0   256     -1.43079    0.71660

  1   253     -1.59736    1.49413
  1   254     -1.58005    1.42597
  1   255     -1.56678    1.37014
  1   256     -1.43065    0.71599


Fermi level: -1.48906

Gap: 0.136 eV
Transition (v -> c):
  (s=0, k=1, n=255, [0.25, 0.25, 0.00]) -> (s=0, k=0, n=256, [0.25, -0.25, 0.00])
Direct/indirect transitions are different
Direct gap: 0.136 eV
Transition at: (s=0, k=1, n=255, [0.25, 0.25, 0.00])

Forces in eV/Ang:
  0 Na    0.00336    0.00038    0.02337
  1 Na   -0.00097   -0.00188    0.02441
  2 Na   -0.00006   -0.00214   -0.03688
  3 Na   -0.00049    0.00861   -0.02022
  4 Na   -0.02030   -0.00021    0.01136
  5 Na    0.00218    0.01750    0.00115
  6 Na    0.05288   -0.03952   -0.12832
  7 Na   -0.03502    0.02472    0.00850
  8 Na    0.00247   -0.00513    0.02634
  9 Na   -0.00043   -0.00159    0.02861
 10 Na   -0.00055    0.03608   -0.05677
 11 Na   -0.00174   -0.00151    0.01311
 12 Na    0.01418   -0.01303   -0.00085
 13 Na   -0.00286   -0.00327   -0.01356
 14 Na    0.00665   -0.00512   -0.00199
 15 Na    0.00644    0.00470    0.00465
 16 Na    0.00160    0.00465    0.02738
 17 Na   -0.00096    0.00363    0.02508
 18 Na   -0.00150   -0.03262   -0.04797
 19 Na    0.00015   -0.00725   -0.01989
 20 Na    0.01503    0.01372   -0.00609
 21 Na   -0.00136   -0.01562   -0.00232
 22 Na   -0.00384   -0.00029   -0.00965
 23 Na   -0.01529   -0.00918   -0.00747
 24 Na   -0.00423    0.00033    0.02426
 25 Na   -0.00023   -0.00102    0.02832
 26 Na   -0.00138    0.00003   -0.01302
 27 Na   -0.00037    0.00038   -0.01494
 28 Na    0.01579    0.00223    0.01455
 29 Na   -0.00006   -0.01281   -0.00943
 30 Na    0.00398   -0.00027   -0.00707
 31 Na    0.00677    0.01047   -0.00362
 32 Na   -0.00224   -0.00370    0.02707
 33 Na    0.00211    0.00006    0.03069
 34 Na    0.00205    0.00022   -0.01356
 35 Na   -0.00087    0.00036   -0.01555
 36 Na   -0.01703   -0.01482   -0.00469
 37 Na    0.00818    0.00042   -0.00007
 38 Na   -0.00385   -0.00049   -0.00259
 39 Na   -0.00767    0.00002    0.01048
 40 Na   -0.00116    0.00326    0.02825
 41 Na   -0.00005    0.00096    0.02866
 42 Na    0.00315   -0.00017   -0.01357
 43 Na   -0.00056   -0.00073   -0.01506
 44 Na   -0.01346    0.01164   -0.00207
 45 Na   -0.00004    0.01243   -0.00938
 46 Na   -0.00429    0.00076   -0.00295
 47 Na    0.01108   -0.00770   -0.01264
 48 Na   -0.00061    0.00037    0.02809
 49 Na    0.00236   -0.00126    0.02751
 50 Na    0.00322   -0.00201   -0.01404
 51 Na   -0.00060    0.00868   -0.02657
 52 Na   -0.00041    0.00265   -0.00491
 53 Na    0.00188   -0.01282   -0.00018
 54 Na   -0.01165   -0.00794   -0.01017
 55 Na   -0.00085    0.00057   -0.00663
 56 Na   -0.00057    0.00065    0.02830
 57 Na   -0.00186   -0.00002    0.03153
 58 Na   -0.00156    0.00066   -0.01357
 59 Na    0.00382    0.00396    0.00811
 60 Na    0.00056   -0.00149   -0.00451
 61 Na   -0.00671   -0.00108    0.00082
 62 Na   -0.00605    0.00659   -0.01360
 63 Na    0.00101   -0.00017   -0.00696
 64 Na   -0.00058   -0.00098    0.02813
 65 Na    0.00194    0.00133    0.02800
 66 Na   -0.00206    0.00145   -0.00775
 67 Na   -0.00056   -0.01378   -0.02724
 68 Na   -0.00145   -0.00118   -0.00321
 69 Na    0.00541    0.01475   -0.00822
 70 Na    0.00547    0.00078   -0.00009
 71 Na    0.00072   -0.00030   -0.00542
 72 Na   -0.00658    0.02462    0.07825

System changes: positions 

Initializing position-dependent things.

Density initialized from wave functions
         .-------------------------------------------.  
        /|                                           |  
       / |                                           |  
      /  |                                           |  
     /   |                                           |  
    /    |                                           |  
   /     |                                           |  
  /      |                                           |  
 *       |                                           |  
 |       |                                           |  
 |       |                                           |  
 |       |                                           |  
 |       |                                           |  
 |       |                     Na                    |  
 |      Na            Na             Na              |  
 |       |    Na            Na             Na        |  
 |       Na                                          |  
 |   NaNa|          Na            Na                 |  
 |       | Na  Na         Na  Na        Na  Na       |  
 |Na     |       Na  Na         Na  Na            Na |  
 |       |  Na             Na             Na         |  
 |      Na        Na  Na             NNa             |  
 |       |                       Na             Na   |  
 |       |Na  Na        Na  Na         Na  Na        |  
 |   Na  |      Na  Na        Na  Na                 |  
 |       | Na  Na         Na  Na        Na  Na       |  
 |    Na |           Na             Na               |  
 |Na     |       Na             Na                   |  
 |      Na  Na         Na  Na         Na  Na         |  
 |  Na   |        Na             Na                  |  
 |       |Na            Na             Na            |  
 |       |                                           |  
 Na      |      Na            Na                     |  
 |       |                                           |  
 |       |                                           |  
 |       |                                           |  
 |       .-------------------------------------------.  
 |      /                                           /   
 |     /                                           /    
 |    /                                           /     
 |   /                                           /      
 |  /                                           /       
 | /                                           /        
 |/                                           /         
 *-------------------------------------------*          

Atomic positions and initial magnetic moments

Positions:
   0 Na     0.000000    0.000000   10.000000    ( 0.0000,  0.0000,  0.0000)
   1 Na     2.991062    2.115000   10.000000    ( 0.0000,  0.0000,  0.0000)
   2 Na     2.991062    0.000000   12.991062    ( 0.0000,  0.0000,  0.0000)
   3 Na     5.982123    2.115000   12.991062    ( 0.0000,  0.0000,  0.0000)
   4 Na     0.037974   -0.020557   15.879318    ( 0.0000,  0.0000,  0.0000)
   5 Na     2.983060    2.219895   15.772004    ( 0.0000,  0.0000,  0.0000)
   6 Na     2.980182    0.016133   18.321252    ( 0.0000,  0.0000,  0.0000)
   7 Na     0.092704    2.006002   18.908439    ( 0.0000,  0.0000,  0.0000)
   8 Na     0.000000    4.230000   10.000000    ( 0.0000,  0.0000,  0.0000)
   9 Na     2.991062    6.345000   10.000000    ( 0.0000,  0.0000,  0.0000)
  10 Na     2.991062    4.230000   12.991062    ( 0.0000,  0.0000,  0.0000)
  11 Na     5.982123    6.345000   12.991062    ( 0.0000,  0.0000,  0.0000)
  12 Na    -0.033769    4.228409   15.960780    ( 0.0000,  0.0000,  0.0000)
  13 Na     2.997878    6.340468   15.998796    ( 0.0000,  0.0000,  0.0000)
  14 Na     2.972386    4.120572   18.930773    ( 0.0000,  0.0000,  0.0000)
  15 Na     0.032952    6.328570   18.873151    ( 0.0000,  0.0000,  0.0000)
  16 Na     0.000000    8.460000   10.000000    ( 0.0000,  0.0000,  0.0000)
  17 Na     2.991062   10.575000   10.000000    ( 0.0000,  0.0000,  0.0000)
  18 Na     2.991062    8.460000   12.991062    ( 0.0000,  0.0000,  0.0000)
  19 Na     5.982123   10.575000   12.991062    ( 0.0000,  0.0000,  0.0000)
  20 Na    -0.033693    8.482194   16.002646    ( 0.0000,  0.0000,  0.0000)
  21 Na     2.998059   10.474573   15.788282    ( 0.0000,  0.0000,  0.0000)
  22 Na     2.984020    8.545673   18.899026    ( 0.0000,  0.0000,  0.0000)
  23 Na     0.095977   10.703853   19.023974    ( 0.0000,  0.0000,  0.0000)
  24 Na     5.982123    0.000000   10.000000    ( 0.0000,  0.0000,  0.0000)
  25 Na     8.973185    2.115000   10.000000    ( 0.0000,  0.0000,  0.0000)
  26 Na     8.973185    0.000000   12.991062    ( 0.0000,  0.0000,  0.0000)
  27 Na    11.964247    2.115000   12.991062    ( 0.0000,  0.0000,  0.0000)
  28 Na     5.944396    0.000238   15.913116    ( 0.0000,  0.0000,  0.0000)
  29 Na     8.977590    2.113692   15.942145    ( 0.0000,  0.0000,  0.0000)
  30 Na     8.952728   -0.000405   18.866827    ( 0.0000,  0.0000,  0.0000)
  31 Na     5.880477    2.003710   19.018045    ( 0.0000,  0.0000,  0.0000)
  32 Na     5.982123    4.230000   10.000000    ( 0.0000,  0.0000,  0.0000)
  33 Na     8.973185    6.345000   10.000000    ( 0.0000,  0.0000,  0.0000)
  34 Na     8.973185    4.230000   12.991062    ( 0.0000,  0.0000,  0.0000)
  35 Na    11.964247    6.345000   12.991062    ( 0.0000,  0.0000,  0.0000)
  36 Na     6.016413    4.207757   15.993527    ( 0.0000,  0.0000,  0.0000)
  37 Na     8.971855    6.345146   15.938309    ( 0.0000,  0.0000,  0.0000)
  38 Na     8.931472    4.203042   18.863708    ( 0.0000,  0.0000,  0.0000)
  39 Na     5.940767    6.339552   18.866777    ( 0.0000,  0.0000,  0.0000)
  40 Na     5.982123    8.460000   10.000000    ( 0.0000,  0.0000,  0.0000)
  41 Na     8.973185   10.575000   10.000000    ( 0.0000,  0.0000,  0.0000)
  42 Na     8.973185    8.460000   12.991062    ( 0.0000,  0.0000,  0.0000)
  43 Na    11.964247   10.575000   12.991062    ( 0.0000,  0.0000,  0.0000)
  44 Na     6.015576    8.481852   15.992918    ( 0.0000,  0.0000,  0.0000)
  45 Na     8.977615   10.576168   15.941933    ( 0.0000,  0.0000,  0.0000)
  46 Na     8.931402    8.487356   18.864809    ( 0.0000,  0.0000,  0.0000)
  47 Na     5.877144   10.692319   19.015923    ( 0.0000,  0.0000,  0.0000)
  48 Na    11.964247    0.000000   10.000000    ( 0.0000,  0.0000,  0.0000)
  49 Na    14.955308    2.115000   10.000000    ( 0.0000,  0.0000,  0.0000)
  50 Na    14.955308    0.000000   12.991062    ( 0.0000,  0.0000,  0.0000)
  51 Na    17.946370    2.115000   12.991062    ( 0.0000,  0.0000,  0.0000)
  52 Na    11.963274    0.000268   15.939623    ( 0.0000,  0.0000,  0.0000)
  53 Na    14.959437    2.113679   15.937635    ( 0.0000,  0.0000,  0.0000)
  54 Na    14.994374    0.021438   18.897036    ( 0.0000,  0.0000,  0.0000)
  55 Na    11.968337    2.116868   18.864629    ( 0.0000,  0.0000,  0.0000)
  56 Na    11.964247    4.230000   10.000000    ( 0.0000,  0.0000,  0.0000)
  57 Na    14.955308    6.345000   10.000000    ( 0.0000,  0.0000,  0.0000)
  58 Na    14.955308    4.230000   12.991062    ( 0.0000,  0.0000,  0.0000)
  59 Na    17.946370    6.345000   12.991062    ( 0.0000,  0.0000,  0.0000)
  60 Na    11.963406    4.230292   15.938664    ( 0.0000,  0.0000,  0.0000)
  61 Na    14.949603    6.340800   15.949490    ( 0.0000,  0.0000,  0.0000)
  62 Na    15.015208    4.181074   18.892713    ( 0.0000,  0.0000,  0.0000)
  63 Na    11.972650    6.339500   18.869537    ( 0.0000,  0.0000,  0.0000)
  64 Na    11.964247    8.460000   10.000000    ( 0.0000,  0.0000,  0.0000)
  65 Na    14.955308   10.575000   10.000000    ( 0.0000,  0.0000,  0.0000)
  66 Na    14.955308    8.460000   12.991062    ( 0.0000,  0.0000,  0.0000)
  67 Na    17.946370   10.575000   12.991062    ( 0.0000,  0.0000,  0.0000)
  68 Na    11.964520    8.459435   15.937856    ( 0.0000,  0.0000,  0.0000)
  69 Na    14.944460   10.580665   15.953134    ( 0.0000,  0.0000,  0.0000)
  70 Na    15.003670    8.487348   18.864177    ( 0.0000,  0.0000,  0.0000)
  71 Na    11.972610   10.578650   18.864047    ( 0.0000,  0.0000,  0.0000)
  72 Na     2.489524    0.357616   21.354297    ( 0.0000,  0.0000,  0.0000)

Unit cell:
           periodic     x           y           z      points  spacing
  1. axis:    yes   17.946370    0.000000    0.000000    60     0.2991
  2. axis:    yes    0.000000   12.690000    0.000000    42     0.3021
  3. axis:    no     0.000000    0.000000   28.973185    96     0.3018

  Lengths:  17.946370  12.690000  28.973185
  Angles:   90.000000  90.000000  90.000000

Effective grid spacing dv^(1/3) = 0.3010

     iter     time        total  log10-change:
                         energy   eigst   dens
iter:   1 07:43:15   -80.302368   -5.80c
iter:   2 07:43:40   -80.301726   -6.65c -3.22
iter:   3 07:44:03   -80.301853c  -7.25c -3.57
iter:   4 07:44:27   -80.302172c  -7.40c -3.98
iter:   5 07:44:51   -80.302194c  -7.82c -4.25c

Converged after 5 iterations.

Dipole moment: (-6.820127, -6.114219, 0.290189) |e|*Ang

Energy contributions relative to reference atoms: (reference = -322558.566329)

Kinetic:       +157.475954
Potential:     -141.729273
External:        +0.000000
XC:             -98.675702
Entropy (-ST):   -1.343518
Local:           +3.298586
SIC:             +0.000000
--------------------------
Free energy:    -80.973953
Extrapolated:   -80.302194

Showing all kpts
 Kpt  Band  Eigenvalues  Occupancy
  0   253     -1.59608    1.48805
  0   254     -1.58113    1.42910
  0   255     -1.56735    1.37125
  0   256     -1.43119    0.71699

  1   253     -1.59761    1.49387
  1   254     -1.58052    1.42657
  1   255     -1.56705    1.36997
  1   256     -1.43104    0.71634


Fermi level: -1.48938

Gap: 0.136 eV
Transition (v -> c):
  (s=0, k=1, n=255, [0.25, 0.25, 0.00]) -> (s=0, k=0, n=256, [0.25, -0.25, 0.00])
Direct/indirect transitions are different
Direct gap: 0.136 eV
Transition at: (s=0, k=1, n=255, [0.25, 0.25, 0.00])

Forces in eV/Ang:
  0 Na    0.00325    0.00031    0.02272
  1 Na   -0.00084   -0.00164    0.02372
  2 Na   -0.00011   -0.00192   -0.03574
  3 Na   -0.00035    0.00846   -0.01940
  4 Na   -0.01991    0.00015    0.00961
  5 Na    0.00186    0.01824   -0.00152
[...]
 19 Na    0.00050   -0.00699   -0.01974
 20 Na    0.01142    0.01103   -0.00653
 21 Na   -0.00193   -0.01865   -0.01084
 22 Na   -0.00351    0.00046   -0.00816
 23 Na   -0.01041   -0.00435   -0.00488
 24 Na   -0.00437    0.00022    0.02455
 25 Na   -0.00032   -0.00119    0.02877
 26 Na   -0.00138   -0.00012   -0.01385
 27 Na   -0.00060    0.00078   -0.01488
 28 Na    0.01589    0.00242    0.00901
 29 Na    0.00034   -0.00940   -0.00955
 30 Na    0.00381   -0.00016   -0.00624
 31 Na    0.00491    0.00922   -0.00117
 32 Na   -0.00239   -0.00364    0.02743
 33 Na    0.00175    0.00013    0.03157
 34 Na    0.00191    0.00086   -0.01236
 35 Na   -0.00121    0.00055   -0.01447
 36 Na   -0.01281   -0.01136   -0.00485
 37 Na    0.00577    0.00030   -0.00121
 38 Na   -0.00352    0.00024   -0.00380
 39 Na   -0.00599   -0.00039    0.00847
 40 Na   -0.00129    0.00330    0.02858
 41 Na   -0.00018    0.00105    0.02923
 42 Na    0.00313   -0.00066   -0.01237
 43 Na   -0.00079   -0.00133   -0.01461
 44 Na   -0.00958    0.00831   -0.00290
 45 Na    0.00076    0.00911   -0.00959
 46 Na   -0.00342    0.00001   -0.00421
 47 Na    0.01111   -0.00803   -0.00943
 48 Na   -0.00077    0.00033    0.02846
 49 Na    0.00246   -0.00132    0.02786
 50 Na    0.00332   -0.00188   -0.01451
 51 Na   -0.00034    0.00822   -0.02583
 52 Na   -0.00048    0.00193   -0.00558
 53 Na    0.00161   -0.01022   -0.00172
 54 Na   -0.01015   -0.00762   -0.00855
 55 Na   -0.00138    0.00119   -0.00655
 56 Na   -0.00064    0.00044    0.02899
 57 Na   -0.00154    0.00002    0.03209
 58 Na   -0.00152    0.00088   -0.01244
 59 Na    0.00326    0.00374    0.00898
 60 Na   -0.00003   -0.00108   -0.00540
 61 Na   -0.00494   -0.00039   -0.00103
 62 Na   -0.00620    0.00706   -0.01319
 63 Na   -0.00007    0.00033   -0.00758
 64 Na   -0.00065   -0.00072    0.02896
 65 Na    0.00204    0.00135    0.02840
 66 Na   -0.00232    0.00113   -0.00673
 67 Na   -0.00054   -0.01307   -0.02706
 68 Na   -0.00149   -0.00084   -0.00420
 69 Na    0.00392    0.01129   -0.00867
 70 Na    0.00429    0.00071   -0.00123
 71 Na    0.00002   -0.00146   -0.00578
 72 Na   -0.00425    0.02249    0.03907

System changes: positions 

Initializing position-dependent things.

Density initialized from wave functions
         .-------------------------------------------.  
        /|                                           |  
       / |                                           |  
      /  |                                           |  
     /   |                                           |  
    /    |                                           |  
   /     |                                           |  
  /      |                                           |  
 *       |                                           |  
 |       |                                           |  
 |       |                                           |  
 |       |                                           |  
 |       |                                           |  
 |       |                     Na                    |  
 |      Na            Na             Na              |  
 |       |    Na            Na             Na        |  
 |       Na                                          |  
 |   NaNa|          Na            Na                 |  
 |       | Na  Na         Na  Na        Na  Na       |  
 |Na     |       Na  Na         Na  Na            Na |  
 |       |  Na             Na             Na         |  
 |      Na        Na  Na             NNa             |  
 |       |                       Na             Na   |  
 |       |Na  Na        Na  Na         Na  Na        |  
 |   Na  |      Na  Na        Na  Na                 |  
 |       | Na  Na         Na  Na        Na  Na       |  
 |    Na |           Na             Na               |  
 |Na     |       Na             Na                   |  
 |      Na  Na         Na  Na         Na  Na         |  
 |  Na   |        Na             Na                  |  
 |       |Na            Na             Na            |  
 |       |                                           |  
 Na      |      Na            Na                     |  
 |       |                                           |  
 |       |                                           |  
 |       |                                           |  
 |       .-------------------------------------------.  
 |      /                                           /   
 |     /                                           /    
 |    /                                           /     
 |   /                                           /      
 |  /                                           /       
 | /                                           /        
 |/                                           /         
 *-------------------------------------------*          

Atomic positions and initial magnetic moments

Positions:
   0 Na     0.000000    0.000000   10.000000    ( 0.0000,  0.0000,  0.0000)
   1 Na     2.991062    2.115000   10.000000    ( 0.0000,  0.0000,  0.0000)
   2 Na     2.991062    0.000000   12.991062    ( 0.0000,  0.0000,  0.0000)
   3 Na     5.982123    2.115000   12.991062    ( 0.0000,  0.0000,  0.0000)
   4 Na     0.033215   -0.020601   15.881689    ( 0.0000,  0.0000,  0.0000)
   5 Na     2.983443    2.223966   15.772140    ( 0.0000,  0.0000,  0.0000)
   6 Na     2.992018    0.007258   18.293116    ( 0.0000,  0.0000,  0.0000)
   7 Na     0.084865    2.011558   18.910167    ( 0.0000,  0.0000,  0.0000)
   8 Na     0.000000    4.230000   10.000000    ( 0.0000,  0.0000,  0.0000)
   9 Na     2.991062    6.345000   10.000000    ( 0.0000,  0.0000,  0.0000)
  10 Na     2.991062    4.230000   12.991062    ( 0.0000,  0.0000,  0.0000)
  11 Na     5.982123    6.345000   12.991062    ( 0.0000,  0.0000,  0.0000)
  12 Na    -0.030530    4.225538   15.960269    ( 0.0000,  0.0000,  0.0000)
  13 Na     2.997283    6.339656   15.995549    ( 0.0000,  0.0000,  0.0000)
  14 Na     2.973812    4.119135   18.930584    ( 0.0000,  0.0000,  0.0000)
  15 Na     0.034405    6.329572   18.874228    ( 0.0000,  0.0000,  0.0000)
  16 Na     0.000000    8.460000   10.000000    ( 0.0000,  0.0000,  0.0000)
  17 Na     2.991062   10.575000   10.000000    ( 0.0000,  0.0000,  0.0000)
  18 Na     2.991062    8.460000   12.991062    ( 0.0000,  0.0000,  0.0000)
  19 Na     5.982123   10.575000   12.991062    ( 0.0000,  0.0000,  0.0000)
  20 Na    -0.030316    8.485240   16.001075    ( 0.0000,  0.0000,  0.0000)
  21 Na     2.997722   10.470918   15.787490    ( 0.0000,  0.0000,  0.0000)
  22 Na     2.983101    8.545562   18.896958    ( 0.0000,  0.0000,  0.0000)
  23 Na     0.092566   10.702017   19.022459    ( 0.0000,  0.0000,  0.0000)
  24 Na     5.982123    0.000000   10.000000    ( 0.0000,  0.0000,  0.0000)
  25 Na     8.973185    2.115000   10.000000    ( 0.0000,  0.0000,  0.0000)
  26 Na     8.973185    0.000000   12.991062    ( 0.0000,  0.0000,  0.0000)
  27 Na    11.964247    2.115000   12.991062    ( 0.0000,  0.0000,  0.0000)
  28 Na     5.948298    0.000800   15.916141    ( 0.0000,  0.0000,  0.0000)
  29 Na     8.977569    2.110880   15.939829    ( 0.0000,  0.0000,  0.0000)
  30 Na     8.953694   -0.000468   18.865254    ( 0.0000,  0.0000,  0.0000)
  31 Na     5.881974    2.006214   19.017375    ( 0.0000,  0.0000,  0.0000)
  32 Na     5.982123    4.230000   10.000000    ( 0.0000,  0.0000,  0.0000)
  33 Na     8.973185    6.345000   10.000000    ( 0.0000,  0.0000,  0.0000)
  34 Na     8.973185    4.230000   12.991062    ( 0.0000,  0.0000,  0.0000)
  35 Na    11.964247    6.345000   12.991062    ( 0.0000,  0.0000,  0.0000)
  36 Na     6.012623    4.204485   15.992258    ( 0.0000,  0.0000,  0.0000)
  37 Na     8.973667    6.345240   15.938195    ( 0.0000,  0.0000,  0.0000)
  38 Na     8.930606    4.203028   18.863019    ( 0.0000,  0.0000,  0.0000)
  39 Na     5.939088    6.339519   18.869131    ( 0.0000,  0.0000,  0.0000)
  40 Na     5.982123    8.460000   10.000000    ( 0.0000,  0.0000,  0.0000)
  41 Na     8.973185   10.575000   10.000000    ( 0.0000,  0.0000,  0.0000)
  42 Na     8.973185    8.460000   12.991062    ( 0.0000,  0.0000,  0.0000)
  43 Na    11.964247   10.575000   12.991062    ( 0.0000,  0.0000,  0.0000)
  44 Na     6.012625    8.484353   15.992246    ( 0.0000,  0.0000,  0.0000)
  45 Na     8.977643   10.578895   15.939616    ( 0.0000,  0.0000,  0.0000)
  46 Na     8.930469    8.487434   18.864042    ( 0.0000,  0.0000,  0.0000)
  47 Na     5.879768   10.690475   19.013174    ( 0.0000,  0.0000,  0.0000)
  48 Na    11.964247    0.000000   10.000000    ( 0.0000,  0.0000,  0.0000)
  49 Na    14.955308    2.115000   10.000000    ( 0.0000,  0.0000,  0.0000)
  50 Na    14.955308    0.000000   12.991062    ( 0.0000,  0.0000,  0.0000)
  51 Na    17.946370    2.115000   12.991062    ( 0.0000,  0.0000,  0.0000)
  52 Na    11.963161    0.000844   15.938376    ( 0.0000,  0.0000,  0.0000)
  53 Na    14.959894    2.110793   15.937391    ( 0.0000,  0.0000,  0.0000)
  54 Na    14.991770    0.019662   18.894900    ( 0.0000,  0.0000,  0.0000)
  55 Na    11.968108    2.117061   18.863097    ( 0.0000,  0.0000,  0.0000)
  56 Na    11.964247    4.230000   10.000000    ( 0.0000,  0.0000,  0.0000)
  57 Na    14.955308    6.345000   10.000000    ( 0.0000,  0.0000,  0.0000)
  58 Na    14.955308    4.230000   12.991062    ( 0.0000,  0.0000,  0.0000)
  59 Na    17.946370    6.345000   12.991062    ( 0.0000,  0.0000,  0.0000)
  60 Na    11.963467    4.229991   15.937499    ( 0.0000,  0.0000,  0.0000)
  61 Na    14.948054    6.340565   15.949601    ( 0.0000,  0.0000,  0.0000)
  62 Na    15.013795    4.182598   18.889654    ( 0.0000,  0.0000,  0.0000)
  63 Na    11.972837    6.339472   18.867872    ( 0.0000,  0.0000,  0.0000)
  64 Na    11.964247    8.460000   10.000000    ( 0.0000,  0.0000,  0.0000)
  65 Na    14.955308   10.575000   10.000000    ( 0.0000,  0.0000,  0.0000)
  66 Na    14.955308    8.460000   12.991062    ( 0.0000,  0.0000,  0.0000)
  67 Na    17.946370   10.575000   12.991062    ( 0.0000,  0.0000,  0.0000)
  68 Na    11.964142    8.459154   15.937000    ( 0.0000,  0.0000,  0.0000)
  69 Na    14.945621   10.583982   15.951109    ( 0.0000,  0.0000,  0.0000)
  70 Na    15.004867    8.487477   18.864104    ( 0.0000,  0.0000,  0.0000)
  71 Na    11.972764   10.578508   18.862759    ( 0.0000,  0.0000,  0.0000)
  72 Na     2.486139    0.364624   21.371706    ( 0.0000,  0.0000,  0.0000)

Unit cell:
           periodic     x           y           z      points  spacing
  1. axis:    yes   17.946370    0.000000    0.000000    60     0.2991
  2. axis:    yes    0.000000   12.690000    0.000000    42     0.3021
  3. axis:    no     0.000000    0.000000   28.973185    96     0.3018

  Lengths:  17.946370  12.690000  28.973185
  Angles:   90.000000  90.000000  90.000000

Effective grid spacing dv^(1/3) = 0.3010

     iter     time        total  log10-change:
                         energy   eigst   dens
iter:   1 08:23:32   -80.310218   -5.31c
iter:   2 08:23:57   -80.307949   -6.29c -3.04
iter:   3 08:24:21   -80.307806c  -6.82c -3.30
iter:   4 08:24:45   -80.308151c  -6.72c -3.64
iter:   5 08:25:08   -80.307996c  -7.06c -3.85
iter:   6 08:25:34   -80.307891c  -7.45c -4.14c

Converged after 6 iterations.

Dipole moment: (-6.587637, -5.898687, 0.291601) |e|*Ang

Energy contributions relative to reference atoms: (reference = -322558.566329)

Kinetic:       +157.436599
Potential:     -141.706724
External:        +0.000000
XC:             -98.664826
Entropy (-ST):   -1.343473
Local:           +3.298796
SIC:             +0.000000
--------------------------
Free energy:    -80.979628
Extrapolated:   -80.307891

Showing all kpts
 Kpt  Band  Eigenvalues  Occupancy
  0   253     -1.59543    1.48776
  0   254     -1.58063    1.42933
  0   255     -1.56672    1.37097
  0   256     -1.43072    0.71745

  1   253     -1.59704    1.49385
  1   254     -1.58000    1.42679
  1   255     -1.56644    1.36977
  1   256     -1.43053    0.71659


Fermi level: -1.48881

Gap: 0.136 eV
Transition (v -> c):
  (s=0, k=1, n=255, [0.25, 0.25, 0.00]) -> (s=0, k=0, n=256, [0.25, -0.25, 0.00])
Direct/indirect transitions are different
Direct gap: 0.136 eV
Transition at: (s=0, k=1, n=255, [0.25, 0.25, 0.00])

Forces in eV/Ang:
  0 Na    0.00379    0.00034    0.02364
  1 Na   -0.00100   -0.00207    0.02466
  2 Na   -0.00042   -0.00162   -0.03502
  3 Na   -0.00030    0.00836   -0.02018
  4 Na   -0.01564    0.00117    0.00873
  5 Na    0.00044    0.01812   -0.00513
  6 Na    0.03007   -0.02508   -0.05701
  7 Na   -0.02061    0.01496    0.01037
  8 Na    0.00268   -0.00518    0.02677
  9 Na   -0.00033   -0.00157    0.02865
 10 Na   -0.00057    0.03574   -0.05779
 11 Na   -0.00065   -0.00151    0.01417
 12 Na    0.00980   -0.01023   -0.00164
 13 Na   -0.00214   -0.00373   -0.01250
 14 Na    0.00411   -0.00664   -0.00054
 15 Na    0.00533    0.00280    0.00352
 16 Na    0.00176    0.00474    0.02770
 17 Na   -0.00089    0.00379    0.02533
 18 Na   -0.00138   -0.03294   -0.04963
 19 Na    0.00068   -0.00701   -0.01995
 20 Na    0.01019    0.01042   -0.00604
 21 Na   -0.00193   -0.01961   -0.01349
 22 Na   -0.00322    0.00087   -0.00810
 23 Na   -0.00910   -0.00338   -0.00472
 24 Na   -0.00454    0.00020    0.02459
 25 Na   -0.00045   -0.00117    0.02896
 26 Na   -0.00126   -0.00017   -0.01431
 27 Na   -0.00071    0.00089   -0.01498
 28 Na    0.01495    0.00232    0.00773
 29 Na    0.00048   -0.00825   -0.00914
 30 Na    0.00329   -0.00012   -0.00613
 31 Na    0.00454    0.00862   -0.00101
 32 Na   -0.00244   -0.00366    0.02766
 33 Na    0.00167    0.00019    0.03192
 34 Na    0.00200    0.00107   -0.01232
 35 Na   -0.00129    0.00062   -0.01419
 36 Na   -0.01142   -0.01045   -0.00427
 37 Na    0.00522    0.00028   -0.00154
 38 Na   -0.00340    0.00040   -0.00392
 39 Na   -0.00552   -0.00067    0.00813
 40 Na   -0.00129    0.00336    0.02879
 41 Na   -0.00029    0.00098    0.02945
 42 Na    0.00326   -0.00082   -0.01231
 43 Na   -0.00089   -0.00150   -0.01459
 44 Na   -0.00836    0.00760   -0.00261
 45 Na    0.00097    0.00799   -0.00914
 46 Na   -0.00304   -0.00017   -0.00442
 47 Na    0.01115   -0.00819   -0.00901
 48 Na   -0.00076    0.00028    0.02860
 49 Na    0.00263   -0.00131    0.02803
 50 Na    0.00338   -0.00185   -0.01485
 51 Na   -0.00033    0.00815   -0.02588
 52 Na   -0.00040    0.00167   -0.00553
 53 Na    0.00158   -0.00933   -0.00173
 54 Na   -0.00929   -0.00737   -0.00813
 55 Na   -0.00137    0.00137   -0.00648
 56 Na   -0.00063    0.00050    0.02923
 57 Na   -0.00146    0.00004    0.03238
 58 Na   -0.00159    0.00097   -0.01242
 59 Na    0.00325    0.00367    0.00883
 60 Na   -0.00012   -0.00076   -0.00543
 61 Na   -0.00451   -0.00022   -0.00154
 62 Na   -0.00598    0.00697   -0.01273
 63 Na   -0.00041    0.00048   -0.00779
 64 Na   -0.00065   -0.00074    0.02923
 65 Na    0.00217    0.00131    0.02861
 66 Na   -0.00243    0.00101   -0.00679
 67 Na   -0.00064   -0.01291   -0.02719
 68 Na   -0.00150   -0.00088   -0.00441
 69 Na    0.00350    0.01015   -0.00819
 70 Na    0.00391    0.00092   -0.00138
 71 Na   -0.00012   -0.00182   -0.00579
 72 Na   -0.00297    0.02168    0.02403

Timing:                                      incl.     excl.
-------------------------------------------------------------------
Density initialized from wave functions:    20.643    20.643   0.0% |
 Symmetrize density:                         0.000     0.000   0.0% |
Forces:                                     65.258    65.258   0.1% |
Hamiltonian:                                14.028     0.165   0.0% |
 Atomic:                                     6.273     0.030   0.0% |
  XC Correction:                             6.243     6.243   0.0% |
 Calculate atomic Hamiltonians:              5.088     5.088   0.0% |
 Communicate:                                0.000     0.000   0.0% |
 Initialize Hamiltonian:                     0.004     0.004   0.0% |
 Poisson:                                    0.677     0.677   0.0% |
 XC 3D grid:                                 1.822     1.822   0.0% |
LCAO initialization:                       142.955     0.011   0.0% |
 LCAO eigensolver:                           0.814     0.000   0.0% |
  Calculate projections:                     0.028     0.028   0.0% |
  DenseAtomicCorrection:                     0.115     0.115   0.0% |
  Distribute overlap matrix:                 0.001     0.001   0.0% |
  Orbital Layouts:                           0.240     0.240   0.0% |
  Potential matrix:                          0.393     0.393   0.0% |
  Sum over cells:                            0.037     0.037   0.0% |
 LCAO to grid:                             141.250   141.250   0.3% |
 Set positions (LCAO WFS):                   0.880     0.226   0.0% |
  Basic WFS set positions:                   0.001     0.001   0.0% |
  Basis functions set positions:             0.000     0.000   0.0% |
  P tci:                                     0.556     0.556   0.0% |
  ST tci:                                    0.084     0.084   0.0% |
  mktci:                                     0.013     0.013   0.0% |
PWDescriptor:                                0.012     0.012   0.0% |
Redistribute:                                0.096     0.096   0.0% |
SCF-cycle:                                1377.655     0.210   0.0% |
 Davidson:                                1189.718   224.467   0.4% |
  Apply H:                                 160.888   159.261   0.3% |
   HMM T:                                    1.628     1.628   0.0% |
  Subspace diag:                           222.500     0.057   0.0% |
   calc_h_matrix:                          186.893    31.132   0.1% |
    Apply H:                               155.762   153.855   0.3% |
     HMM T:                                  1.907     1.907   0.0% |
   diagonalize:                              2.558     2.558   0.0% |
   rotate_psi:                              32.991    32.991   0.1% |
  calc. matrices:                          477.263   159.060   0.3% |
   Apply H:                                318.203   314.938   0.6% |
    HMM T:                                   3.264     3.264   0.0% |
  diagonalize:                              36.373    36.373   0.1% |
  rotate_psi:                               68.226    68.226   0.1% |
 Density:                                   90.311     0.000   0.0% |
  Atomic density matrices:                   0.297     0.297   0.0% |
  Mix:                                      22.872    22.872   0.0% |
  Multipole moments:                         0.020     0.020   0.0% |
  Pseudo density:                           67.121    67.120   0.1% |
   Symmetrize density:                       0.001     0.001   0.0% |
 Hamiltonian:                               66.799     0.126   0.0% |
  Atomic:                                   31.574     0.090   0.0% |
   XC Correction:                           31.484    31.484   0.1% |
  Calculate atomic Hamiltonians:            25.683    25.683   0.0% |
  Communicate:                               0.000     0.000   0.0% |
  Poisson:                                   0.101     0.101   0.0% |
  XC 3D grid:                                9.314     9.314   0.0% |
 Orthonormalize:                            30.617     0.004   0.0% |
  calc_s_matrix:                             3.296     3.296   0.0% |
  inverse-cholesky:                          0.094     0.094   0.0% |
  projections:                              10.053    10.053   0.0% |
  rotate_psi_s:                             17.170    17.170   0.0% |
Set symmetry:                                0.001     0.001   0.0% |
Other:                                   51576.816 51576.816  97.0% |--------------------------------------|
-------------------------------------------------------------------
Total:                                             53197.464 100.0%

Memory usage: 5.62 GiB
Date: Mon Nov 24 20:48:50 2025
