
  ___ ___ ___ _ _ _  
 |   |   |_  | | | | 
 | | | | | . | | | | 
 |__ |  _|___|_____|  25.7.0
 |___|_|             

User:   tew@Mathuss-MacBook-Air-357.local
Date:   Mon Nov 24 06:02:13 2025
Arch:   arm64
Pid:    82977
CWD:    /Users/tew/Documents/Project/GitHub/chem-com
Python: 3.13.5
gpaw:   /Users/tew/Documents/Project/GitHub/chem-com/.venv/lib/python3.13/site-packages/gpaw
_gpaw:  /Users/tew/Documents/Project/GitHub/chem-com/.venv/lib/python3.13/site-packages/
        _gpaw.cpython-313-darwin.so
ase:    /Users/tew/Documents/Project/GitHub/chem-com/.venv/lib/python3.13/site-packages/ase (version 3.26.0)
numpy:  /Users/tew/Documents/Project/GitHub/chem-com/.venv/lib/python3.13/site-packages/numpy (version 2.3.5)
scipy:  /Users/tew/Documents/Project/GitHub/chem-com/.venv/lib/python3.13/site-packages/scipy (version 1.16.3)
libxc:  2.x.y
units:  Angstrom and eV
cores: 1
OpenMP: False
OMP_NUM_THREADS: 1

Input parameters:
  convergence: {density: 0.0001,
                eigenstates: 5e-06}
  kpts: [2 2 1]
  mode: {ecut: 200.0,
         name: pw}
  xc: PBE

System changes: positions, numbers, cell, pbc, initial_charges, initial_magmoms 

Initialize ...

species:
  Na:
    name: Sodium
    id: d7ecbc49209718622bcbe287195dca2a
    Z: 11.0
    valence: 7
    core: 4
    charge: 0.0
    file: /Users/tew/Documents/Project/GitHub/chem-com/.venv/lib/python3.13/site-packages/gpaw_data/setups/Na.PBE.gz
    compensation charges: {type: gauss,
                           rc: 0.37,
                           lmax: 2}
    cutoffs: {filter: 2.17,
              core: 2.59}
    projectors:
      #              energy  rcut
      - 3s(1.00)    -2.744   1.201
      - 2p(6.00)   -28.672   1.217
      - 3p(0.00)    -0.743   1.217
      -  s          24.468   1.201
      -  d           0.000   1.238
  
    # Using partial waves for Na as LCAO basis

Reference energy: -322558.566329  # eV

Spin-paired calculation

Convergence criteria:
 Maximum [total energy] change in last 3 cyles: 0.0005 eV / valence electron
 Maximum integral of absolute [dens]ity change: 0.0001 electrons / valence electron
 Maximum integral of absolute [eigenst]ate change: 5e-06 eV^2 / valence electron
 Maximum number of scf [iter]ations: 333
 (Square brackets indicate name in SCF output, whereas a 'c' in
 the SCF output indicates the quantity has converged.)

Symmetries present (total): 1

  ( 1  0  0)
  ( 0  1  0)
  ( 0  0  1)

4 k-points: 2 x 2 x 1 Monkhorst-Pack grid
2 k-points in the irreducible part of the Brillouin zone
       k-points in crystal coordinates                weights
   0:     0.25000000   -0.25000000    0.00000000          2/4
   1:     0.25000000    0.25000000    0.00000000          2/4

Wave functions: Plane wave expansion
  Cutoff energy: 200.000 eV
  Number of coefficients (min, max): 42398, 42398
  Pulay-stress correction: 0.000000 eV/Ang^3 (de/decut=0.000000)
  Using Numpy's FFT
  ScaLapack parameters: grid=1x1, blocksize=None
  Wavefunction extrapolation:
    Improved wavefunction reuse through dual PAW basis 

Occupation numbers: Fermi-Dirac:
  width: 0.1000  # eV
 

Eigensolver
   Davidson(niter=2) 

Densities:
  Coarse grid: 60*42*96 grid
  Fine grid: 120*84*192 grid
  Total Charge: 0.000000 

Density mixing:
  Method: separate
  Backend: pulay
  Linear mixing parameter: 0.05
  old densities: 5
  Damping of long wavelength oscillations: 50 

Hamiltonian:
  XC and Coulomb potentials evaluated on a 120*84*192 grid
  Using the PBE Exchange-Correlation functional
  External potential:
    NoExternalPotential
 

XC parameters: PBE with 2 nearest neighbor stencil

Memory estimate:
  Process memory now: 4272.72 MiB
  Calculator: 793.74 MiB
    Density: 111.27 MiB
      Arrays: 47.99 MiB
      Localized functions: 44.82 MiB
      Mixer: 18.46 MiB
    Hamiltonian: 32.29 MiB
      Arrays: 31.38 MiB
      XC: 0.00 MiB
      Poisson: 0.00 MiB
      vbar: 0.91 MiB
    Wavefunctions: 650.19 MiB
      Arrays psit_nG: 402.40 MiB
      Eigensolver: 219.20 MiB
      Projections: 9.01 MiB
      Projectors: 9.06 MiB
      PW-descriptor: 10.52 MiB

Total number of cores used: 1

Number of atoms: 73
Number of atomic orbitals: 511
Number of bands in calculation: 311
Number of valence electrons: 511
Bands to converge: occupied

... initialized

Initializing position-dependent things.

Density initialized from atomic densities
Creating initial wave functions:
  311 bands from LCAO basis set

         .-------------------------------------------.  
        /|                                           |  
       / |                                           |  
      /  |                                           |  
     /   |                                           |  
    /    |                                           |  
   /     |                                           |  
  /      |                                           |  
 *       |                                           |  
 |       |                                           |  
 |       |                                           |  
 |       |                                           |  
 |       |                                           |  
 |       |                     Na                    |  
 |      Na            Na             Na              |  
 |       |    Na            Na             Na        |  
 |       Na             Na            Na             |  
 |  Naa  |          Na            Na        Na       |  
 |       | Na  Na         Na  Na         Na          |  
 |       |       Na  Na         Na  Na            Na |  
 |Na     |  Na             Na         Na  Na         |  
 |      Na            Na             Na              |  
 |       |        Na             Na             Na   |  
 |       |Na  Na        Na  Na         Na  Na        |  
 |   Na  |          Na            Na                 |  
 |       | Na  Na         Na  Na        Na  Na       |  
 |    Na |           Na             Na               |  
 |Na     |       Na             Na                   |  
 |      Na  Na         Na  Na         Na  Na         |  
 |  Na   |        Na             Na                  |  
 |       |Na            Na             Na            |  
 |       |                                           |  
 Na      |      Na            Na                     |  
 |       |                                           |  
 |       |                                           |  
 |       |                                           |  
 |       .-------------------------------------------.  
 |      /                                           /   
 |     /                                           /    
 |    /                                           /     
 |   /                                           /      
 |  /                                           /       
 | /                                           /        
 |/                                           /         
 *-------------------------------------------*          

Atomic positions and initial magnetic moments

Positions:
   0 Na     0.000000    0.000000   10.000000    ( 0.0000,  0.0000,  0.0000)
   1 Na     2.991062    2.115000   10.000000    ( 0.0000,  0.0000,  0.0000)
   2 Na     2.991062    0.000000   12.991062    ( 0.0000,  0.0000,  0.0000)
   3 Na     5.982123    2.115000   12.991062    ( 0.0000,  0.0000,  0.0000)
   4 Na     0.016523   -0.081892   15.798025    ( 0.0000,  0.0000,  0.0000)
   5 Na     2.958016    2.155946   15.851111    ( 0.0000,  0.0000,  0.0000)
   6 Na     2.912322    0.090401   18.766515    ( 0.0000,  0.0000,  0.0000)
   7 Na     0.039370    2.069799   18.484453    ( 0.0000,  0.0000,  0.0000)
   8 Na     0.000000    4.230000   10.000000    ( 0.0000,  0.0000,  0.0000)
   9 Na     2.991062    6.345000   10.000000    ( 0.0000,  0.0000,  0.0000)
  10 Na     2.991062    4.230000   12.991062    ( 0.0000,  0.0000,  0.0000)
  11 Na     5.982123    6.345000   12.991062    ( 0.0000,  0.0000,  0.0000)
  12 Na    -0.014430    4.303855   15.831433    ( 0.0000,  0.0000,  0.0000)
  13 Na     3.019922    6.328924   16.003057    ( 0.0000,  0.0000,  0.0000)
  14 Na     2.912322    4.105293   19.001507    ( 0.0000,  0.0000,  0.0000)
  15 Na     0.012794    6.276389   18.893393    ( 0.0000,  0.0000,  0.0000)
  16 Na     0.000000    8.460000   10.000000    ( 0.0000,  0.0000,  0.0000)
  17 Na     2.991062   10.575000   10.000000    ( 0.0000,  0.0000,  0.0000)
  18 Na     2.991062    8.460000   12.991062    ( 0.0000,  0.0000,  0.0000)
  19 Na     5.982123   10.575000   12.991062    ( 0.0000,  0.0000,  0.0000)
  20 Na    -0.014430    8.468038   16.001691    ( 0.0000,  0.0000,  0.0000)
  21 Na     3.019922   10.550129   15.917927    ( 0.0000,  0.0000,  0.0000)
  22 Na     2.965473    8.494305   18.879417    ( 0.0000,  0.0000,  0.0000)
  23 Na     0.039370   10.688812   18.954438    ( 0.0000,  0.0000,  0.0000)
  24 Na     5.982123    0.000000   10.000000    ( 0.0000,  0.0000,  0.0000)
  25 Na     8.973185    2.115000   10.000000    ( 0.0000,  0.0000,  0.0000)
  26 Na     8.973185    0.000000   12.991062    ( 0.0000,  0.0000,  0.0000)
  27 Na    11.964247    2.115000   12.991062    ( 0.0000,  0.0000,  0.0000)
  28 Na     5.969150   -0.000549   15.931070    ( 0.0000,  0.0000,  0.0000)
  29 Na     8.974960    2.115274   15.941234    ( 0.0000,  0.0000,  0.0000)
  30 Na     8.964727   -0.001410   18.866222    ( 0.0000,  0.0000,  0.0000)
  31 Na     5.925837    2.069799   18.928491    ( 0.0000,  0.0000,  0.0000)
  32 Na     5.982123    4.230000   10.000000    ( 0.0000,  0.0000,  0.0000)
  33 Na     8.973185    6.345000   10.000000    ( 0.0000,  0.0000,  0.0000)
  34 Na     8.973185    4.230000   12.991062    ( 0.0000,  0.0000,  0.0000)
  35 Na    11.964247    6.345000   12.991062    ( 0.0000,  0.0000,  0.0000)
  36 Na     6.000102    4.222511   15.964478    ( 0.0000,  0.0000,  0.0000)
  37 Na     8.972131    6.345291   15.938353    ( 0.0000,  0.0000,  0.0000)
  38 Na     8.956726    4.220494   18.864732    ( 0.0000,  0.0000,  0.0000)
  39 Na     5.936411    6.323167   18.864467    ( 0.0000,  0.0000,  0.0000)
  40 Na     5.982123    8.460000   10.000000    ( 0.0000,  0.0000,  0.0000)
  41 Na     8.973185   10.575000   10.000000    ( 0.0000,  0.0000,  0.0000)
  42 Na     8.973185    8.460000   12.991062    ( 0.0000,  0.0000,  0.0000)
  43 Na    11.964247   10.575000   12.991062    ( 0.0000,  0.0000,  0.0000)
  44 Na     5.994446    8.468038   15.960348    ( 0.0000,  0.0000,  0.0000)
  45 Na     8.974960   10.574434   15.940418    ( 0.0000,  0.0000,  0.0000)
  46 Na     8.956726    8.470916   18.869298    ( 0.0000,  0.0000,  0.0000)
  47 Na     5.909835   10.642033   18.925512    ( 0.0000,  0.0000,  0.0000)
  48 Na    11.964247    0.000000   10.000000    ( 0.0000,  0.0000,  0.0000)
  49 Na    14.955308    2.115000   10.000000    ( 0.0000,  0.0000,  0.0000)
  50 Na    14.955308    0.000000   12.991062    ( 0.0000,  0.0000,  0.0000)
  51 Na    17.946370    2.115000   12.991062    ( 0.0000,  0.0000,  0.0000)
  52 Na    11.960698   -0.000549   15.942870    ( 0.0000,  0.0000,  0.0000)
  53 Na    14.986580    2.115274   15.917634    ( 0.0000,  0.0000,  0.0000)
  54 Na    15.042507    0.090401   18.988533    ( 0.0000,  0.0000,  0.0000)
  55 Na    11.981163    2.115705   18.867335    ( 0.0000,  0.0000,  0.0000)
  56 Na    11.964247    4.230000   10.000000    ( 0.0000,  0.0000,  0.0000)
  57 Na    14.955308    6.345000   10.000000    ( 0.0000,  0.0000,  0.0000)
  58 Na    14.955308    4.230000   12.991062    ( 0.0000,  0.0000,  0.0000)
  59 Na    17.946370    6.345000   12.991062    ( 0.0000,  0.0000,  0.0000)
  60 Na    11.960698    4.230694   15.942462    ( 0.0000,  0.0000,  0.0000)
  61 Na    14.927502    6.328924   15.982385    ( 0.0000,  0.0000,  0.0000)
  62 Na    15.050507    4.128682   18.987044    ( 0.0000,  0.0000,  0.0000)
  63 Na    11.997165    6.323167   18.866639    ( 0.0000,  0.0000,  0.0000)
  64 Na    11.964247    8.460000   10.000000    ( 0.0000,  0.0000,  0.0000)
  65 Na    14.955308   10.575000   10.000000    ( 0.0000,  0.0000,  0.0000)
  66 Na    14.955308    8.460000   12.991062    ( 0.0000,  0.0000,  0.0000)
  67 Na    17.946370   10.575000   12.991062    ( 0.0000,  0.0000,  0.0000)
  68 Na    11.966355    8.459854   15.938332    ( 0.0000,  0.0000,  0.0000)
  69 Na    14.924674   10.590801   15.984450    ( 0.0000,  0.0000,  0.0000)
  70 Na    14.997356    8.470916   18.864954    ( 0.0000,  0.0000,  0.0000)
  71 Na    11.997165   10.596128   18.864356    ( 0.0000,  0.0000,  0.0000)
  72 Na     0.997021    1.410000   21.339934    ( 0.0000,  0.0000,  0.0000)

Unit cell:
           periodic     x           y           z      points  spacing
  1. axis:    yes   17.946370    0.000000    0.000000    60     0.2991
  2. axis:    yes    0.000000   12.690000    0.000000    42     0.3021
  3. axis:    no     0.000000    0.000000   28.973185    96     0.3018

  Lengths:  17.946370  12.690000  28.973185
  Angles:   90.000000  90.000000  90.000000

Effective grid spacing dv^(1/3) = 0.3010

     iter     time        total  log10-change:
                         energy   eigst   dens
iter:   1 06:33:38   -81.476231
iter:   2 06:34:04   -80.910125   -2.32  -1.52
iter:   3 06:34:31   -80.561476   -2.78  -1.59
iter:   4 06:34:57   -80.344799   -2.89  -1.71
iter:   5 06:35:23   -80.424586c  -3.05  -1.99
iter:   6 06:35:48   -80.371579c  -3.68  -2.13
iter:   7 06:36:12   -80.308308c  -3.86  -2.26
iter:   8 06:36:37   -80.303251c  -4.36  -2.74
iter:   9 06:37:02   -80.295549c  -4.56  -2.88
iter:  10 06:37:26   -80.292246c  -4.76  -3.16
iter:  11 06:37:51   -80.290499c  -5.02  -3.29
iter:  12 06:38:16   -80.289404c  -5.22  -3.39
iter:  13 06:38:41   -80.289124c  -5.24  -3.54
iter:  14 06:39:06   -80.289127c  -5.71c -3.83
iter:  15 06:39:31   -80.289114c  -5.96c -3.89
iter:  16 06:39:57   -80.289112c  -6.17c -4.02c

Converged after 16 iterations.

Dipole moment: (-7.126205, -3.889986, 0.291962) |e|*Ang

Energy contributions relative to reference atoms: (reference = -322558.566329)

Kinetic:       +159.569133
Potential:     -143.540233
External:        +0.000000
XC:             -98.939349
Entropy (-ST):   -1.344053
Local:           +3.293364
SIC:             +0.000000
--------------------------
Free energy:    -80.961138
Extrapolated:   -80.289112

Showing all kpts
 Kpt  Band  Eigenvalues  Occupancy
  0   253     -1.59396    1.48106
  0   254     -1.58174    1.43275
  0   255     -1.56736    1.37252
  0   256     -1.43086    0.71682

  1   253     -1.59735    1.49400
  1   254     -1.58019    1.42642
  1   255     -1.56677    1.36999
  1   256     -1.43070    0.71610


Fermi level: -1.48909

Gap: 0.136 eV
Transition (v -> c):
  (s=0, k=1, n=255, [0.25, 0.25, 0.00]) -> (s=0, k=0, n=256, [0.25, -0.25, 0.00])
Direct/indirect transitions are different
Direct gap: 0.136 eV
Transition at: (s=0, k=1, n=255, [0.25, 0.25, 0.00])

Forces in eV/Ang:
  0 Na    0.00177    0.00136    0.02670
  1 Na   -0.00315   -0.00060    0.02620
  2 Na    0.00016   -0.00685   -0.03089
  3 Na   -0.00410    0.00386   -0.01496
  4 Na   -0.00437   -0.00902    0.00745
  5 Na    0.01428    0.00094    0.01198
  6 Na    0.08117   -0.05734   -0.02187
  7 Na   -0.11335    0.08212   -0.16983
  8 Na    0.00177   -0.00456    0.02743
  9 Na   -0.00119   -0.00454    0.02906
 10 Na   -0.00014    0.01748   -0.03410
 11 Na    0.00183   -0.00236   -0.00194
 12 Na    0.00417    0.00276    0.00112
 13 Na   -0.01153   -0.01206   -0.00990
 14 Na    0.01653    0.00597   -0.00568
 15 Na    0.00557    0.00598   -0.00934
 16 Na    0.00062    0.00291    0.02963
 17 Na   -0.00260    0.00535    0.02759
 18 Na   -0.00324   -0.00872   -0.00325
 19 Na    0.00019   -0.00170   -0.01407
 20 Na    0.00532    0.00651   -0.01359
 21 Na   -0.01079    0.01036    0.00015
 22 Na   -0.00567   -0.00901   -0.00312
 23 Na   -0.01139    0.00552   -0.00047
 24 Na   -0.00375    0.00074    0.02869
 25 Na    0.00084   -0.00015    0.02951
 26 Na   -0.00016   -0.00068   -0.01324
 27 Na    0.00165    0.00024   -0.01217
 28 Na   -0.00072    0.01103    0.00679
 29 Na    0.00119   -0.00553   -0.00660
 30 Na    0.00239   -0.00050   -0.00815
 31 Na    0.01435    0.01410   -0.01108
 32 Na   -0.00250   -0.00104    0.02941
 33 Na    0.00137    0.00157    0.02973
 34 Na    0.00062    0.00158   -0.01399
 35 Na   -0.00285    0.00091   -0.01384
 36 Na   -0.00895   -0.01521   -0.00846
 37 Na    0.00310    0.00091   -0.00288
 38 Na   -0.00131   -0.00013   -0.00603
 39 Na   -0.00576   -0.00048    0.00135
 40 Na    0.00178    0.00016    0.03226
 41 Na    0.00106   -0.00147    0.02988
 42 Na    0.00188   -0.00089   -0.01524
 43 Na   -0.00108   -0.00125   -0.01329
 44 Na    0.00326    0.00261   -0.00030
 45 Na   -0.00005    0.00470   -0.00643
 46 Na   -0.00182    0.00042   -0.00694
 47 Na    0.01643   -0.01248   -0.02304
 48 Na   -0.00016    0.00023    0.02983
 49 Na    0.00470   -0.00044    0.02746
 50 Na    0.00240   -0.00677   -0.01841
 51 Na   -0.00011    0.00387   -0.03708
 52 Na   -0.00072    0.01091   -0.00929
 53 Na   -0.00854   -0.00553    0.01470
 54 Na   -0.00660   -0.01477   -0.00397
 55 Na   -0.00452    0.00049   -0.00831
 56 Na   -0.00054    0.00051    0.03030
 57 Na   -0.00015   -0.00191    0.03074
 58 Na    0.00060    0.00456   -0.01771
 59 Na    0.00223    0.02242   -0.03156
 60 Na   -0.00044   -0.01023   -0.00938
 61 Na    0.00722   -0.00794   -0.00223
 62 Na   -0.01831    0.01235   -0.02135
 63 Na    0.00366   -0.00079   -0.00504
 64 Na   -0.00218   -0.00072    0.03110
 65 Na    0.00239    0.00251    0.02886
 66 Na   -0.00046    0.00252    0.00850
 67 Na    0.00054   -0.02841   -0.04879
 68 Na   -0.00630   -0.00071   -0.00133
 69 Na    0.01489    0.01509   -0.00697
 70 Na    0.00668   -0.00015    0.00686
 71 Na    0.00300    0.00048   -0.00462
 72 Na    0.01821   -0.03165    0.14357

System changes: positions 

Initializing position-dependent things.

Density initialized from wave functions
         .-------------------------------------------.  
        /|                                           |  
       / |                                           |  
      /  |                                           |  
     /   |                                           |  
    /    |                                           |  
   /     |                                           |  
  /      |                                           |  
 *       |                                           |  
 |       |                                           |  
 |       |                                           |  
 |       |                                           |  
 |       |                                           |  
 |       |                     Na                    |  
 |      Na            Na             Na              |  
 |       |    Na            Na             Na        |  
 |       Na             Na            Na             |  
 |  Naa  |          Na            Na        Na       |  
 |       | Na  Na         Na  Na         Na          |  
 |       |       Na  Na         Na  Na            Na |  
 |Na     |  Na             Na         Na  Na         |  
 |      Na            Na             Na              |  
 |       |        Na             Na             Na   |  
 |       |Na  Na        Na  Na         Na  Na        |  
 |   Na  |          Na            Na                 |  
 |       | Na  Na         Na  Na        Na  Na       |  
 |    Na |           Na             Na               |  
 |Na     |       Na             Na                   |  
 |      Na  Na         Na  Na         Na  Na         |  
 |  Na   |        Na             Na                  |  
 |       |Na            Na             Na            |  
 |       |                                           |  
 Na      |      Na            Na                     |  
 |       |                                           |  
 |       |                                           |  
 |       |                                           |  
 |       .-------------------------------------------.  
 |      /                                           /   
 |     /                                           /    
 |    /                                           /     
 |   /                                           /      
 |  /                                           /       
 | /                                           /        
 |/                                           /         
 *-------------------------------------------*          

Atomic positions and initial magnetic moments

Positions:
   0 Na     0.000000    0.000000   10.000000    ( 0.0000,  0.0000,  0.0000)
   1 Na     2.991062    2.115000   10.000000    ( 0.0000,  0.0000,  0.0000)
   2 Na     2.991062    0.000000   12.991062    ( 0.0000,  0.0000,  0.0000)
   3 Na     5.982123    2.115000   12.991062    ( 0.0000,  0.0000,  0.0000)
   4 Na     0.016480   -0.081982   15.798101    ( 0.0000,  0.0000,  0.0000)
   5 Na     2.958159    2.155957   15.851230    ( 0.0000,  0.0000,  0.0000)
   6 Na     2.913134    0.089827   18.766289    ( 0.0000,  0.0000,  0.0000)
   7 Na     0.038237    2.070619   18.482762    ( 0.0000,  0.0000,  0.0000)
   8 Na     0.000000    4.230000   10.000000    ( 0.0000,  0.0000,  0.0000)
   9 Na     2.991062    6.345000   10.000000    ( 0.0000,  0.0000,  0.0000)
  10 Na     2.991062    4.230000   12.991062    ( 0.0000,  0.0000,  0.0000)
  11 Na     5.982123    6.345000   12.991062    ( 0.0000,  0.0000,  0.0000)
  12 Na    -0.014389    4.303881   15.831446    ( 0.0000,  0.0000,  0.0000)
  13 Na     3.019806    6.328804   16.002958    ( 0.0000,  0.0000,  0.0000)
  14 Na     2.912488    4.105353   19.001449    ( 0.0000,  0.0000,  0.0000)
  15 Na     0.012850    6.276450   18.893299    ( 0.0000,  0.0000,  0.0000)
  16 Na     0.000000    8.460000   10.000000    ( 0.0000,  0.0000,  0.0000)
  17 Na     2.991062   10.575000   10.000000    ( 0.0000,  0.0000,  0.0000)
  18 Na     2.991062    8.460000   12.991062    ( 0.0000,  0.0000,  0.0000)
  19 Na     5.982123   10.575000   12.991062    ( 0.0000,  0.0000,  0.0000)
  20 Na    -0.014377    8.468103   16.001555    ( 0.0000,  0.0000,  0.0000)
  21 Na     3.019813   10.550232   15.917927    ( 0.0000,  0.0000,  0.0000)
  22 Na     2.965417    8.494216   18.879386    ( 0.0000,  0.0000,  0.0000)
  23 Na     0.039257   10.688867   18.954434    ( 0.0000,  0.0000,  0.0000)
  24 Na     5.982123    0.000000   10.000000    ( 0.0000,  0.0000,  0.0000)
  25 Na     8.973185    2.115000   10.000000    ( 0.0000,  0.0000,  0.0000)
  26 Na     8.973185    0.000000   12.991062    ( 0.0000,  0.0000,  0.0000)
  27 Na    11.964247    2.115000   12.991062    ( 0.0000,  0.0000,  0.0000)
  28 Na     5.969142   -0.000438   15.931137    ( 0.0000,  0.0000,  0.0000)
  29 Na     8.974972    2.115219   15.941168    ( 0.0000,  0.0000,  0.0000)
  30 Na     8.964751   -0.001415   18.866141    ( 0.0000,  0.0000,  0.0000)
  31 Na     5.925980    2.069939   18.928382    ( 0.0000,  0.0000,  0.0000)
  32 Na     5.982123    4.230000   10.000000    ( 0.0000,  0.0000,  0.0000)
  33 Na     8.973185    6.345000   10.000000    ( 0.0000,  0.0000,  0.0000)
  34 Na     8.973185    4.230000   12.991062    ( 0.0000,  0.0000,  0.0000)
  35 Na    11.964247    6.345000   12.991062    ( 0.0000,  0.0000,  0.0000)
  36 Na     6.000013    4.222359   15.964393    ( 0.0000,  0.0000,  0.0000)
  37 Na     8.972162    6.345300   15.938325    ( 0.0000,  0.0000,  0.0000)
  38 Na     8.956713    4.220492   18.864672    ( 0.0000,  0.0000,  0.0000)
  39 Na     5.936354    6.323163   18.864480    ( 0.0000,  0.0000,  0.0000)
  40 Na     5.982123    8.460000   10.000000    ( 0.0000,  0.0000,  0.0000)
  41 Na     8.973185   10.575000   10.000000    ( 0.0000,  0.0000,  0.0000)
  42 Na     8.973185    8.460000   12.991062    ( 0.0000,  0.0000,  0.0000)
  43 Na    11.964247   10.575000   12.991062    ( 0.0000,  0.0000,  0.0000)
  44 Na     5.994479    8.468064   15.960346    ( 0.0000,  0.0000,  0.0000)
  45 Na     8.974959   10.574481   15.940354    ( 0.0000,  0.0000,  0.0000)
  46 Na     8.956707    8.470921   18.869229    ( 0.0000,  0.0000,  0.0000)
  47 Na     5.909999   10.641909   18.925283    ( 0.0000,  0.0000,  0.0000)
  48 Na    11.964247    0.000000   10.000000    ( 0.0000,  0.0000,  0.0000)
  49 Na    14.955308    2.115000   10.000000    ( 0.0000,  0.0000,  0.0000)
  50 Na    14.955308    0.000000   12.991062    ( 0.0000,  0.0000,  0.0000)
  51 Na    17.946370    2.115000   12.991062    ( 0.0000,  0.0000,  0.0000)
  52 Na    11.960690   -0.000440   15.942777    ( 0.0000,  0.0000,  0.0000)
  53 Na    14.986494    2.115219   15.917781    ( 0.0000,  0.0000,  0.0000)
  54 Na    15.042440    0.090253   18.988492    ( 0.0000,  0.0000,  0.0000)
  55 Na    11.981117    2.115710   18.867252    ( 0.0000,  0.0000,  0.0000)
  56 Na    11.964247    4.230000   10.000000    ( 0.0000,  0.0000,  0.0000)
  57 Na    14.955308    6.345000   10.000000    ( 0.0000,  0.0000,  0.0000)
  58 Na    14.955308    4.230000   12.991062    ( 0.0000,  0.0000,  0.0000)
  59 Na    17.946370    6.345000   12.991062    ( 0.0000,  0.0000,  0.0000)
  60 Na    11.960693    4.230592   15.942368    ( 0.0000,  0.0000,  0.0000)
  61 Na    14.927575    6.328845   15.982362    ( 0.0000,  0.0000,  0.0000)
  62 Na    15.050324    4.128807   18.986829    ( 0.0000,  0.0000,  0.0000)
  63 Na    11.997201    6.323160   18.866589    ( 0.0000,  0.0000,  0.0000)
  64 Na    11.964247    8.460000   10.000000    ( 0.0000,  0.0000,  0.0000)
  65 Na    14.955308   10.575000   10.000000    ( 0.0000,  0.0000,  0.0000)
  66 Na    14.955308    8.460000   12.991062    ( 0.0000,  0.0000,  0.0000)
  67 Na    17.946370   10.575000   12.991062    ( 0.0000,  0.0000,  0.0000)
  68 Na    11.966291    8.459847   15.938319    ( 0.0000,  0.0000,  0.0000)
  69 Na    14.924823   10.590952   15.984380    ( 0.0000,  0.0000,  0.0000)
  70 Na    14.997423    8.470915   18.865023    ( 0.0000,  0.0000,  0.0000)
  71 Na    11.997194   10.596132   18.864310    ( 0.0000,  0.0000,  0.0000)
  72 Na     0.997227    1.409666   21.341370    ( 0.0000,  0.0000,  0.0000)

Unit cell:
           periodic     x           y           z      points  spacing
  1. axis:    yes   17.946370    0.000000    0.000000    60     0.2991
  2. axis:    yes    0.000000   12.690000    0.000000    42     0.3021
  3. axis:    no     0.000000    0.000000   28.973185    96     0.3018

  Lengths:  17.946370  12.690000  28.973185
  Angles:   90.000000  90.000000  90.000000

Effective grid spacing dv^(1/3) = 0.3010

     iter     time        total  log10-change:
                         energy   eigst   dens
iter:   1 07:07:00   -80.289895   -6.14c
iter:   2 07:07:26   -80.289965   -6.59c -3.80
iter:   3 07:07:51   -80.290034c  -6.80c -3.96
iter:   4 07:08:16   -80.290051c  -7.00c -4.23c

Converged after 4 iterations.

Dipole moment: (-7.087801, -3.878762, 0.295708) |e|*Ang

Energy contributions relative to reference atoms: (reference = -322558.566329)

Kinetic:       +157.371250
Potential:     -141.585496
External:        +0.000000
XC:             -98.700200
Entropy (-ST):   -1.343921
Local:           +3.296356
SIC:             +0.000000
--------------------------
Free energy:    -80.962012
Extrapolated:   -80.290051

Showing all kpts
 Kpt  Band  Eigenvalues  Occupancy
  0   253     -1.59372    1.48069
  0   254     -1.58161    1.43279
  0   255     -1.56721    1.37252
  0   256     -1.43081    0.71725

  1   253     -1.59713    1.49368
  1   254     -1.58006    1.42645
  1   255     -1.56663    1.37001
  1   256     -1.43065    0.71652


Fermi level: -1.48894

Gap: 0.136 eV
Transition (v -> c):
  (s=0, k=1, n=255, [0.25, 0.25, 0.00]) -> (s=0, k=0, n=256, [0.25, -0.25, 0.00])
Direct/indirect transitions are different
Direct gap: 0.136 eV
Transition at: (s=0, k=1, n=255, [0.25, 0.25, 0.00])

Forces in eV/Ang:
  0 Na    0.00157    0.00097    0.02268
  1 Na   -0.00270   -0.00053    0.02215
  2 Na    0.00002   -0.00735   -0.02896
  3 Na   -0.00309    0.00404   -0.01485
  4 Na   -0.00479   -0.00985    0.00578
  5 Na    0.01440    0.00147    0.01070
  6 Na    0.08034   -0.05725   -0.01959
  7 Na   -0.11148    0.08089   -0.16374
  8 Na    0.00182   -0.00409    0.02397
  9 Na   -0.00168   -0.00437    0.02659
 10 Na   -0.00025    0.01811   -0.03264
 11 Na    0.00208   -0.00243   -0.00195
 12 Na    0.00408    0.00352    0.00059
 13 Na   -0.01228   -0.01201   -0.00904
 14 Na    0.01661    0.00728   -0.00483
 15 Na    0.00568    0.00645   -0.00930
 16 Na    0.00090    0.00283    0.02716
 17 Na   -0.00287    0.00511    0.02465
 18 Na   -0.00394   -0.00884   -0.00296
 19 Na    0.00077   -0.00180   -0.01414
 20 Na    0.00592    0.00656   -0.01268
 21 Na   -0.01097    0.00988    0.00032
 22 Na   -0.00592   -0.00893   -0.00275
 23 Na   -0.01126    0.00380    0.00041
 24 Na   -0.00310    0.00145    0.02587
 25 Na    0.00120   -0.00094    0.02801
 26 Na    0.00082   -0.00026   -0.01423
 27 Na    0.00006    0.00002   -0.01318
 28 Na   -0.00146    0.01088    0.00791
 29 Na    0.00077   -0.00532   -0.00644
 30 Na    0.00184   -0.00080   -0.00708
 31 Na    0.01438    0.01388   -0.01023
 32 Na   -0.00247   -0.00201    0.02708
 33 Na    0.00094    0.00029    0.02872
 34 Na    0.00128    0.00095   -0.01427
 35 Na   -0.00351    0.00070   -0.01346
 36 Na   -0.00935   -0.01527   -0.00762
 37 Na    0.00346    0.00117   -0.00273
 38 Na   -0.00162    0.00027   -0.00492
 39 Na   -0.00601   -0.00038    0.00225
 40 Na    0.00078    0.00042    0.03062
 41 Na    0.00098    0.00061    0.02870
 42 Na    0.00225   -0.00069   -0.01448
 43 Na   -0.00193   -0.00081   -0.01336
 44 Na    0.00302    0.00284    0.00085
 45 Na    0.00003    0.00423   -0.00606
 46 Na   -0.00180    0.00031   -0.00602
 47 Na    0.01597   -0.01249   -0.02238
 48 Na   -0.00064    0.00143    0.02807
 49 Na    0.00393   -0.00076    0.02395
 50 Na    0.00185   -0.00731   -0.01787
 51 Na    0.00013    0.00407   -0.03445
 52 Na   -0.00045    0.01054   -0.00892
 53 Na   -0.00727   -0.00535    0.01574
 54 Na   -0.00670   -0.01474   -0.00337
 55 Na   -0.00409    0.00058   -0.00734
 56 Na   -0.00061   -0.00135    0.02874
 57 Na    0.00065   -0.00208    0.02865
 58 Na    0.00020    0.00499   -0.01746
 59 Na    0.00272    0.02291   -0.03097
 60 Na   -0.00052   -0.00987   -0.00887
 61 Na    0.00795   -0.00815   -0.00103
 62 Na   -0.01797    0.01249   -0.02112
 63 Na    0.00359   -0.00046   -0.00404
 64 Na   -0.00132   -0.00006    0.02997
 65 Na    0.00270    0.00300    0.02640
 66 Na   -0.00026    0.00260    0.00846
 67 Na    0.00078   -0.02909   -0.04738
 68 Na   -0.00695   -0.00071   -0.00103
 69 Na    0.01549    0.01513   -0.00624
 70 Na    0.00711   -0.00014    0.00766
 71 Na    0.00312    0.00006   -0.00353
 72 Na    0.01761   -0.03131    0.13862

System changes: positions 

Initializing position-dependent things.

Density initialized from wave functions
         .-------------------------------------------.  
        /|                                           |  
       / |                                           |  
      /  |                                           |  
     /   |                                           |  
    /    |                                           |  
   /     |                                           |  
  /      |                                           |  
 *       |                                           |  
 |       |                                           |  
 |       |                                           |  
 |       |                                           |  
 |       |                                           |  
 |       |                     Na                    |  
 |      Na            Na             Na              |  
 |       |    Na            Na             Na        |  
 |       Na             Na            Na             |  
 |  Naa  |          Na            Na        Na       |  
 |       | Na  Na         Na  Na         Na          |  
 |       |       Na  Na         Na  Na            Na |  
 |Na     |  Na             Na         Na  Na         |  
 |      Na            Na             Na              |  
 |       |        Na             Na             Na   |  
 |       |Na  Na        Na  Na         Na  Na        |  
 |   Na  |          Na            Na                 |  
 |       | Na  Na         Na  Na        Na  Na       |  
 |    Na |           Na             Na               |  
 |Na     |       Na             Na                   |  
 |      Na  Na         Na  Na         Na  Na         |  
 |  Na   |        Na             Na                  |  
 |       |Na            Na             Na            |  
 |       |                                           |  
 Na      |      Na            Na                     |  
 |       |                                           |  
 |       |                                           |  
 |       |                                           |  
 |       .-------------------------------------------.  
 |      /                                           /   
 |     /                                           /    
 |    /                                           /     
 |   /                                           /      
 |  /                                           /       
 | /                                           /        
 |/                                           /         
 *-------------------------------------------*          

Atomic positions and initial magnetic moments

Positions:
   0 Na     0.000000    0.000000   10.000000    ( 0.0000,  0.0000,  0.0000)
   1 Na     2.991062    2.115000   10.000000    ( 0.0000,  0.0000,  0.0000)
   2 Na     2.991062    0.000000   12.991062    ( 0.0000,  0.0000,  0.0000)
   3 Na     5.982123    2.115000   12.991062    ( 0.0000,  0.0000,  0.0000)
   4 Na     0.016388   -0.082169   15.798234    ( 0.0000,  0.0000,  0.0000)
   5 Na     2.958447    2.155983   15.851453    ( 0.0000,  0.0000,  0.0000)
   6 Na     2.914753    0.088677   18.765863    ( 0.0000,  0.0000,  0.0000)
   7 Na     0.035990    2.072249   18.479441    ( 0.0000,  0.0000,  0.0000)
   8 Na     0.000000    4.230000   10.000000    ( 0.0000,  0.0000,  0.0000)
   9 Na     2.991062    6.345000   10.000000    ( 0.0000,  0.0000,  0.0000)
  10 Na     2.991062    4.230000   12.991062    ( 0.0000,  0.0000,  0.0000)
  11 Na     5.982123    6.345000   12.991062    ( 0.0000,  0.0000,  0.0000)
  12 Na    -0.014307    4.303942   15.831467    ( 0.0000,  0.0000,  0.0000)
  13 Na     3.019566    6.328563   16.002769    ( 0.0000,  0.0000,  0.0000)
  14 Na     2.912822    4.105488   19.001342    ( 0.0000,  0.0000,  0.0000)
  15 Na     0.012964    6.276576   18.893112    ( 0.0000,  0.0000,  0.0000)
  16 Na     0.000000    8.460000   10.000000    ( 0.0000,  0.0000,  0.0000)
  17 Na     2.991062   10.575000   10.000000    ( 0.0000,  0.0000,  0.0000)
  18 Na     2.991062    8.460000   12.991062    ( 0.0000,  0.0000,  0.0000)
  19 Na     5.982123   10.575000   12.991062    ( 0.0000,  0.0000,  0.0000)
  20 Na    -0.014265    8.468234   16.001293    ( 0.0000,  0.0000,  0.0000)
  21 Na     3.019595   10.550432   15.917928    ( 0.0000,  0.0000,  0.0000)
  22 Na     2.965301    8.494038   18.879328    ( 0.0000,  0.0000,  0.0000)
  23 Na     0.039032   10.688959   18.954436    ( 0.0000,  0.0000,  0.0000)
  24 Na     5.982123    0.000000   10.000000    ( 0.0000,  0.0000,  0.0000)
  25 Na     8.973185    2.115000   10.000000    ( 0.0000,  0.0000,  0.0000)
  26 Na     8.973185    0.000000   12.991062    ( 0.0000,  0.0000,  0.0000)
  27 Na    11.964247    2.115000   12.991062    ( 0.0000,  0.0000,  0.0000)
  28 Na     5.969118   -0.000219   15.931285    ( 0.0000,  0.0000,  0.0000)
  29 Na     8.974991    2.115111   15.941038    ( 0.0000,  0.0000,  0.0000)
  30 Na     8.964792   -0.001429   18.865989    ( 0.0000,  0.0000,  0.0000)
  31 Na     5.926266    2.070217   18.928172    ( 0.0000,  0.0000,  0.0000)
  32 Na     5.982123    4.230000   10.000000    ( 0.0000,  0.0000,  0.0000)
  33 Na     8.973185    6.345000   10.000000    ( 0.0000,  0.0000,  0.0000)
  34 Na     8.973185    4.230000   12.991062    ( 0.0000,  0.0000,  0.0000)
  35 Na    11.964247    6.345000   12.991062    ( 0.0000,  0.0000,  0.0000)
  36 Na     5.999830    4.222053   15.964234    ( 0.0000,  0.0000,  0.0000)
  37 Na     8.972228    6.345322   15.938269    ( 0.0000,  0.0000,  0.0000)
  38 Na     8.956682    4.220494   18.864563    ( 0.0000,  0.0000,  0.0000)
  39 Na     5.936236    6.323155   18.864517    ( 0.0000,  0.0000,  0.0000)
  40 Na     5.982123    8.460000   10.000000    ( 0.0000,  0.0000,  0.0000)
  41 Na     8.973185   10.575000   10.000000    ( 0.0000,  0.0000,  0.0000)
  42 Na     8.973185    8.460000   12.991062    ( 0.0000,  0.0000,  0.0000)
  43 Na    11.964247   10.575000   12.991062    ( 0.0000,  0.0000,  0.0000)
  44 Na     5.994542    8.468119   15.960353    ( 0.0000,  0.0000,  0.0000)
  45 Na     8.974959   10.574570   15.940229    ( 0.0000,  0.0000,  0.0000)
  46 Na     8.956670    8.470928   18.869100    ( 0.0000,  0.0000,  0.0000)
  47 Na     5.910322   10.641661   18.924831    ( 0.0000,  0.0000,  0.0000)
  48 Na    11.964247    0.000000   10.000000    ( 0.0000,  0.0000,  0.0000)
  49 Na    14.955308    2.115000   10.000000    ( 0.0000,  0.0000,  0.0000)
  50 Na    14.955308    0.000000   12.991062    ( 0.0000,  0.0000,  0.0000)
  51 Na    17.946370    2.115000   12.991062    ( 0.0000,  0.0000,  0.0000)
  52 Na    11.960679   -0.000225   15.942595    ( 0.0000,  0.0000,  0.0000)
  53 Na    14.986336    2.115110   15.918087    ( 0.0000,  0.0000,  0.0000)
  54 Na    15.042305    0.089955   18.988417    ( 0.0000,  0.0000,  0.0000)
  55 Na    11.981031    2.115721   18.867096    ( 0.0000,  0.0000,  0.0000)
  56 Na    11.964247    4.230000   10.000000    ( 0.0000,  0.0000,  0.0000)
  57 Na    14.955308    6.345000   10.000000    ( 0.0000,  0.0000,  0.0000)
  58 Na    14.955308    4.230000   12.991062    ( 0.0000,  0.0000,  0.0000)
  59 Na    17.946370    6.345000   12.991062    ( 0.0000,  0.0000,  0.0000)
  60 Na    11.960684    4.230391   15.942186    ( 0.0000,  0.0000,  0.0000)
  61 Na    14.927728    6.328684   15.982330    ( 0.0000,  0.0000,  0.0000)
  62 Na    15.049960    4.129057   18.986401    ( 0.0000,  0.0000,  0.0000)
  63 Na    11.997273    6.323148   18.866499    ( 0.0000,  0.0000,  0.0000)
  64 Na    11.964247    8.460000   10.000000    ( 0.0000,  0.0000,  0.0000)
  65 Na    14.955308   10.575000   10.000000    ( 0.0000,  0.0000,  0.0000)
  66 Na    14.955308    8.460000   12.991062    ( 0.0000,  0.0000,  0.0000)
  67 Na    17.946370   10.575000   12.991062    ( 0.0000,  0.0000,  0.0000)
  68 Na    11.966158    8.459833   15.938296    ( 0.0000,  0.0000,  0.0000)
  69 Na    14.925129   10.591254   15.984247    ( 0.0000,  0.0000,  0.0000)
  70 Na    14.997562    8.470913   18.865169    ( 0.0000,  0.0000,  0.0000)
  71 Na    11.997255   10.596136   18.864229    ( 0.0000,  0.0000,  0.0000)
  72 Na     0.997632    1.409003   21.344191    ( 0.0000,  0.0000,  0.0000)

Unit cell:
           periodic     x           y           z      points  spacing
  1. axis:    yes   17.946370    0.000000    0.000000    60     0.2991
  2. axis:    yes    0.000000   12.690000    0.000000    42     0.3021
  3. axis:    no     0.000000    0.000000   28.973185    96     0.3018

  Lengths:  17.946370  12.690000  28.973185
  Angles:   90.000000  90.000000  90.000000

Effective grid spacing dv^(1/3) = 0.3010

     iter     time        total  log10-change:
                         energy   eigst   dens
iter:   1 07:17:05   -80.291380   -6.17c
iter:   2 07:17:30   -80.291285   -6.94c -3.38
iter:   3 07:17:55   -80.291445c  -7.41c -3.71
iter:   4 07:18:20   -80.291693c  -7.51c -4.07c

Converged after 4 iterations.

Dipole moment: (-7.013535, -3.854127, 0.294202) |e|*Ang

Energy contributions relative to reference atoms: (reference = -322558.566329)

Kinetic:       +158.118612
Potential:     -142.247346
External:        +0.000000
XC:             -98.788685
Entropy (-ST):   -1.343961
Local:           +3.297706
SIC:             +0.000000
--------------------------
Free energy:    -80.963674
Extrapolated:   -80.291693

Showing all kpts
 Kpt  Band  Eigenvalues  Occupancy
  0   253     -1.59351    1.48064
  0   254     -1.58139    1.43269
  0   255     -1.56702    1.37254
  0   256     -1.43060    0.71719

  1   253     -1.59693    1.49368
  1   254     -1.57983    1.42637
  1   255     -1.56645    1.37011
  1   256     -1.43042    0.71637


Fermi level: -1.48874

Gap: 0.136 eV
Transition (v -> c):
  (s=0, k=1, n=255, [0.25, 0.25, 0.00]) -> (s=0, k=0, n=256, [0.25, -0.25, 0.00])
Direct/indirect transitions are different
Direct gap: 0.136 eV
Transition at: (s=0, k=1, n=255, [0.25, 0.25, 0.00])

Forces in eV/Ang:
  0 Na    0.00163    0.00132    0.02460
  1 Na   -0.00273   -0.00064    0.02408
  2 Na    0.00042   -0.00726   -0.03027
  3 Na   -0.00353    0.00394   -0.01521
  4 Na   -0.00507   -0.00961    0.00559
  5 Na    0.01402    0.00157    0.01076
  6 Na    0.07956   -0.05709   -0.01997
  7 Na   -0.10886    0.07941   -0.15849
  8 Na    0.00171   -0.00454    0.02572
  9 Na   -0.00112   -0.00453    0.02791
 10 Na    0.00011    0.01809   -0.03348
 11 Na    0.00166   -0.00235   -0.00229
 12 Na    0.00368    0.00385    0.00063
 13 Na   -0.01196   -0.01196   -0.00879
 14 Na    0.01694    0.00919   -0.00558
 15 Na    0.00544    0.00609   -0.00918
 16 Na    0.00068    0.00292    0.02850
 17 Na   -0.00243    0.00538    0.02614
 18 Na   -0.00361   -0.00891   -0.00316
 19 Na    0.00047   -0.00178   -0.01450
 20 Na    0.00574    0.00640   -0.01252
 21 Na   -0.01043    0.00959    0.00058
 22 Na   -0.00579   -0.00868   -0.00219
 23 Na   -0.01132    0.00182    0.00004
 24 Na   -0.00333    0.00103    0.02708
 25 Na    0.00091   -0.00043    0.02820
 26 Na    0.00021   -0.00034   -0.01394
 27 Na    0.00085    0.00005   -0.01286
 28 Na   -0.00164    0.01073    0.00780
 29 Na    0.00086   -0.00554   -0.00647
 30 Na    0.00192   -0.00060   -0.00676
 31 Na    0.01452    0.01385   -0.01019
 32 Na   -0.00224   -0.00146    0.02798
 33 Na    0.00124    0.00116    0.02828
 34 Na    0.00078    0.00101   -0.01454
 35 Na   -0.00293    0.00065   -0.01422
 36 Na   -0.00952   -0.01505   -0.00763
 37 Na    0.00292    0.00103   -0.00275
 38 Na   -0.00158   -0.00003   -0.00434
 39 Na   -0.00642   -0.00042    0.00277
 40 Na    0.00173    0.00028    0.03109
 41 Na    0.00105   -0.00079    0.02850
 42 Na    0.00173   -0.00067   -0.01545
 43 Na   -0.00140   -0.00079   -0.01386
 44 Na    0.00262    0.00279    0.00043
 45 Na   -0.00043    0.00459   -0.00604
 46 Na   -0.00213    0.00043   -0.00544
 47 Na    0.01551   -0.01267   -0.02196
 48 Na   -0.00044    0.00063    0.02843
 49 Na    0.00422   -0.00061    0.02558
 50 Na    0.00196   -0.00711   -0.01850
 51 Na   -0.00011    0.00406   -0.03581
 52 Na   -0.00057    0.01086   -0.00902
 53 Na   -0.00644   -0.00508    0.01602
 54 Na   -0.00740   -0.01471   -0.00382
 55 Na   -0.00405    0.00055   -0.00708
 56 Na   -0.00073   -0.00012    0.02888
 57 Na   -0.00015   -0.00202    0.02952
 58 Na    0.00030    0.00489   -0.01791
 59 Na    0.00255    0.02294   -0.03127
 60 Na   -0.00015   -0.01018   -0.00884
 61 Na    0.00810   -0.00824   -0.00118
 62 Na   -0.01782    0.01297   -0.02132
 63 Na    0.00393   -0.00073   -0.00340
 64 Na   -0.00212   -0.00047    0.02966
 65 Na    0.00222    0.00279    0.02745
 66 Na   -0.00002    0.00251    0.00823
 67 Na    0.00057   -0.02912   -0.04814
 68 Na   -0.00629   -0.00072   -0.00117
 69 Na    0.01553    0.01497   -0.00611
 70 Na    0.00745   -0.00019    0.00826
 71 Na    0.00321    0.00033   -0.00284
 72 Na    0.01616   -0.03041    0.13462

System changes: positions 

Initializing position-dependent things.

Density initialized from wave functions
         .-------------------------------------------.  
        /|                                           |  
       / |                                           |  
      /  |                                           |  
     /   |                                           |  
    /    |                                           |  
   /     |                                           |  
  /      |                                           |  
 *       |                                           |  
 |       |                                           |  
 |       |                                           |  
 |       |                                           |  
 |       |                                           |  
 |       |                     Na                    |  
 |      Na            Na             Na              |  
 |       |    Na            Na             Na        |  
 |       Na                                          |  
 |  Naa  |          Na            Na        Na       |  
 |       | Na  Na         Na  Na         Na          |  
 |       |       Na  Na         Na  Na            Na |  
 |Na     |  Na             Na         Na  Na         |  
 |      Na            Na             Na              |  
 |       |        Na             Na             Na   |  
 |       |Na  Na        Na  Na         Na  Na        |  
 |   Na  |      Na  Na        Na  Na                 |  
 |       | Na  Na         Na  Na        Na  Na       |  
 |    Na |           Na             Na               |  
 |Na     |       Na             Na                   |  
 |      Na  Na         Na  Na         Na  Na         |  
 |  Na   |        Na             Na                  |  
 |       |Na            Na             Na            |  
 |       |                                           |  
 Na      |      Na            Na                     |  
 |       |                                           |  
 |       |                                           |  
 |       |                                           |  
 |       .-------------------------------------------.  
 |      /                                           /   
 |     /                                           /    
 |    /                                           /     
 |   /                                           /      
 |  /                                           /       
 | /                                           /        
 |/                                           /         
 *-------------------------------------------*          

Atomic positions and initial magnetic moments

Positions:
   0 Na     0.000000    0.000000   10.000000    ( 0.0000,  0.0000,  0.0000)
   1 Na     2.991062    2.115000   10.000000    ( 0.0000,  0.0000,  0.0000)
   2 Na     2.991062    0.000000   12.991062    ( 0.0000,  0.0000,  0.0000)
   3 Na     5.982123    2.115000   12.991062    ( 0.0000,  0.0000,  0.0000)
   4 Na     0.016245   -0.082453   15.798423    ( 0.0000,  0.0000,  0.0000)
   5 Na     2.958876    2.156027   15.851782    ( 0.0000,  0.0000,  0.0000)
   6 Na     2.917172    0.086952   18.765229    ( 0.0000,  0.0000,  0.0000)
   7 Na     0.032653    2.074672   18.474547    ( 0.0000,  0.0000,  0.0000)
   8 Na     0.000000    4.230000   10.000000    ( 0.0000,  0.0000,  0.0000)
   9 Na     2.991062    6.345000   10.000000    ( 0.0000,  0.0000,  0.0000)
  10 Na     2.991062    4.230000   12.991062    ( 0.0000,  0.0000,  0.0000)
  11 Na     5.982123    6.345000   12.991062    ( 0.0000,  0.0000,  0.0000)
  12 Na    -0.014189    4.304043   15.831496    ( 0.0000,  0.0000,  0.0000)
  13 Na     3.019205    6.328203   16.002492    ( 0.0000,  0.0000,  0.0000)
  14 Na     2.913328    4.105720   19.001177    ( 0.0000,  0.0000,  0.0000)
  15 Na     0.013132    6.276765   18.892832    ( 0.0000,  0.0000,  0.0000)
  16 Na     0.000000    8.460000   10.000000    ( 0.0000,  0.0000,  0.0000)
  17 Na     2.991062   10.575000   10.000000    ( 0.0000,  0.0000,  0.0000)
  18 Na     2.991062    8.460000   12.991062    ( 0.0000,  0.0000,  0.0000)
  19 Na     5.982123   10.575000   12.991062    ( 0.0000,  0.0000,  0.0000)
  20 Na    -0.014095    8.468430   16.000906    ( 0.0000,  0.0000,  0.0000)
  21 Na     3.019271   10.550726   15.917933    ( 0.0000,  0.0000,  0.0000)
  22 Na     2.965127    8.493774   18.879250    ( 0.0000,  0.0000,  0.0000)
  23 Na     0.038694   10.689064   18.954441    ( 0.0000,  0.0000,  0.0000)
  24 Na     5.982123    0.000000   10.000000    ( 0.0000,  0.0000,  0.0000)
  25 Na     8.973185    2.115000   10.000000    ( 0.0000,  0.0000,  0.0000)
  26 Na     8.973185    0.000000   12.991062    ( 0.0000,  0.0000,  0.0000)
  27 Na    11.964247    2.115000   12.991062    ( 0.0000,  0.0000,  0.0000)
  28 Na     5.969077    0.000108   15.931512    ( 0.0000,  0.0000,  0.0000)
  29 Na     8.975019    2.114946   15.940842    ( 0.0000,  0.0000,  0.0000)
  30 Na     8.964852   -0.001448   18.865771    ( 0.0000,  0.0000,  0.0000)
  31 Na     5.926698    2.070633   18.927862    ( 0.0000,  0.0000,  0.0000)
  32 Na     5.982123    4.230000   10.000000    ( 0.0000,  0.0000,  0.0000)
  33 Na     8.973185    6.345000   10.000000    ( 0.0000,  0.0000,  0.0000)
  34 Na     8.973185    4.230000   12.991062    ( 0.0000,  0.0000,  0.0000)
  35 Na    11.964247    6.345000   12.991062    ( 0.0000,  0.0000,  0.0000)
  36 Na     5.999551    4.221596   15.963999    ( 0.0000,  0.0000,  0.0000)
  37 Na     8.972323    6.345353   15.938185    ( 0.0000,  0.0000,  0.0000)
  38 Na     8.956635    4.220494   18.864413    ( 0.0000,  0.0000,  0.0000)
  39 Na     5.936052    6.323143   18.864584    ( 0.0000,  0.0000,  0.0000)
  40 Na     5.982123    8.460000   10.000000    ( 0.0000,  0.0000,  0.0000)
  41 Na     8.973185   10.575000   10.000000    ( 0.0000,  0.0000,  0.0000)
  42 Na     8.973185    8.460000   12.991062    ( 0.0000,  0.0000,  0.0000)
  43 Na    11.964247   10.575000   12.991062    ( 0.0000,  0.0000,  0.0000)
  44 Na     5.994631    8.468203   15.960366    ( 0.0000,  0.0000,  0.0000)
  45 Na     8.974954   10.574706   15.940044    ( 0.0000,  0.0000,  0.0000)
  46 Na     8.956611    8.470941   18.868918    ( 0.0000,  0.0000,  0.0000)
  47 Na     5.910800   10.641285   18.924162    ( 0.0000,  0.0000,  0.0000)
  48 Na    11.964247    0.000000   10.000000    ( 0.0000,  0.0000,  0.0000)
  49 Na    14.955308    2.115000   10.000000    ( 0.0000,  0.0000,  0.0000)
  50 Na    14.955308    0.000000   12.991062    ( 0.0000,  0.0000,  0.0000)
  51 Na    17.946370    2.115000   12.991062    ( 0.0000,  0.0000,  0.0000)
  52 Na    11.960662    0.000099   15.942322    ( 0.0000,  0.0000,  0.0000)
  53 Na    14.986116    2.114951   15.918557    ( 0.0000,  0.0000,  0.0000)
  54 Na    15.042093    0.089508   18.988300    ( 0.0000,  0.0000,  0.0000)
  55 Na    11.980904    2.115737   18.866871    ( 0.0000,  0.0000,  0.0000)
  56 Na    11.964247    4.230000   10.000000    ( 0.0000,  0.0000,  0.0000)
  57 Na    14.955308    6.345000   10.000000    ( 0.0000,  0.0000,  0.0000)
  58 Na    14.955308    4.230000   12.991062    ( 0.0000,  0.0000,  0.0000)
  59 Na    17.946370    6.345000   12.991062    ( 0.0000,  0.0000,  0.0000)
  60 Na    11.960673    4.230087   15.941915    ( 0.0000,  0.0000,  0.0000)
  61 Na    14.927965    6.328440   15.982285    ( 0.0000,  0.0000,  0.0000)
  62 Na    15.049416    4.129440   18.985756    ( 0.0000,  0.0000,  0.0000)
  63 Na    11.997384    6.323129   18.866377    ( 0.0000,  0.0000,  0.0000)
  64 Na    11.964247    8.460000   10.000000    ( 0.0000,  0.0000,  0.0000)
  65 Na    14.955308   10.575000   10.000000    ( 0.0000,  0.0000,  0.0000)
  66 Na    14.955308    8.460000   12.991062    ( 0.0000,  0.0000,  0.0000)
  67 Na    17.946370   10.575000   12.991062    ( 0.0000,  0.0000,  0.0000)
  68 Na    11.965962    8.459811   15.938261    ( 0.0000,  0.0000,  0.0000)
  69 Na    14.925591   10.591707   15.984053    ( 0.0000,  0.0000,  0.0000)
  70 Na    14.997777    8.470909   18.865400    ( 0.0000,  0.0000,  0.0000)
  71 Na    11.997348   10.596144   18.864123    ( 0.0000,  0.0000,  0.0000)
  72 Na     0.998223    1.408017   21.348356    ( 0.0000,  0.0000,  0.0000)

Unit cell:
           periodic     x           y           z      points  spacing
  1. axis:    yes   17.946370    0.000000    0.000000    60     0.2991
  2. axis:    yes    0.000000   12.690000    0.000000    42     0.3021
  3. axis:    no     0.000000    0.000000   28.973185    96     0.3018

  Lengths:  17.946370  12.690000  28.973185
  Angles:   90.000000  90.000000  90.000000

Effective grid spacing dv^(1/3) = 0.3010

     iter     time        total  log10-change:
                         energy   eigst   dens
iter:   1 07:27:58   -80.293820   -5.96c
iter:   2 07:28:23   -80.293639   -6.86c -3.36
iter:   3 07:28:48   -80.293801c  -7.40c -3.68
iter:   4 07:29:14   -80.294038c  -7.57c -4.03c

Converged after 4 iterations.

Dipole moment: (-6.894951, -3.813513, 0.297333) |e|*Ang

Energy contributions relative to reference atoms: (reference = -322558.566329)

Kinetic:       +157.775081
Potential:     -141.949874
External:        +0.000000
XC:             -98.745301
Entropy (-ST):   -1.343950
Local:           +3.298032
SIC:             +0.000000
--------------------------
Free energy:    -80.966013
Extrapolated:   -80.294038

Showing all kpts
 Kpt  Band  Eigenvalues  Occupancy
  0   253     -1.59349    1.48038
  0   254     -1.58152    1.43305
  0   255     -1.56706    1.37251
  0   256     -1.43068    0.71732

  1   253     -1.59691    1.49343
  1   254     -1.57998    1.42676
  1   255     -1.56650    1.37008
  1   256     -1.43048    0.71639


Fermi level: -1.48880

Gap: 0.136 eV
Transition (v -> c):
  (s=0, k=1, n=255, [0.25, 0.25, 0.00]) -> (s=0, k=0, n=256, [0.25, -0.25, 0.00])
Direct/indirect transitions are different
Direct gap: 0.136 eV
Transition at: (s=0, k=1, n=255, [0.25, 0.25, 0.00])

Forces in eV/Ang:
  0 Na    0.00166    0.00082    0.02235
  1 Na   -0.00259   -0.00044    0.02184
  2 Na    0.00010   -0.00746   -0.02894
  3 Na   -0.00294    0.00410   -0.01475
  4 Na   -0.00494   -0.01000    0.00482
  5 Na    0.01345    0.00159    0.01057
  6 Na    0.07617   -0.05490   -0.01875
  7 Na   -0.10328    0.07566   -0.14821
  8 Na    0.00196   -0.00386    0.02365
  9 Na   -0.00184   -0.00428    0.02631
 10 Na   -0.00012    0.01833   -0.03234
 11 Na    0.00195   -0.00249   -0.00166
 12 Na    0.00377    0.00476   -0.00049
 13 Na   -0.01219   -0.01186   -0.00850
 14 Na    0.01640    0.00887   -0.00614
 15 Na    0.00534    0.00556   -0.01028
 16 Na    0.00112    0.00275    0.02688
 17 Na   -0.00294    0.00493    0.02434
 18 Na   -0.00431   -0.00898   -0.00258
 19 Na    0.00087   -0.00178   -0.01393
 20 Na    0.00603    0.00649   -0.01225
 21 Na   -0.01048    0.00923    0.00053
 22 Na   -0.00578   -0.00797   -0.00308
 23 Na   -0.01085    0.00160   -0.00061
 24 Na   -0.00294    0.00155    0.02557
 25 Na    0.00128   -0.00105    0.02780
 26 Na    0.00094   -0.00010   -0.01428
 27 Na   -0.00033   -0.00002   -0.01328
 28 Na   -0.00208    0.01056    0.00835
 29 Na    0.00060   -0.00507   -0.00643
 30 Na    0.00156   -0.00086   -0.00729
 31 Na    0.01403    0.01354   -0.01058
 32 Na   -0.00244   -0.00213    0.02680
 33 Na    0.00084   -0.00002    0.02842
 34 Na    0.00130    0.00079   -0.01412
 35 Na   -0.00373    0.00060   -0.01306
 36 Na   -0.00936   -0.01476   -0.00714
 37 Na    0.00330    0.00130   -0.00297
 38 Na   -0.00164    0.00045   -0.00504
 39 Na   -0.00603   -0.00064    0.00200
 40 Na    0.00052    0.00045    0.03021
 41 Na    0.00097    0.00101    0.02840
 42 Na    0.00227   -0.00068   -0.01393
 43 Na   -0.00215   -0.00068   -0.01319
 44 Na    0.00275    0.00272    0.00072
 45 Na   -0.00018    0.00384   -0.00596
 46 Na   -0.00173    0.00022   -0.00643
 47 Na    0.01533   -0.01244   -0.02235
 48 Na   -0.00090    0.00165    0.02780
 49 Na    0.00376   -0.00076    0.02359
 50 Na    0.00171   -0.00742   -0.01779
 51 Na    0.00027    0.00411   -0.03416
 52 Na   -0.00051    0.01016   -0.00880
 53 Na   -0.00550   -0.00500    0.01650
 54 Na   -0.00716   -0.01436   -0.00443
 55 Na   -0.00362    0.00062   -0.00761
 56 Na   -0.00080   -0.00168    0.02844
 57 Na    0.00092   -0.00211    0.02823
 58 Na    0.00008    0.00510   -0.01730
 59 Na    0.00305    0.02322   -0.03058
 60 Na   -0.00048   -0.00937   -0.00859
 61 Na    0.00805   -0.00806   -0.00073
 62 Na   -0.01771    0.01283   -0.02190
 63 Na    0.00343   -0.00039   -0.00432
 64 Na   -0.00129    0.00008    0.02961
 65 Na    0.00281    0.00302    0.02604
 66 Na    0.00011    0.00259    0.00878
 67 Na    0.00088   -0.02943   -0.04700
 68 Na   -0.00681   -0.00083   -0.00126
 69 Na    0.01543    0.01468   -0.00556
 70 Na    0.00718    0.00014    0.00741
 71 Na    0.00312   -0.00009   -0.00355
 72 Na    0.01477   -0.02949    0.12529

System changes: positions 

Initializing position-dependent things.

Density initialized from wave functions
         .-------------------------------------------.  
        /|                                           |  
       / |                                           |  
      /  |                                           |  
     /   |                                           |  
    /    |                                           |  
   /     |                                           |  
  /      |                                           |  
 *       |                                           |  
 |       |                                           |  
 |       |                                           |  
 |       |                                           |  
 |       |                                           |  
 |       |                     Na                    |  
 |      Na            Na             Na              |  
 |       |    Na            Na             Na        |  
 |       Na                                          |  
 |  Naa  |          Na            Na        Na       |  
 |       | Na  Na         Na  Na        Na           |  
 |       |       Na  Na         Na  Na            Na |  
 |Na     |  Na             Na         Na  Na         |  
 |      Na            Na             Na              |  
 |       |        Na             Na             Na   |  
 |       |Na  Na        Na  Na         Na  Na        |  
 |   Na  |      Na  Na        Na  Na                 |  
 |       | Na  Na         Na  Na        Na  Na       |  
 |    Na |           Na             Na               |  
 |Na     |       Na             Na                   |  
 |      Na  Na         Na  Na         Na  Na         |  
 |  Na   |        Na             Na                  |  
 |       |Na            Na             Na            |  
 |       |                                           |  
 Na      |      Na            Na                     |  
 |       |                                           |  
 |       |                                           |  
 |       |                                           |  
 |       .-------------------------------------------.  
 |      /                                           /   
 |     /                                           /    
 |    /                                           /     
 |   /                                           /      
 |  /                                           /       
 | /                                           /        
 |/                                           /         
 *-------------------------------------------*          

Atomic positions and initial magnetic moments

Positions:
   0 Na     0.000000    0.000000   10.000000    ( 0.0000,  0.0000,  0.0000)
   1 Na     2.991062    2.115000   10.000000    ( 0.0000,  0.0000,  0.0000)
   2 Na     2.991062    0.000000   12.991062    ( 0.0000,  0.0000,  0.0000)
   3 Na     5.982123    2.115000   12.991062    ( 0.0000,  0.0000,  0.0000)
   4 Na     0.016052   -0.082840   15.798659    ( 0.0000,  0.0000,  0.0000)
   5 Na     2.959441    2.156090   15.852217    ( 0.0000,  0.0000,  0.0000)
   6 Na     2.920360    0.084669   18.764401    ( 0.0000,  0.0000,  0.0000)
   7 Na     0.028282    2.077856   18.468186    ( 0.0000,  0.0000,  0.0000)
   8 Na     0.000000    4.230000   10.000000    ( 0.0000,  0.0000,  0.0000)
   9 Na     2.991062    6.345000   10.000000    ( 0.0000,  0.0000,  0.0000)
  10 Na     2.991062    4.230000   12.991062    ( 0.0000,  0.0000,  0.0000)
  11 Na     5.982123    6.345000   12.991062    ( 0.0000,  0.0000,  0.0000)
  12 Na    -0.014034    4.304194   15.831518    ( 0.0000,  0.0000,  0.0000)
  13 Na     3.018719    6.327721   16.002131    ( 0.0000,  0.0000,  0.0000)
  14 Na     2.914002    4.106047   19.000946    ( 0.0000,  0.0000,  0.0000)
  15 Na     0.013354    6.277009   18.892443    ( 0.0000,  0.0000,  0.0000)
  16 Na     0.000000    8.460000   10.000000    ( 0.0000,  0.0000,  0.0000)
  17 Na     2.991062   10.575000   10.000000    ( 0.0000,  0.0000,  0.0000)
  18 Na     2.991062    8.460000   12.991062    ( 0.0000,  0.0000,  0.0000)
  19 Na     5.982123   10.575000   12.991062    ( 0.0000,  0.0000,  0.0000)
  20 Na    -0.013862    8.468693   16.000396    ( 0.0000,  0.0000,  0.0000)
  21 Na     3.018841   10.551112   15.917942    ( 0.0000,  0.0000,  0.0000)
  22 Na     2.964895    8.493432   18.879140    ( 0.0000,  0.0000,  0.0000)
  23 Na     0.038248   10.689181   18.954438    ( 0.0000,  0.0000,  0.0000)
  24 Na     5.982123    0.000000   10.000000    ( 0.0000,  0.0000,  0.0000)
  25 Na     8.973185    2.115000   10.000000    ( 0.0000,  0.0000,  0.0000)
  26 Na     8.973185    0.000000   12.991062    ( 0.0000,  0.0000,  0.0000)
  27 Na    11.964247    2.115000   12.991062    ( 0.0000,  0.0000,  0.0000)
  28 Na     5.969011    0.000542   15.931826    ( 0.0000,  0.0000,  0.0000)
  29 Na     8.975052    2.114731   15.940581    ( 0.0000,  0.0000,  0.0000)
  30 Na     8.964927   -0.001477   18.865479    ( 0.0000,  0.0000,  0.0000)
  31 Na     5.927272    2.071186   18.927445    ( 0.0000,  0.0000,  0.0000)
  32 Na     5.982123    4.230000   10.000000    ( 0.0000,  0.0000,  0.0000)
  33 Na     8.973185    6.345000   10.000000    ( 0.0000,  0.0000,  0.0000)
  34 Na     8.973185    4.230000   12.991062    ( 0.0000,  0.0000,  0.0000)
  35 Na    11.964247    6.345000   12.991062    ( 0.0000,  0.0000,  0.0000)
  36 Na     5.999175    4.220989   15.963694    ( 0.0000,  0.0000,  0.0000)
  37 Na     8.972452    6.345399   15.938070    ( 0.0000,  0.0000,  0.0000)
  38 Na     8.956570    4.220500   18.864211    ( 0.0000,  0.0000,  0.0000)
  39 Na     5.935807    6.323124   18.864671    ( 0.0000,  0.0000,  0.0000)
  40 Na     5.982123    8.460000   10.000000    ( 0.0000,  0.0000,  0.0000)
  41 Na     8.973185   10.575000   10.000000    ( 0.0000,  0.0000,  0.0000)
  42 Na     8.973185    8.460000   12.991062    ( 0.0000,  0.0000,  0.0000)
  43 Na    11.964247   10.575000   12.991062    ( 0.0000,  0.0000,  0.0000)
  44 Na     5.994748    8.468314   15.960388    ( 0.0000,  0.0000,  0.0000)
  45 Na     8.974947   10.574879   15.939799    ( 0.0000,  0.0000,  0.0000)
  46 Na     8.956534    8.470955   18.868669    ( 0.0000,  0.0000,  0.0000)
  47 Na     5.911432   10.640784   18.923265    ( 0.0000,  0.0000,  0.0000)
  48 Na    11.964247    0.000000   10.000000    ( 0.0000,  0.0000,  0.0000)
  49 Na    14.955308    2.115000   10.000000    ( 0.0000,  0.0000,  0.0000)
  50 Na    14.955308    0.000000   12.991062    ( 0.0000,  0.0000,  0.0000)
  51 Na    17.946370    2.115000   12.991062    ( 0.0000,  0.0000,  0.0000)
  52 Na    11.960640    0.000525   15.941960    ( 0.0000,  0.0000,  0.0000)
  53 Na    14.985844    2.114741   15.919199    ( 0.0000,  0.0000,  0.0000)
  54 Na    15.041807    0.088914   18.988135    ( 0.0000,  0.0000,  0.0000)
  55 Na    11.980742    2.115760   18.866567    ( 0.0000,  0.0000,  0.0000)
  56 Na    11.964247    4.230000   10.000000    ( 0.0000,  0.0000,  0.0000)
  57 Na    14.955308    6.345000   10.000000    ( 0.0000,  0.0000,  0.0000)
  58 Na    14.955308    4.230000   12.991062    ( 0.0000,  0.0000,  0.0000)
  59 Na    17.946370    6.345000   12.991062    ( 0.0000,  0.0000,  0.0000)
  60 Na    11.960657    4.229690   15.941557    ( 0.0000,  0.0000,  0.0000)
  61 Na    14.928284    6.328114   15.982235    ( 0.0000,  0.0000,  0.0000)
  62 Na    15.048691    4.129957   18.984884    ( 0.0000,  0.0000,  0.0000)
  63 Na    11.997529    6.323107   18.866210    ( 0.0000,  0.0000,  0.0000)
  64 Na    11.964247    8.460000   10.000000    ( 0.0000,  0.0000,  0.0000)
  65 Na    14.955308   10.575000   10.000000    ( 0.0000,  0.0000,  0.0000)
  66 Na    14.955308    8.460000   12.991062    ( 0.0000,  0.0000,  0.0000)
  67 Na    17.946370   10.575000   12.991062    ( 0.0000,  0.0000,  0.0000)
  68 Na    11.965695    8.459781   15.938212    ( 0.0000,  0.0000,  0.0000)
  69 Na    14.926213   10.592308   15.983805    ( 0.0000,  0.0000,  0.0000)
  70 Na    14.998065    8.470907   18.865707    ( 0.0000,  0.0000,  0.0000)
  71 Na    11.997472   10.596149   18.863980    ( 0.0000,  0.0000,  0.0000)
  72 Na     0.998982    1.406716   21.353765    ( 0.0000,  0.0000,  0.0000)

Unit cell:
           periodic     x           y           z      points  spacing
  1. axis:    yes   17.946370    0.000000    0.000000    60     0.2991
  2. axis:    yes    0.000000   12.690000    0.000000    42     0.3021
  3. axis:    no     0.000000    0.000000   28.973185    96     0.3018

  Lengths:  17.946370  12.690000  28.973185
  Angles:   90.000000  90.000000  90.000000

Effective grid spacing dv^(1/3) = 0.3010

     iter     time        total  log10-change:
                         energy   eigst   dens
iter:   1 07:38:53   -80.297381   -5.73c
iter:   2 07:39:17   -80.296555   -6.61c -3.22
iter:   3 07:39:42   -80.296650c  -7.22c -3.56
iter:   4 07:40:06   -80.296915c  -7.35c -3.93
iter:   5 07:40:30   -80.296955c  -7.65c -4.18c

Converged after 5 iterations.

Dipole moment: (-6.743276, -3.760616, 0.295179) |e|*Ang

Energy contributions relative to reference atoms: (reference = -322558.566329)

Kinetic:       +157.876564
Potential:     -142.044424
External:        +0.000000
XC:             -98.755612
Entropy (-ST):   -1.343788
Local:           +3.298410
SIC:             +0.000000
--------------------------
Free energy:    -80.968849
Extrapolated:   -80.296955

Showing all kpts
 Kpt  Band  Eigenvalues  Occupancy
  0   253     -1.59342    1.48020
  0   254     -1.58149    1.43302
  0   255     -1.56700    1.37236
  0   256     -1.43079    0.71794

  1   253     -1.59682    1.49318
  1   254     -1.57997    1.42681
  1   255     -1.56645    1.36999
  1   256     -1.43055    0.71686


Fermi level: -1.48877

Gap: 0.136 eV
Transition (v -> c):
  (s=0, k=1, n=255, [0.25, 0.25, 0.00]) -> (s=0, k=0, n=256, [0.25, -0.25, 0.00])
Direct/indirect transitions are different
Direct gap: 0.136 eV
Transition at: (s=0, k=1, n=255, [0.25, 0.25, 0.00])

Forces in eV/Ang:
  0 Na    0.00148    0.00130    0.02406
  1 Na   -0.00272   -0.00067    0.02350
  2 Na    0.00039   -0.00723   -0.03021
  3 Na   -0.00315    0.00392   -0.01552
  4 Na   -0.00454   -0.01024    0.00439
  5 Na    0.01294    0.00110    0.01088
  6 Na    0.07057   -0.05138   -0.01592
  7 Na   -0.09497    0.07044   -0.13342
  8 Na    0.00155   -0.00454    0.02526
  9 Na   -0.00115   -0.00453    0.02760
 10 Na    0.00032    0.01792   -0.03365
 11 Na    0.00212   -0.00229   -0.00243
 12 Na    0.00362    0.00579   -0.00234
 13 Na   -0.01106   -0.01150   -0.00829
 14 Na    0.01511    0.00769   -0.00487
 15 Na    0.00528    0.00523   -0.00871
 16 Na    0.00051    0.00296    0.02819
 17 Na   -0.00246    0.00541    0.02582
 18 Na   -0.00361   -0.00882   -0.00339
 19 Na    0.00090   -0.00181   -0.01466
 20 Na    0.00527    0.00670   -0.01195
 21 Na   -0.00979    0.00894    0.00016
 22 Na   -0.00576   -0.00750   -0.00183
 23 Na   -0.01010    0.00215    0.00054
 24 Na   -0.00315    0.00114    0.02685
 25 Na    0.00112   -0.00051    0.02826
 26 Na    0.00072   -0.00033   -0.01436
 27 Na    0.00037    0.00003   -0.01345
 28 Na   -0.00178    0.01027    0.00748
 29 Na    0.00094   -0.00504   -0.00659
 30 Na    0.00210   -0.00069   -0.00667
 31 Na    0.01352    0.01360   -0.00937
 32 Na   -0.00210   -0.00159    0.02784
 33 Na    0.00134    0.00095    0.02851
 34 Na    0.00116    0.00106   -0.01466
 35 Na   -0.00317    0.00079   -0.01413
 36 Na   -0.00872   -0.01405   -0.00730
 37 Na    0.00304    0.00100   -0.00313
 38 Na   -0.00134    0.00036   -0.00441
 39 Na   -0.00598   -0.00080    0.00264
 40 Na    0.00174    0.00032    0.03106
 41 Na    0.00122   -0.00052    0.02865
 42 Na    0.00211   -0.00071   -0.01527
 43 Na   -0.00160   -0.00092   -0.01385
 44 Na    0.00272    0.00237    0.00002
 45 Na   -0.00000    0.00413   -0.00616
 46 Na   -0.00147    0.00015   -0.00572
 47 Na    0.01528   -0.01273   -0.02109
 48 Na   -0.00050    0.00077    0.02848
 49 Na    0.00402   -0.00067    0.02523
 50 Na    0.00152   -0.00730   -0.01881
 51 Na   -0.00007    0.00381   -0.03572
 52 Na   -0.00072    0.00981   -0.00900
 53 Na   -0.00620   -0.00513    0.01503
 54 Na   -0.00698   -0.01451   -0.00323
 55 Na   -0.00397    0.00039   -0.00687
 56 Na   -0.00077   -0.00034    0.02899
 57 Na   -0.00022   -0.00203    0.02943
 58 Na   -0.00029    0.00502   -0.01836
 59 Na    0.00238    0.02314   -0.03178
 60 Na   -0.00057   -0.00926   -0.00882
 61 Na    0.00708   -0.00723   -0.00134
 62 Na   -0.01804    0.01341   -0.02022
 63 Na    0.00340   -0.00029   -0.00369
 64 Na   -0.00195   -0.00038    0.02991
 65 Na    0.00213    0.00285    0.02736
 66 Na   -0.00047    0.00255    0.00813
 67 Na    0.00038   -0.02904   -0.04826
 68 Na   -0.00592   -0.00060   -0.00157
 69 Na    0.01429    0.01386   -0.00570
 70 Na    0.00694    0.00041    0.00799
 71 Na    0.00318    0.00002   -0.00301
 72 Na    0.01321   -0.02822    0.11232

System changes: positions 

Initializing position-dependent things.

Density initialized from wave functions
         .-------------------------------------------.  
        /|                                           |  
       / |                                           |  
      /  |                                           |  
     /   |                                           |  
    /    |                                           |  
   /     |                                           |  
  /      |                                           |  
 *       |                                           |  
 |       |                                           |  
 |       |                                           |  
 |       |                                           |  
 |       |                                           |  
 |       |                     Na                    |  
 |      Na            Na             Na              |  
 |       |    Na            Na             Na        |  
 |       Na                                          |  
 |  Naa  |          Na            Na        Na       |  
 |       | Na  Na         Na  Na        Na           |  
 |       |       Na  Na         Na  Na            Na |  
 |Na     |  Na             Na         Na  Na         |  
 |      Na            Na             Na              |  
 |       |        Na             Na             Na   |  
 |       |Na  Na        Na  Na         Na  Na        |  
 |   Na  |      Na  Na        Na  Na                 |  
 |       | Na  Na         Na  Na        Na  Na       |  
 |    Na |           Na             Na               |  
 |Na     |       Na             Na                   |  
 |      Na  Na         Na  Na         Na  Na         |  
 |  Na   |        Na             Na                  |  
 |       |Na            Na             Na            |  
 |       |                                           |  
 Na      |      Na            Na                     |  
 |       |                                           |  
 |       |                                           |  
 |       |                                           |  
 |       .-------------------------------------------.  
 |      /                                           /   
 |     /                                           /    
 |    /                                           /     
 |   /                                           /      
 |  /                                           /       
 | /                                           /        
 |/                                           /         
 *-------------------------------------------*          

Atomic positions and initial magnetic moments

Positions:
   0 Na     0.000000    0.000000   10.000000    ( 0.0000,  0.0000,  0.0000)
   1 Na     2.991062    2.115000   10.000000    ( 0.0000,  0.0000,  0.0000)
   2 Na     2.991062    0.000000   12.991062    ( 0.0000,  0.0000,  0.0000)
   3 Na     5.982123    2.115000   12.991062    ( 0.0000,  0.0000,  0.0000)
   4 Na     0.015812   -0.083337   15.798936    ( 0.0000,  0.0000,  0.0000)
   5 Na     2.960139    2.156163   15.852766    ( 0.0000,  0.0000,  0.0000)
   6 Na     2.924261    0.081864   18.763416    ( 0.0000,  0.0000,  0.0000)
   7 Na     0.022962    2.081748   18.460520    ( 0.0000,  0.0000,  0.0000)
   8 Na     0.000000    4.230000   10.000000    ( 0.0000,  0.0000,  0.0000)
   9 Na     2.991062    6.345000   10.000000    ( 0.0000,  0.0000,  0.0000)
  10 Na     2.991062    4.230000   12.991062    ( 0.0000,  0.0000,  0.0000)
  11 Na     5.982123    6.345000   12.991062    ( 0.0000,  0.0000,  0.0000)
  12 Na    -0.013842    4.304414   15.831506    ( 0.0000,  0.0000,  0.0000)
  13 Na     3.018119    6.327120   16.001685    ( 0.0000,  0.0000,  0.0000)
  14 Na     2.914831    4.106454   19.000666    ( 0.0000,  0.0000,  0.0000)
  15 Na     0.013632    6.277307   18.891966    ( 0.0000,  0.0000,  0.0000)
  16 Na     0.000000    8.460000   10.000000    ( 0.0000,  0.0000,  0.0000)
  17 Na     2.991062   10.575000   10.000000    ( 0.0000,  0.0000,  0.0000)
  18 Na     2.991062    8.460000   12.991062    ( 0.0000,  0.0000,  0.0000)
  19 Na     5.982123   10.575000   12.991062    ( 0.0000,  0.0000,  0.0000)
  20 Na    -0.013576    8.469027   15.999761    ( 0.0000,  0.0000,  0.0000)
  21 Na     3.018310   10.551588   15.917950    ( 0.0000,  0.0000,  0.0000)
  22 Na     2.964602    8.493015   18.879014    ( 0.0000,  0.0000,  0.0000)
  23 Na     0.037699   10.689317   18.954444    ( 0.0000,  0.0000,  0.0000)
  24 Na     5.982123    0.000000   10.000000    ( 0.0000,  0.0000,  0.0000)
  25 Na     8.973185    2.115000   10.000000    ( 0.0000,  0.0000,  0.0000)
  26 Na     8.973185    0.000000   12.991062    ( 0.0000,  0.0000,  0.0000)
  27 Na    11.964247    2.115000   12.991062    ( 0.0000,  0.0000,  0.0000)
  28 Na     5.968926    0.001083   15.932218    ( 0.0000,  0.0000,  0.0000)
  29 Na     8.975096    2.114464   15.940250    ( 0.0000,  0.0000,  0.0000)
  30 Na     8.965024   -0.001512   18.865118    ( 0.0000,  0.0000,  0.0000)
  31 Na     5.927985    2.071880   18.926934    ( 0.0000,  0.0000,  0.0000)
  32 Na     5.982123    4.230000   10.000000    ( 0.0000,  0.0000,  0.0000)
  33 Na     8.973185    6.345000   10.000000    ( 0.0000,  0.0000,  0.0000)
  34 Na     8.973185    4.230000   12.991062    ( 0.0000,  0.0000,  0.0000)
  35 Na    11.964247    6.345000   12.991062    ( 0.0000,  0.0000,  0.0000)
  36 Na     5.998711    4.220237   15.963313    ( 0.0000,  0.0000,  0.0000)
  37 Na     8.972612    6.345454   15.937922    ( 0.0000,  0.0000,  0.0000)
  38 Na     8.956492    4.220510   18.863965    ( 0.0000,  0.0000,  0.0000)
  39 Na     5.935500    6.323096   18.864787    ( 0.0000,  0.0000,  0.0000)
  40 Na     5.982123    8.460000   10.000000    ( 0.0000,  0.0000,  0.0000)
  41 Na     8.973185   10.575000   10.000000    ( 0.0000,  0.0000,  0.0000)
  42 Na     8.973185    8.460000   12.991062    ( 0.0000,  0.0000,  0.0000)
  43 Na    11.964247   10.575000   12.991062    ( 0.0000,  0.0000,  0.0000)
  44 Na     5.994894    8.468450   15.960408    ( 0.0000,  0.0000,  0.0000)
  45 Na     8.974941   10.575094   15.939488    ( 0.0000,  0.0000,  0.0000)
  46 Na     8.956443    8.470971   18.868361    ( 0.0000,  0.0000,  0.0000)
  47 Na     5.912223   10.640147   18.922151    ( 0.0000,  0.0000,  0.0000)
  48 Na    11.964247    0.000000   10.000000    ( 0.0000,  0.0000,  0.0000)
  49 Na    14.955308    2.115000   10.000000    ( 0.0000,  0.0000,  0.0000)
  50 Na    14.955308    0.000000   12.991062    ( 0.0000,  0.0000,  0.0000)
  51 Na    17.946370    2.115000   12.991062    ( 0.0000,  0.0000,  0.0000)
  52 Na    11.960609    0.001053   15.941502    ( 0.0000,  0.0000,  0.0000)
  53 Na    14.985508    2.114478   15.919996    ( 0.0000,  0.0000,  0.0000)
  54 Na    15.041447    0.088166   18.987938    ( 0.0000,  0.0000,  0.0000)
  55 Na    11.980538    2.115787   18.866193    ( 0.0000,  0.0000,  0.0000)
  56 Na    11.964247    4.230000   10.000000    ( 0.0000,  0.0000,  0.0000)
  57 Na    14.955308    6.345000   10.000000    ( 0.0000,  0.0000,  0.0000)
  58 Na    14.955308    4.230000   12.991062    ( 0.0000,  0.0000,  0.0000)
  59 Na    17.946370    6.345000   12.991062    ( 0.0000,  0.0000,  0.0000)
  60 Na    11.960635    4.229197   15.941106    ( 0.0000,  0.0000,  0.0000)
  61 Na    14.928676    6.327715   15.982170    ( 0.0000,  0.0000,  0.0000)
  62 Na    15.047775    4.130618   18.983802    ( 0.0000,  0.0000,  0.0000)
  63 Na    11.997709    6.323083   18.866006    ( 0.0000,  0.0000,  0.0000)
  64 Na    11.964247    8.460000   10.000000    ( 0.0000,  0.0000,  0.0000)
  65 Na    14.955308   10.575000   10.000000    ( 0.0000,  0.0000,  0.0000)
  66 Na    14.955308    8.460000   12.991062    ( 0.0000,  0.0000,  0.0000)
  67 Na    17.946370   10.575000   12.991062    ( 0.0000,  0.0000,  0.0000)
  68 Na    11.965369    8.459745   15.938146    ( 0.0000,  0.0000,  0.0000)
  69 Na    14.926981   10.593052   15.983497    ( 0.0000,  0.0000,  0.0000)
  70 Na    14.998427    8.470912   18.866099    ( 0.0000,  0.0000,  0.0000)
  71 Na    11.997631   10.596154   18.863807    ( 0.0000,  0.0000,  0.0000)
  72 Na     0.999881    1.405117   21.360274    ( 0.0000,  0.0000,  0.0000)

Unit cell:
           periodic     x           y           z      points  spacing
  1. axis:    yes   17.946370    0.000000    0.000000    60     0.2991
  2. axis:    yes    0.000000   12.690000    0.000000    42     0.3021
  3. axis:    no     0.000000    0.000000   28.973185    96     0.3018

  Lengths:  17.946370  12.690000  28.973185
  Angles:   90.000000  90.000000  90.000000

Effective grid spacing dv^(1/3) = 0.3010

     iter     time        total  log10-change:
                         energy   eigst   dens
iter:   1 07:51:06   -80.300556   -5.50c
iter:   2 07:51:30   -80.299676   -6.50c -3.17
iter:   3 07:51:54   -80.299832c  -6.92c -3.42
iter:   4 07:52:18   -80.300194c  -6.99c -3.80
iter:   5 07:52:42   -80.300106c  -7.33c -3.99
iter:   6 07:53:06   -80.300046c  -7.64c -4.27c

Converged after 6 iterations.

Dipole moment: (-6.552815, -3.692949, 0.296253) |e|*Ang

Energy contributions relative to reference atoms: (reference = -322558.566329)

Kinetic:       +157.805085
Potential:     -141.986670
External:        +0.000000
XC:             -98.744904
Entropy (-ST):   -1.343870
Local:           +3.298378
SIC:             +0.000000
--------------------------
Free energy:    -80.971981
Extrapolated:   -80.300046

Showing all kpts
 Kpt  Band  Eigenvalues  Occupancy
  0   253     -1.59311    1.48020
  0   254     -1.58136    1.43372
  0   255     -1.56674    1.37253
  0   256     -1.43043    0.71771

  1   253     -1.59649    1.49308
  1   254     -1.57986    1.42761
  1   255     -1.56618    1.37014
  1   256     -1.43015    0.71640


Fermi level: -1.48846

Gap: 0.136 eV
Transition (v -> c):
  (s=0, k=1, n=255, [0.25, 0.25, 0.00]) -> (s=0, k=0, n=256, [0.25, -0.25, 0.00])
Direct/indirect transitions are different
Direct gap: 0.136 eV
Transition at: (s=0, k=1, n=255, [0.25, 0.25, 0.00])

Forces in eV/Ang:
  0 Na    0.00164    0.00122    0.02408
  1 Na   -0.00291   -0.00056    0.02354
  2 Na    0.00012   -0.00720   -0.02953
  3 Na   -0.00318    0.00396   -0.01529
  4 Na   -0.00329   -0.01075    0.00344
[...]
 19 Na    0.00088   -0.00198   -0.01382
 20 Na    0.00446    0.00675   -0.01189
 21 Na   -0.00830    0.00704   -0.00240
 22 Na   -0.00513   -0.00549   -0.00239
 23 Na   -0.00710    0.00446    0.00067
 24 Na   -0.00361    0.00120    0.02724
 25 Na    0.00106   -0.00053    0.02897
 26 Na    0.00101   -0.00051   -0.01426
 27 Na   -0.00007    0.00028   -0.01383
 28 Na   -0.00181    0.00902    0.00548
 29 Na    0.00085   -0.00368   -0.00671
 30 Na    0.00245   -0.00082   -0.00701
 31 Na    0.01223    0.01325   -0.00831
 32 Na   -0.00266   -0.00161    0.02848
 33 Na    0.00109    0.00066    0.02967
 34 Na    0.00132    0.00155   -0.01376
 35 Na   -0.00339    0.00111   -0.01278
 36 Na   -0.00691   -0.01128   -0.00725
 37 Na    0.00279    0.00073   -0.00397
 38 Na   -0.00066    0.00135   -0.00546
 39 Na   -0.00445   -0.00147    0.00113
 40 Na    0.00092    0.00030    0.03182
 41 Na    0.00101   -0.00019    0.02958
 42 Na    0.00235   -0.00102   -0.01380
 43 Na   -0.00172   -0.00148   -0.01270
 44 Na    0.00240    0.00110   -0.00184
 45 Na    0.00063    0.00295   -0.00656
 46 Na    0.00001   -0.00066   -0.00702
 47 Na    0.01585   -0.01345   -0.01972
 48 Na   -0.00037    0.00104    0.02913
 49 Na    0.00446   -0.00053    0.02543
 50 Na    0.00149   -0.00728   -0.01865
 51 Na    0.00045    0.00352   -0.03450
 52 Na   -0.00091    0.00738   -0.00878
 53 Na   -0.00670   -0.00490    0.01076
 54 Na   -0.00651   -0.01375   -0.00219
 55 Na   -0.00376    0.00021   -0.00697
 56 Na   -0.00052   -0.00060    0.02985
 57 Na    0.00053   -0.00213    0.03004
 58 Na   -0.00054    0.00516   -0.01806
 59 Na    0.00257    0.02347   -0.03235
 60 Na   -0.00136   -0.00688   -0.00874
 61 Na    0.00510   -0.00508   -0.00239
 62 Na   -0.01971    0.01493   -0.01790
 63 Na    0.00194    0.00049   -0.00519
 64 Na   -0.00151   -0.00039    0.03108
 65 Na    0.00278    0.00279    0.02792
 66 Na   -0.00070    0.00239    0.00903
 67 Na    0.00061   -0.02895   -0.04835
 68 Na   -0.00476   -0.00049   -0.00244
 69 Na    0.01139    0.01119   -0.00532
 70 Na    0.00535    0.00124    0.00617
 71 Na    0.00275   -0.00067   -0.00431
 72 Na    0.00729   -0.02359    0.06275

System changes: positions 

Initializing position-dependent things.

Density initialized from wave functions
         .-------------------------------------------.  
        /|                                           |  
       / |                                           |  
      /  |                                           |  
     /   |                                           |  
    /    |                                           |  
   /     |                                           |  
  /      |                                           |  
 *       |                                           |  
 |       |                                           |  
 |       |                                           |  
 |       |                                           |  
 |       |                                           |  
 |       |                     Na                    |  
 |      Na            Na             Na              |  
 |       |    Na            Na             Na        |  
 |       Na                                          |  
 |  Naa  |          Na            Na        Na       |  
 |       | Na  Na         Na  Na        Na           |  
 |       |       Na  Na         Na  Na            Na |  
 |Na     |  Na             Na         Na  Na         |  
 |      Na            Na             Na              |  
 |       |        Na             Na             Na   |  
 |       |Na  Na        Na  Na         Na  Na        |  
 |   Na  |      Na  Na        Na  Na                 |  
 |       | Na  Na         Na  Na        Na  Na       |  
 |    Na |           Na             Na               |  
 |Na     |       Na             Na                   |  
 |      Na  Na         Na  Na         Na  Na         |  
 |  Na   |        Na             Na                  |  
 |       |Na            Na             Na            |  
 |       |                                           |  
 Na      |      Na            Na                     |  
 |       |                                           |  
 |       |                                           |  
 |       |                                           |  
 |       .-------------------------------------------.  
 |      /                                           /   
 |     /                                           /    
 |    /                                           /     
 |   /                                           /      
 |  /                                           /       
 | /                                           /        
 |/                                           /         
 *-------------------------------------------*          

Atomic positions and initial magnetic moments

Positions:
   0 Na     0.000000    0.000000   10.000000    ( 0.0000,  0.0000,  0.0000)
   1 Na     2.991062    2.115000   10.000000    ( 0.0000,  0.0000,  0.0000)
   2 Na     2.991062    0.000000   12.991062    ( 0.0000,  0.0000,  0.0000)
   3 Na     5.982123    2.115000   12.991062    ( 0.0000,  0.0000,  0.0000)
   4 Na     0.014896   -0.085744   15.799895    ( 0.0000,  0.0000,  0.0000)
   5 Na     2.963075    2.156389   15.855251    ( 0.0000,  0.0000,  0.0000)
   6 Na     2.940153    0.070308   18.759772    ( 0.0000,  0.0000,  0.0000)
   7 Na     0.001551    2.097694   18.430477    ( 0.0000,  0.0000,  0.0000)
   8 Na     0.000000    4.230000   10.000000    ( 0.0000,  0.0000,  0.0000)
   9 Na     2.991062    6.345000   10.000000    ( 0.0000,  0.0000,  0.0000)
  10 Na     2.991062    4.230000   12.991062    ( 0.0000,  0.0000,  0.0000)
  11 Na     5.982123    6.345000   12.991062    ( 0.0000,  0.0000,  0.0000)
  12 Na    -0.012931    4.305880   15.830656    ( 0.0000,  0.0000,  0.0000)
  13 Na     3.015579    6.324467   15.999621    ( 0.0000,  0.0000,  0.0000)
  14 Na     2.918192    4.107896   18.999510    ( 0.0000,  0.0000,  0.0000)
  15 Na     0.014859    6.278503   18.889841    ( 0.0000,  0.0000,  0.0000)
  16 Na     0.000000    8.460000   10.000000    ( 0.0000,  0.0000,  0.0000)
  17 Na     2.991062   10.575000   10.000000    ( 0.0000,  0.0000,  0.0000)
  18 Na     2.991062    8.460000   12.991062    ( 0.0000,  0.0000,  0.0000)
  19 Na     5.982123   10.575000   12.991062    ( 0.0000,  0.0000,  0.0000)
  20 Na    -0.012353    8.470586   15.996860    ( 0.0000,  0.0000,  0.0000)
  21 Na     3.016014   10.553621   15.917790    ( 0.0000,  0.0000,  0.0000)
  22 Na     2.963289    8.491301   18.878444    ( 0.0000,  0.0000,  0.0000)
  23 Na     0.035451   10.690113   18.954525    ( 0.0000,  0.0000,  0.0000)
  24 Na     5.982123    0.000000   10.000000    ( 0.0000,  0.0000,  0.0000)
  25 Na     8.973185    2.115000   10.000000    ( 0.0000,  0.0000,  0.0000)
  26 Na     8.973185    0.000000   12.991062    ( 0.0000,  0.0000,  0.0000)
  27 Na    11.964247    2.115000   12.991062    ( 0.0000,  0.0000,  0.0000)
  28 Na     5.968521    0.003451   15.933836    ( 0.0000,  0.0000,  0.0000)
  29 Na     8.975307    2.113359   15.938692    ( 0.0000,  0.0000,  0.0000)
  30 Na     8.965530   -0.001687   18.863463    ( 0.0000,  0.0000,  0.0000)
  31 Na     5.931099    2.075053   18.924722    ( 0.0000,  0.0000,  0.0000)
  32 Na     5.982123    4.230000   10.000000    ( 0.0000,  0.0000,  0.0000)
  33 Na     8.973185    6.345000   10.000000    ( 0.0000,  0.0000,  0.0000)
  34 Na     8.973185    4.230000   12.991062    ( 0.0000,  0.0000,  0.0000)
  35 Na    11.964247    6.345000   12.991062    ( 0.0000,  0.0000,  0.0000)
  36 Na     5.996741    4.217046   15.961556    ( 0.0000,  0.0000,  0.0000)
  37 Na     8.973335    6.345690   15.937142    ( 0.0000,  0.0000,  0.0000)
  38 Na     8.956205    4.220653   18.862781    ( 0.0000,  0.0000,  0.0000)
  39 Na     5.934209    6.322891   18.865233    ( 0.0000,  0.0000,  0.0000)
  40 Na     5.982123    8.460000   10.000000    ( 0.0000,  0.0000,  0.0000)
  41 Na     8.973185   10.575000   10.000000    ( 0.0000,  0.0000,  0.0000)
  42 Na     8.973185    8.460000   12.991062    ( 0.0000,  0.0000,  0.0000)
  43 Na    11.964247   10.575000   12.991062    ( 0.0000,  0.0000,  0.0000)
  44 Na     5.995542    8.468948   15.960308    ( 0.0000,  0.0000,  0.0000)
  45 Na     8.974986   10.575977   15.938001    ( 0.0000,  0.0000,  0.0000)
  46 Na     8.956173    8.470963   18.866864    ( 0.0000,  0.0000,  0.0000)
  47 Na     5.915873   10.637159   18.917190    ( 0.0000,  0.0000,  0.0000)
  48 Na    11.964247    0.000000   10.000000    ( 0.0000,  0.0000,  0.0000)
  49 Na    14.955308    2.115000   10.000000    ( 0.0000,  0.0000,  0.0000)
  50 Na    14.955308    0.000000   12.991062    ( 0.0000,  0.0000,  0.0000)
  51 Na    17.946370    2.115000   12.991062    ( 0.0000,  0.0000,  0.0000)
  52 Na    11.960438    0.003243   15.939392    ( 0.0000,  0.0000,  0.0000)
  53 Na    14.983956    2.113279   15.923289    ( 0.0000,  0.0000,  0.0000)
  54 Na    15.039868    0.084790   18.987177    ( 0.0000,  0.0000,  0.0000)
  55 Na    11.979601    2.115887   18.864504    ( 0.0000,  0.0000,  0.0000)
  56 Na    11.964247    4.230000   10.000000    ( 0.0000,  0.0000,  0.0000)
  57 Na    14.955308    6.345000   10.000000    ( 0.0000,  0.0000,  0.0000)
  58 Na    14.955308    4.230000   12.991062    ( 0.0000,  0.0000,  0.0000)
  59 Na    17.946370    6.345000   12.991062    ( 0.0000,  0.0000,  0.0000)
  60 Na    11.960446    4.227154   15.939015    ( 0.0000,  0.0000,  0.0000)
  61 Na    14.930261    6.326107   15.981758    ( 0.0000,  0.0000,  0.0000)
  62 Na    15.043459    4.133782   18.979099    ( 0.0000,  0.0000,  0.0000)
  63 Na    11.998411    6.323055   18.864970    ( 0.0000,  0.0000,  0.0000)
  64 Na    11.964247    8.460000   10.000000    ( 0.0000,  0.0000,  0.0000)
  65 Na    14.955308   10.575000   10.000000    ( 0.0000,  0.0000,  0.0000)
  66 Na    14.955308    8.460000   12.991062    ( 0.0000,  0.0000,  0.0000)
  67 Na    17.946370   10.575000   12.991062    ( 0.0000,  0.0000,  0.0000)
  68 Na    11.963984    8.459590   15.937739    ( 0.0000,  0.0000,  0.0000)
  69 Na    14.930232   10.596201   15.982113    ( 0.0000,  0.0000,  0.0000)
  70 Na    14.999945    8.471028   18.867782    ( 0.0000,  0.0000,  0.0000)
  71 Na    11.998331   10.596109   18.862935    ( 0.0000,  0.0000,  0.0000)
  72 Na     1.003207    1.398387   21.385375    ( 0.0000,  0.0000,  0.0000)

Unit cell:
           periodic     x           y           z      points  spacing
  1. axis:    yes   17.946370    0.000000    0.000000    60     0.2991
  2. axis:    yes    0.000000   12.690000    0.000000    42     0.3021
  3. axis:    no     0.000000    0.000000   28.973185    96     0.3018

  Lengths:  17.946370  12.690000  28.973185
  Angles:   90.000000  90.000000  90.000000

Effective grid spacing dv^(1/3) = 0.3010

     iter     time        total  log10-change:
                         energy   eigst   dens
iter:   1 08:32:16   -80.313795   -5.08
iter:   2 08:32:42   -80.310238   -6.10c -3.00
iter:   3 08:33:06   -80.309795c  -6.58c -3.22
iter:   4 08:33:29   -80.309915c  -6.49c -3.54
iter:   5 08:33:54   -80.309718c  -6.82c -3.74
iter:   6 08:34:18   -80.309544c  -7.17c -4.01c

Converged after 6 iterations.

Dipole moment: (-5.813126, -3.405728, 0.299609) |e|*Ang

Energy contributions relative to reference atoms: (reference = -322558.566329)

Kinetic:       +157.709972
Potential:     -141.922469
External:        +0.000000
XC:             -98.724157
Entropy (-ST):   -1.343664
Local:           +3.298942
SIC:             +0.000000
--------------------------
Free energy:    -80.981376
Extrapolated:   -80.309544

Showing all kpts
 Kpt  Band  Eigenvalues  Occupancy
  0   253     -1.59246    1.47923
  0   254     -1.58119    1.43467
  0   255     -1.56616    1.37180
  0   256     -1.43034    0.71916

  1   253     -1.59583    1.49214
  1   254     -1.57975    1.42884
  1   255     -1.56566    1.36966
  1   256     -1.42990    0.71712


Fermi level: -1.48806

Gap: 0.135 eV
Transition (v -> c):
  (s=0, k=1, n=255, [0.25, 0.25, 0.00]) -> (s=0, k=0, n=256, [0.25, -0.25, 0.00])
Direct/indirect transitions are different
Direct gap: 0.136 eV
Transition at: (s=0, k=1, n=255, [0.25, 0.25, 0.00])

Forces in eV/Ang:
  0 Na    0.00183    0.00131    0.02416
  1 Na   -0.00319   -0.00057    0.02361
  2 Na   -0.00004   -0.00689   -0.02934
  3 Na   -0.00316    0.00380   -0.01578
  4 Na   -0.00177   -0.01161   -0.00051
  5 Na    0.00882   -0.00026    0.00950
  6 Na    0.04095   -0.03165   -0.00434
  7 Na   -0.05056    0.04177   -0.05803
  8 Na    0.00179   -0.00444    0.02557
  9 Na   -0.00153   -0.00454    0.02817
 10 Na    0.00032    0.01734   -0.03346
 11 Na    0.00233   -0.00203   -0.00159
 12 Na    0.00376    0.01277   -0.01435
 13 Na   -0.00804   -0.00981   -0.00811
 14 Na    0.00868    0.00155   -0.00369
 15 Na    0.00421    0.00284   -0.00868
 16 Na    0.00075    0.00287    0.02870
 17 Na   -0.00284    0.00530    0.02633
 18 Na   -0.00365   -0.00874   -0.00319
 19 Na    0.00095   -0.00199   -0.01378
 20 Na    0.00412    0.00674   -0.01138
 21 Na   -0.00741    0.00619   -0.00307
 22 Na   -0.00478   -0.00445   -0.00227
 23 Na   -0.00585    0.00455    0.00083
 24 Na   -0.00370    0.00116    0.02733
 25 Na    0.00106   -0.00049    0.02904
 26 Na    0.00115   -0.00057   -0.01449
 27 Na   -0.00023    0.00031   -0.01424
 28 Na   -0.00193    0.00840    0.00497
 29 Na    0.00077   -0.00322   -0.00652
 30 Na    0.00247   -0.00083   -0.00692
 31 Na    0.01161    0.01292   -0.00771
 32 Na   -0.00271   -0.00157    0.02862
 33 Na    0.00110    0.00069    0.02982
 34 Na    0.00140    0.00168   -0.01377
 35 Na   -0.00345    0.00123   -0.01272
 36 Na   -0.00622   -0.01015   -0.00685
 37 Na    0.00257    0.00063   -0.00415
 38 Na   -0.00042    0.00164   -0.00552
 39 Na   -0.00398   -0.00177    0.00086
 40 Na    0.00089    0.00030    0.03198
 41 Na    0.00100   -0.00026    0.02970
 42 Na    0.00241   -0.00108   -0.01368
 43 Na   -0.00177   -0.00163   -0.01267
 44 Na    0.00217    0.00068   -0.00234
 45 Na    0.00070    0.00256   -0.00642
 46 Na    0.00051   -0.00091   -0.00723
 47 Na    0.01575   -0.01365   -0.01884
 48 Na   -0.00033    0.00100    0.02923
 49 Na    0.00456   -0.00050    0.02547
 50 Na    0.00142   -0.00727   -0.01881
 51 Na    0.00058    0.00332   -0.03417
 52 Na   -0.00096    0.00643   -0.00845
 53 Na   -0.00648   -0.00470    0.00932
 54 Na   -0.00648   -0.01324   -0.00183
 55 Na   -0.00349    0.00009   -0.00682
 56 Na   -0.00048   -0.00053    0.02998
 57 Na    0.00054   -0.00214    0.03018
 58 Na   -0.00071    0.00516   -0.01819
 59 Na    0.00259    0.02367   -0.03284
 60 Na   -0.00150   -0.00603   -0.00838
 61 Na    0.00441   -0.00434   -0.00249
 62 Na   -0.02011    0.01552   -0.01692
 63 Na    0.00143    0.00076   -0.00543
 64 Na   -0.00149   -0.00042    0.03127
 65 Na    0.00282    0.00277    0.02808
 66 Na   -0.00081    0.00238    0.00903
 67 Na    0.00061   -0.02886   -0.04858
 68 Na   -0.00420   -0.00039   -0.00268
 69 Na    0.01020    0.01015   -0.00482
 70 Na    0.00484    0.00162    0.00579
 71 Na    0.00260   -0.00083   -0.00444
 72 Na    0.00484   -0.02177    0.04357

Timing:                                      incl.     excl.
-------------------------------------------------------------------
Density initialized from wave functions:    22.186    22.185   0.0% |
 Symmetrize density:                         0.000     0.000   0.0% |
Forces:                                     64.521    64.521   0.1% |
Hamiltonian:                                13.842     0.262   0.0% |
 Atomic:                                     6.112     0.027   0.0% |
  XC Correction:                             6.085     6.085   0.0% |
 Calculate atomic Hamiltonians:              4.848     4.848   0.0% |
 Communicate:                                0.000     0.000   0.0% |
 Initialize Hamiltonian:                     0.003     0.003   0.0% |
 Poisson:                                    0.855     0.855   0.0% |
 XC 3D grid:                                 1.764     1.764   0.0% |
LCAO initialization:                       145.485     0.014   0.0% |
 LCAO eigensolver:                           0.609     0.001   0.0% |
  Calculate projections:                     0.022     0.022   0.0% |
  DenseAtomicCorrection:                     0.105     0.105   0.0% |
  Distribute overlap matrix:                 0.001     0.001   0.0% |
  Orbital Layouts:                           0.193     0.193   0.0% |
  Potential matrix:                          0.281     0.281   0.0% |
  Sum over cells:                            0.007     0.007   0.0% |
 LCAO to grid:                             144.343   144.343   0.3% |
 Set positions (LCAO WFS):                   0.518     0.182   0.0% |
  Basic WFS set positions:                   0.001     0.001   0.0% |
  Basis functions set positions:             0.000     0.000   0.0% |
  P tci:                                     0.244     0.244   0.0% |
  ST tci:                                    0.081     0.081   0.0% |
  mktci:                                     0.010     0.010   0.0% |
PWDescriptor:                                0.009     0.009   0.0% |
Redistribute:                                0.052     0.052   0.0% |
SCF-cycle:                                1424.202     0.413   0.0% |
 Davidson:                                1226.016   230.321   0.4% |
  Apply H:                                 164.261   162.616   0.3% |
   HMM T:                                    1.645     1.645   0.0% |
  Subspace diag:                           230.365     0.012   0.0% |
   calc_h_matrix:                          193.310    32.341   0.1% |
    Apply H:                               160.969   158.707   0.3% |
     HMM T:                                  2.262     2.262   0.0% |
   diagonalize:                              2.636     2.636   0.0% |
   rotate_psi:                              34.407    34.407   0.1% |
  calc. matrices:                          493.557   164.572   0.3% |
   Apply H:                                328.984   325.539   0.6% |
    HMM T:                                   3.446     3.446   0.0% |
  diagonalize:                              37.330    37.330   0.1% |
  rotate_psi:                               70.183    70.183   0.1% |
 Density:                                   95.396     0.000   0.0% |
  Atomic density matrices:                   0.316     0.316   0.0% |
  Mix:                                      24.828    24.828   0.0% |
  Multipole moments:                         0.022     0.022   0.0% |
  Pseudo density:                           70.230    70.229   0.1% |
   Symmetrize density:                       0.001     0.001   0.0% |
 Hamiltonian:                               69.440     0.194   0.0% |
  Atomic:                                   32.860     0.089   0.0% |
   XC Correction:                           32.771    32.771   0.1% |
  Calculate atomic Hamiltonians:            26.653    26.653   0.1% |
  Communicate:                               0.000     0.000   0.0% |
  Poisson:                                   0.122     0.122   0.0% |
  XC 3D grid:                                9.611     9.611   0.0% |
 Orthonormalize:                            32.936     0.003   0.0% |
  calc_s_matrix:                             3.088     3.088   0.0% |
  inverse-cholesky:                          0.082     0.082   0.0% |
  projections:                              10.134    10.134   0.0% |
  rotate_psi_s:                             19.628    19.628   0.0% |
Set symmetry:                                0.000     0.000   0.0% |
Other:                                   51527.168 51527.168  96.9% |--------------------------------------|
-------------------------------------------------------------------
Total:                                             53197.465 100.0%

Memory usage: 5.62 GiB
Date: Mon Nov 24 20:48:50 2025
