
  ___ ___ ___ _ _ _  
 |   |   |_  | | | | 
 | | | | | . | | | | 
 |__ |  _|___|_____|  25.7.0
 |___|_|             

User:   tew@Mathuss-MacBook-Air-357.local
Date:   Mon Nov 24 06:02:13 2025
Arch:   arm64
Pid:    82977
CWD:    /Users/tew/Documents/Project/GitHub/chem-com
Python: 3.13.5
gpaw:   /Users/tew/Documents/Project/GitHub/chem-com/.venv/lib/python3.13/site-packages/gpaw
_gpaw:  /Users/tew/Documents/Project/GitHub/chem-com/.venv/lib/python3.13/site-packages/
        _gpaw.cpython-313-darwin.so
ase:    /Users/tew/Documents/Project/GitHub/chem-com/.venv/lib/python3.13/site-packages/ase (version 3.26.0)
numpy:  /Users/tew/Documents/Project/GitHub/chem-com/.venv/lib/python3.13/site-packages/numpy (version 2.3.5)
scipy:  /Users/tew/Documents/Project/GitHub/chem-com/.venv/lib/python3.13/site-packages/scipy (version 1.16.3)
libxc:  2.x.y
units:  Angstrom and eV
cores: 1
OpenMP: False
OMP_NUM_THREADS: 1

Input parameters:
  convergence: {density: 0.0001,
                eigenstates: 5e-06}
  kpts: [2 2 1]
  mode: {ecut: 200.0,
         name: pw}
  xc: PBE

System changes: positions, numbers, cell, pbc, initial_charges, initial_magmoms 

Initialize ...

species:
  Na:
    name: Sodium
    id: d7ecbc49209718622bcbe287195dca2a
    Z: 11.0
    valence: 7
    core: 4
    charge: 0.0
    file: /Users/tew/Documents/Project/GitHub/chem-com/.venv/lib/python3.13/site-packages/gpaw_data/setups/Na.PBE.gz
    compensation charges: {type: gauss,
                           rc: 0.37,
                           lmax: 2}
    cutoffs: {filter: 2.17,
              core: 2.59}
    projectors:
      #              energy  rcut
      - 3s(1.00)    -2.744   1.201
      - 2p(6.00)   -28.672   1.217
      - 3p(0.00)    -0.743   1.217
      -  s          24.468   1.201
      -  d           0.000   1.238
  
    # Using partial waves for Na as LCAO basis

Reference energy: -322558.566329  # eV

Spin-paired calculation

Convergence criteria:
 Maximum [total energy] change in last 3 cyles: 0.0005 eV / valence electron
 Maximum integral of absolute [dens]ity change: 0.0001 electrons / valence electron
 Maximum integral of absolute [eigenst]ate change: 5e-06 eV^2 / valence electron
 Maximum number of scf [iter]ations: 333
 (Square brackets indicate name in SCF output, whereas a 'c' in
 the SCF output indicates the quantity has converged.)

Symmetries present (total): 1

  ( 1  0  0)
  ( 0  1  0)
  ( 0  0  1)

4 k-points: 2 x 2 x 1 Monkhorst-Pack grid
2 k-points in the irreducible part of the Brillouin zone
       k-points in crystal coordinates                weights
   0:     0.25000000   -0.25000000    0.00000000          2/4
   1:     0.25000000    0.25000000    0.00000000          2/4

Wave functions: Plane wave expansion
  Cutoff energy: 200.000 eV
  Number of coefficients (min, max): 42398, 42398
  Pulay-stress correction: 0.000000 eV/Ang^3 (de/decut=0.000000)
  Using Numpy's FFT
  ScaLapack parameters: grid=1x1, blocksize=None
  Wavefunction extrapolation:
    Improved wavefunction reuse through dual PAW basis 

Occupation numbers: Fermi-Dirac:
  width: 0.1000  # eV
 

Eigensolver
   Davidson(niter=2) 

Densities:
  Coarse grid: 60*42*96 grid
  Fine grid: 120*84*192 grid
  Total Charge: 0.000000 

Density mixing:
  Method: separate
  Backend: pulay
  Linear mixing parameter: 0.05
  old densities: 5
  Damping of long wavelength oscillations: 50 

Hamiltonian:
  XC and Coulomb potentials evaluated on a 120*84*192 grid
  Using the PBE Exchange-Correlation functional
  External potential:
    NoExternalPotential
 

XC parameters: PBE with 2 nearest neighbor stencil

Memory estimate:
  Process memory now: 3387.00 MiB
  Calculator: 793.74 MiB
    Density: 111.27 MiB
      Arrays: 47.99 MiB
      Localized functions: 44.82 MiB
      Mixer: 18.46 MiB
    Hamiltonian: 32.29 MiB
      Arrays: 31.38 MiB
      XC: 0.00 MiB
      Poisson: 0.00 MiB
      vbar: 0.91 MiB
    Wavefunctions: 650.19 MiB
      Arrays psit_nG: 402.40 MiB
      Eigensolver: 219.20 MiB
      Projections: 9.01 MiB
      Projectors: 9.06 MiB
      PW-descriptor: 10.52 MiB

Total number of cores used: 1

Number of atoms: 73
Number of atomic orbitals: 511
Number of bands in calculation: 311
Number of valence electrons: 511
Bands to converge: occupied

... initialized

Initializing position-dependent things.

Density initialized from atomic densities
Creating initial wave functions:
  311 bands from LCAO basis set

         .-------------------------------------------.  
        /|                                           |  
       / |                                           |  
      /  |                                           |  
     /   |                                           |  
    /    |                                           |  
   /     |                                           |  
  /      |                                           |  
 *       |                                           |  
 |       |                                           |  
 |       |                                           |  
 |       |                                           |  
 |       |                                           |  
 |       |                     Na                    |  
 |      Na            Na             Na              |  
 |       |    Na            Na             Na        |  
 |       Na             Na            Na             |  
 |   NNa |          Na            Na        Na       |  
 |       | Na  Na         Na  Na        Na           |  
 |Na     |       Na  Na         Na  Na            Na |  
 |       |  Na             Na         Na  Na         |  
 |      Na        Na  Na             Na              |  
 |       |                       Na             Na   |  
 |       |Na  Na        Na  Na         Na  Na        |  
 |   Na  |          Na            Na                 |  
 |       | Na  Na         Na  Na        Na  Na       |  
 |    Na |           Na             Na               |  
 |Na     |       Na             Na                   |  
 |      Na  Na         Na  Na         Na  Na         |  
 |  Na   |        Na             Na                  |  
 |       |Na            Na             Na            |  
 |       |                                           |  
 Na      |      Na            Na                     |  
 |       |                                           |  
 |       |                                           |  
 |       |                                           |  
 |       .-------------------------------------------.  
 |      /                                           /   
 |     /                                           /    
 |    /                                           /     
 |   /                                           /      
 |  /                                           /       
 | /                                           /        
 |/                                           /         
 *-------------------------------------------*          

Atomic positions and initial magnetic moments

Positions:
   0 Na     0.000000    0.000000   10.000000    ( 0.0000,  0.0000,  0.0000)
   1 Na     2.991062    2.115000   10.000000    ( 0.0000,  0.0000,  0.0000)
   2 Na     2.991062    0.000000   12.991062    ( 0.0000,  0.0000,  0.0000)
   3 Na     5.982123    2.115000   12.991062    ( 0.0000,  0.0000,  0.0000)
   4 Na     0.033046   -0.040946   15.851111    ( 0.0000,  0.0000,  0.0000)
   5 Na     2.974539    2.196892   15.798025    ( 0.0000,  0.0000,  0.0000)
   6 Na     2.951692    0.045201   18.484453    ( 0.0000,  0.0000,  0.0000)
   7 Na     0.078740    2.024599   18.766515    ( 0.0000,  0.0000,  0.0000)
   8 Na     0.000000    4.230000   10.000000    ( 0.0000,  0.0000,  0.0000)
   9 Na     2.991062    6.345000   10.000000    ( 0.0000,  0.0000,  0.0000)
  10 Na     2.991062    4.230000   12.991062    ( 0.0000,  0.0000,  0.0000)
  11 Na     5.982123    6.345000   12.991062    ( 0.0000,  0.0000,  0.0000)
  12 Na    -0.028860    4.254871   15.917927    ( 0.0000,  0.0000,  0.0000)
  13 Na     3.005492    6.336962   16.001691    ( 0.0000,  0.0000,  0.0000)
  14 Na     2.951692    4.116188   18.954438    ( 0.0000,  0.0000,  0.0000)
  15 Na     0.025588    6.310695   18.879417    ( 0.0000,  0.0000,  0.0000)
  16 Na     0.000000    8.460000   10.000000    ( 0.0000,  0.0000,  0.0000)
  17 Na     2.991062   10.575000   10.000000    ( 0.0000,  0.0000,  0.0000)
  18 Na     2.991062    8.460000   12.991062    ( 0.0000,  0.0000,  0.0000)
  19 Na     5.982123   10.575000   12.991062    ( 0.0000,  0.0000,  0.0000)
  20 Na    -0.028860    8.476076   16.003057    ( 0.0000,  0.0000,  0.0000)
  21 Na     3.005492   10.501145   15.831433    ( 0.0000,  0.0000,  0.0000)
  22 Na     2.978267    8.528611   18.893393    ( 0.0000,  0.0000,  0.0000)
  23 Na     0.078740   10.699707   19.001507    ( 0.0000,  0.0000,  0.0000)
  24 Na     5.982123    0.000000   10.000000    ( 0.0000,  0.0000,  0.0000)
  25 Na     8.973185    2.115000   10.000000    ( 0.0000,  0.0000,  0.0000)
  26 Na     8.973185    0.000000   12.991062    ( 0.0000,  0.0000,  0.0000)
  27 Na    11.964247    2.115000   12.991062    ( 0.0000,  0.0000,  0.0000)
  28 Na     5.950852   -0.000274   15.917634    ( 0.0000,  0.0000,  0.0000)
  29 Na     8.976734    2.115549   15.942870    ( 0.0000,  0.0000,  0.0000)
  30 Na     8.956269   -0.000705   18.867335    ( 0.0000,  0.0000,  0.0000)
  31 Na     5.894925    2.024599   18.988533    ( 0.0000,  0.0000,  0.0000)
  32 Na     5.982123    4.230000   10.000000    ( 0.0000,  0.0000,  0.0000)
  33 Na     8.973185    6.345000   10.000000    ( 0.0000,  0.0000,  0.0000)
  34 Na     8.973185    4.230000   12.991062    ( 0.0000,  0.0000,  0.0000)
  35 Na    11.964247    6.345000   12.991062    ( 0.0000,  0.0000,  0.0000)
  36 Na     6.012758    4.214199   15.984450    ( 0.0000,  0.0000,  0.0000)
  37 Na     8.971077    6.345146   15.938332    ( 0.0000,  0.0000,  0.0000)
  38 Na     8.940267    4.208872   18.864356    ( 0.0000,  0.0000,  0.0000)
  39 Na     5.940076    6.334084   18.864954    ( 0.0000,  0.0000,  0.0000)
  40 Na     5.982123    8.460000   10.000000    ( 0.0000,  0.0000,  0.0000)
  41 Na     8.973185   10.575000   10.000000    ( 0.0000,  0.0000,  0.0000)
  42 Na     8.973185    8.460000   12.991062    ( 0.0000,  0.0000,  0.0000)
  43 Na    11.964247   10.575000   12.991062    ( 0.0000,  0.0000,  0.0000)
  44 Na     6.009929    8.476076   15.982385    ( 0.0000,  0.0000,  0.0000)
  45 Na     8.976734   10.574306   15.942462    ( 0.0000,  0.0000,  0.0000)
  46 Na     8.940267    8.481833   18.866639    ( 0.0000,  0.0000,  0.0000)
  47 Na     5.886924   10.676318   18.987044    ( 0.0000,  0.0000,  0.0000)
  48 Na    11.964247    0.000000   10.000000    ( 0.0000,  0.0000,  0.0000)
  49 Na    14.955308    2.115000   10.000000    ( 0.0000,  0.0000,  0.0000)
  50 Na    14.955308    0.000000   12.991062    ( 0.0000,  0.0000,  0.0000)
  51 Na    17.946370    2.115000   12.991062    ( 0.0000,  0.0000,  0.0000)
  52 Na    11.962472   -0.000274   15.941234    ( 0.0000,  0.0000,  0.0000)
  53 Na    14.968282    2.115549   15.931070    ( 0.0000,  0.0000,  0.0000)
  54 Na    15.011595    0.045201   18.928491    ( 0.0000,  0.0000,  0.0000)
  55 Na    11.972705    2.116410   18.866222    ( 0.0000,  0.0000,  0.0000)
  56 Na    11.964247    4.230000   10.000000    ( 0.0000,  0.0000,  0.0000)
  57 Na    14.955308    6.345000   10.000000    ( 0.0000,  0.0000,  0.0000)
  58 Na    14.955308    4.230000   12.991062    ( 0.0000,  0.0000,  0.0000)
  59 Na    17.946370    6.345000   12.991062    ( 0.0000,  0.0000,  0.0000)
  60 Na    11.962472    4.230566   15.940418    ( 0.0000,  0.0000,  0.0000)
  61 Na    14.942986    6.336962   15.960348    ( 0.0000,  0.0000,  0.0000)
  62 Na    15.027596    4.162967   18.925512    ( 0.0000,  0.0000,  0.0000)
  63 Na    11.980706    6.334084   18.869298    ( 0.0000,  0.0000,  0.0000)
  64 Na    11.964247    8.460000   10.000000    ( 0.0000,  0.0000,  0.0000)
  65 Na    14.955308   10.575000   10.000000    ( 0.0000,  0.0000,  0.0000)
  66 Na    14.955308    8.460000   12.991062    ( 0.0000,  0.0000,  0.0000)
  67 Na    17.946370   10.575000   12.991062    ( 0.0000,  0.0000,  0.0000)
  68 Na    11.965301    8.459709   15.938353    ( 0.0000,  0.0000,  0.0000)
  69 Na    14.937329   10.582489   15.964478    ( 0.0000,  0.0000,  0.0000)
  70 Na    15.001021    8.481833   18.864467    ( 0.0000,  0.0000,  0.0000)
  71 Na    11.980706   10.584506   18.864732    ( 0.0000,  0.0000,  0.0000)
  72 Na     1.994041    0.705000   21.339934    ( 0.0000,  0.0000,  0.0000)

Unit cell:
           periodic     x           y           z      points  spacing
  1. axis:    yes   17.946370    0.000000    0.000000    60     0.2991
  2. axis:    yes    0.000000   12.690000    0.000000    42     0.3021
  3. axis:    no     0.000000    0.000000   28.973185    96     0.3018

  Lengths:  17.946370  12.690000  28.973185
  Angles:   90.000000  90.000000  90.000000

Effective grid spacing dv^(1/3) = 0.3010

     iter     time        total  log10-change:
                         energy   eigst   dens
iter:   1 06:14:36   -81.476231
iter:   2 06:15:01   -80.910125   -2.32  -1.52
iter:   3 06:15:26   -80.561476   -2.78  -1.59
iter:   4 06:15:51   -80.344799   -2.89  -1.71
iter:   5 06:16:16   -80.424586c  -3.05  -1.99
iter:   6 06:16:41   -80.371579c  -3.68  -2.13
iter:   7 06:17:06   -80.308308c  -3.86  -2.26
iter:   8 06:17:31   -80.303251c  -4.36  -2.74
iter:   9 06:17:56   -80.295549c  -4.56  -2.88
iter:  10 06:18:21   -80.292246c  -4.76  -3.16
iter:  11 06:18:47   -80.290499c  -5.02  -3.29
iter:  12 06:19:18   -80.289404c  -5.22  -3.39
iter:  13 06:19:48   -80.289124c  -5.24  -3.54
iter:  14 06:20:17   -80.289127c  -5.71c -3.83
iter:  15 06:20:46   -80.289114c  -5.96c -3.89
iter:  16 06:21:13   -80.289112c  -6.17c -4.02c

Converged after 16 iterations.

Dipole moment: (-6.408665, -5.672870, 0.291962) |e|*Ang

Energy contributions relative to reference atoms: (reference = -322558.566329)

Kinetic:       +159.569133
Potential:     -143.540233
External:        +0.000000
XC:             -98.939349
Entropy (-ST):   -1.344053
Local:           +3.293364
SIC:             +0.000000
--------------------------
Free energy:    -80.961138
Extrapolated:   -80.289112

Showing all kpts
 Kpt  Band  Eigenvalues  Occupancy
  0   253     -1.59396    1.48106
  0   254     -1.58174    1.43275
  0   255     -1.56736    1.37252
  0   256     -1.43086    0.71682

  1   253     -1.59735    1.49400
  1   254     -1.58019    1.42642
  1   255     -1.56677    1.36999
  1   256     -1.43070    0.71610


Fermi level: -1.48909

Gap: 0.136 eV
Transition (v -> c):
  (s=0, k=1, n=255, [0.25, 0.25, 0.00]) -> (s=0, k=0, n=256, [0.25, -0.25, 0.00])
Direct/indirect transitions are different
Direct gap: 0.136 eV
Transition at: (s=0, k=1, n=255, [0.25, 0.25, 0.00])

Forces in eV/Ang:
  0 Na    0.00315    0.00060    0.02620
  1 Na   -0.00177   -0.00136    0.02670
  2 Na    0.00011   -0.00387   -0.03708
  3 Na   -0.00240    0.00677   -0.01841
  4 Na   -0.01428   -0.00094    0.01198
  5 Na    0.00437    0.00902    0.00745
  6 Na    0.11335   -0.08212   -0.16983
  7 Na   -0.08117    0.05734   -0.02187
  8 Na    0.00260   -0.00535    0.02759
  9 Na   -0.00062   -0.00291    0.02963
 10 Na   -0.00054    0.02841   -0.04879
 11 Na    0.00046   -0.00252    0.00850
 12 Na    0.01079   -0.01036    0.00015
 13 Na   -0.00532   -0.00651   -0.01359
 14 Na    0.01139   -0.00552   -0.00047
 15 Na    0.00567    0.00901   -0.00312
 16 Na    0.00119    0.00454    0.02906
 17 Na   -0.00177    0.00456    0.02743
 18 Na   -0.00223   -0.02242   -0.03156
 19 Na   -0.00060   -0.00456   -0.01771
 20 Na    0.01153    0.01206   -0.00990
 21 Na   -0.00417   -0.00276    0.00112
 22 Na   -0.00557   -0.00598   -0.00934
 23 Na   -0.01653   -0.00597   -0.00568
 24 Na   -0.00470    0.00044    0.02746
 25 Na    0.00016   -0.00023    0.02983
 26 Na   -0.00165   -0.00024   -0.01217
 27 Na    0.00016    0.00068   -0.01324
 28 Na    0.00854    0.00553    0.01470
 29 Na    0.00072   -0.01091   -0.00929
 30 Na    0.00452   -0.00049   -0.00831
 31 Na    0.00660    0.01477   -0.00397
 32 Na   -0.00239   -0.00251    0.02886
 33 Na    0.00218    0.00072    0.03110
 34 Na    0.00108    0.00125   -0.01329
 35 Na   -0.00188    0.00089   -0.01524
 36 Na   -0.01489   -0.01509   -0.00697
 37 Na    0.00630    0.00071   -0.00133
 38 Na   -0.00300   -0.00048   -0.00462
 39 Na   -0.00668    0.00015    0.00686
 40 Na    0.00015    0.00191    0.03074
 41 Na    0.00054   -0.00051    0.03030
 42 Na    0.00285   -0.00091   -0.01384
 43 Na   -0.00062   -0.00158   -0.01399
 44 Na   -0.00722    0.00794   -0.00223
 45 Na    0.00044    0.01023   -0.00938
 46 Na   -0.00366    0.00079   -0.00504
 47 Na    0.01831   -0.01235   -0.02135
 48 Na   -0.00084    0.00015    0.02951
 49 Na    0.00375   -0.00074    0.02869
 50 Na    0.00410   -0.00386   -0.01496
 51 Na   -0.00016    0.00685   -0.03089
 52 Na   -0.00119    0.00553   -0.00660
 53 Na    0.00072   -0.01103    0.00679
 54 Na   -0.01435   -0.01410   -0.01108
 55 Na   -0.00239    0.00050   -0.00815
 56 Na   -0.00106    0.00147    0.02988
 57 Na   -0.00178   -0.00016    0.03226
 58 Na   -0.00019    0.00170   -0.01407
 59 Na    0.00324    0.00872   -0.00325
 60 Na    0.00005   -0.00470   -0.00643
 61 Na   -0.00326   -0.00261   -0.00030
 62 Na   -0.01643    0.01248   -0.02304
 63 Na    0.00182   -0.00042   -0.00694
 64 Na   -0.00137   -0.00157    0.02973
 65 Na    0.00250    0.00104    0.02941
 66 Na   -0.00183    0.00236   -0.00194
 67 Na    0.00014   -0.01748   -0.03410
 68 Na   -0.00310   -0.00091   -0.00288
 69 Na    0.00895    0.01521   -0.00846
 70 Na    0.00576    0.00048    0.00135
 71 Na    0.00131    0.00013   -0.00603
 72 Na   -0.01821    0.03165    0.14357

System changes: positions 

Initializing position-dependent things.

Density initialized from wave functions
         .-------------------------------------------.  
        /|                                           |  
       / |                                           |  
      /  |                                           |  
     /   |                                           |  
    /    |                                           |  
   /     |                                           |  
  /      |                                           |  
 *       |                                           |  
 |       |                                           |  
 |       |                                           |  
 |       |                                           |  
 |       |                                           |  
 |       |                     Na                    |  
 |      Na            Na             Na              |  
 |       |    Na            Na             Na        |  
 |       Na             Na            Na             |  
 |   NNa |          Na            Na        Na       |  
 |       | Na  Na         Na  Na        Na           |  
 |Na     |       Na  Na         Na  Na            Na |  
 |       |  Na             Na         Na  Na         |  
 |      Na        Na  Na             Na              |  
 |       |                       Na             Na   |  
 |       |Na  Na        Na  Na         Na  Na        |  
 |   Na  |          Na            Na                 |  
 |       | Na  Na         Na  Na        Na  Na       |  
 |    Na |           Na             Na               |  
 |Na     |       Na             Na                   |  
 |      Na  Na         Na  Na         Na  Na         |  
 |  Na   |        Na             Na                  |  
 |       |Na            Na             Na            |  
 |       |                                           |  
 Na      |      Na            Na                     |  
 |       |                                           |  
 |       |                                           |  
 |       |                                           |  
 |       .-------------------------------------------.  
 |      /                                           /   
 |     /                                           /    
 |    /                                           /     
 |   /                                           /      
 |  /                                           /       
 | /                                           /        
 |/                                           /         
 *-------------------------------------------*          

Atomic positions and initial magnetic moments

Positions:
   0 Na     0.000000    0.000000   10.000000    ( 0.0000,  0.0000,  0.0000)
   1 Na     2.991062    2.115000   10.000000    ( 0.0000,  0.0000,  0.0000)
   2 Na     2.991062    0.000000   12.991062    ( 0.0000,  0.0000,  0.0000)
   3 Na     5.982123    2.115000   12.991062    ( 0.0000,  0.0000,  0.0000)
   4 Na     0.032903   -0.040957   15.851230    ( 0.0000,  0.0000,  0.0000)
   5 Na     2.974582    2.196982   15.798101    ( 0.0000,  0.0000,  0.0000)
   6 Na     2.952824    0.044381   18.482762    ( 0.0000,  0.0000,  0.0000)
   7 Na     0.077927    2.025173   18.766289    ( 0.0000,  0.0000,  0.0000)
   8 Na     0.000000    4.230000   10.000000    ( 0.0000,  0.0000,  0.0000)
   9 Na     2.991062    6.345000   10.000000    ( 0.0000,  0.0000,  0.0000)
  10 Na     2.991062    4.230000   12.991062    ( 0.0000,  0.0000,  0.0000)
  11 Na     5.982123    6.345000   12.991062    ( 0.0000,  0.0000,  0.0000)
  12 Na    -0.028752    4.254768   15.917927    ( 0.0000,  0.0000,  0.0000)
  13 Na     3.005439    6.336897   16.001555    ( 0.0000,  0.0000,  0.0000)
  14 Na     2.951805    4.116133   18.954434    ( 0.0000,  0.0000,  0.0000)
  15 Na     0.025645    6.310784   18.879386    ( 0.0000,  0.0000,  0.0000)
  16 Na     0.000000    8.460000   10.000000    ( 0.0000,  0.0000,  0.0000)
  17 Na     2.991062   10.575000   10.000000    ( 0.0000,  0.0000,  0.0000)
  18 Na     2.991062    8.460000   12.991062    ( 0.0000,  0.0000,  0.0000)
  19 Na     5.982123   10.575000   12.991062    ( 0.0000,  0.0000,  0.0000)
  20 Na    -0.028744    8.476196   16.002958    ( 0.0000,  0.0000,  0.0000)
  21 Na     3.005450   10.501119   15.831446    ( 0.0000,  0.0000,  0.0000)
  22 Na     2.978211    8.528550   18.893299    ( 0.0000,  0.0000,  0.0000)
  23 Na     0.078574   10.699647   19.001449    ( 0.0000,  0.0000,  0.0000)
  24 Na     5.982123    0.000000   10.000000    ( 0.0000,  0.0000,  0.0000)
  25 Na     8.973185    2.115000   10.000000    ( 0.0000,  0.0000,  0.0000)
  26 Na     8.973185    0.000000   12.991062    ( 0.0000,  0.0000,  0.0000)
  27 Na    11.964247    2.115000   12.991062    ( 0.0000,  0.0000,  0.0000)
  28 Na     5.950938   -0.000219   15.917781    ( 0.0000,  0.0000,  0.0000)
  29 Na     8.976741    2.115440   15.942777    ( 0.0000,  0.0000,  0.0000)
  30 Na     8.956314   -0.000710   18.867252    ( 0.0000,  0.0000,  0.0000)
  31 Na     5.894992    2.024747   18.988492    ( 0.0000,  0.0000,  0.0000)
  32 Na     5.982123    4.230000   10.000000    ( 0.0000,  0.0000,  0.0000)
  33 Na     8.973185    6.345000   10.000000    ( 0.0000,  0.0000,  0.0000)
  34 Na     8.973185    4.230000   12.991062    ( 0.0000,  0.0000,  0.0000)
  35 Na    11.964247    6.345000   12.991062    ( 0.0000,  0.0000,  0.0000)
  36 Na     6.012609    4.214048   15.984380    ( 0.0000,  0.0000,  0.0000)
  37 Na     8.971140    6.345153   15.938319    ( 0.0000,  0.0000,  0.0000)
  38 Na     8.940237    4.208868   18.864310    ( 0.0000,  0.0000,  0.0000)
  39 Na     5.940009    6.334085   18.865023    ( 0.0000,  0.0000,  0.0000)
  40 Na     5.982123    8.460000   10.000000    ( 0.0000,  0.0000,  0.0000)
  41 Na     8.973185   10.575000   10.000000    ( 0.0000,  0.0000,  0.0000)
  42 Na     8.973185    8.460000   12.991062    ( 0.0000,  0.0000,  0.0000)
  43 Na    11.964247   10.575000   12.991062    ( 0.0000,  0.0000,  0.0000)
  44 Na     6.009857    8.476155   15.982362    ( 0.0000,  0.0000,  0.0000)
  45 Na     8.976739   10.574408   15.942368    ( 0.0000,  0.0000,  0.0000)
  46 Na     8.940231    8.481840   18.866589    ( 0.0000,  0.0000,  0.0000)
  47 Na     5.887108   10.676193   18.986829    ( 0.0000,  0.0000,  0.0000)
  48 Na    11.964247    0.000000   10.000000    ( 0.0000,  0.0000,  0.0000)
  49 Na    14.955308    2.115000   10.000000    ( 0.0000,  0.0000,  0.0000)
  50 Na    14.955308    0.000000   12.991062    ( 0.0000,  0.0000,  0.0000)
  51 Na    17.946370    2.115000   12.991062    ( 0.0000,  0.0000,  0.0000)
  52 Na    11.962460   -0.000219   15.941168    ( 0.0000,  0.0000,  0.0000)
  53 Na    14.968290    2.115438   15.931137    ( 0.0000,  0.0000,  0.0000)
  54 Na    15.011452    0.045061   18.928382    ( 0.0000,  0.0000,  0.0000)
  55 Na    11.972681    2.116415   18.866141    ( 0.0000,  0.0000,  0.0000)
  56 Na    11.964247    4.230000   10.000000    ( 0.0000,  0.0000,  0.0000)
  57 Na    14.955308    6.345000   10.000000    ( 0.0000,  0.0000,  0.0000)
  58 Na    14.955308    4.230000   12.991062    ( 0.0000,  0.0000,  0.0000)
  59 Na    17.946370    6.345000   12.991062    ( 0.0000,  0.0000,  0.0000)
  60 Na    11.962473    4.230519   15.940354    ( 0.0000,  0.0000,  0.0000)
  61 Na    14.942953    6.336936   15.960346    ( 0.0000,  0.0000,  0.0000)
  62 Na    15.027433    4.163091   18.925283    ( 0.0000,  0.0000,  0.0000)
  63 Na    11.980724    6.334079   18.869229    ( 0.0000,  0.0000,  0.0000)
  64 Na    11.964247    8.460000   10.000000    ( 0.0000,  0.0000,  0.0000)
  65 Na    14.955308   10.575000   10.000000    ( 0.0000,  0.0000,  0.0000)
  66 Na    14.955308    8.460000   12.991062    ( 0.0000,  0.0000,  0.0000)
  67 Na    17.946370   10.575000   12.991062    ( 0.0000,  0.0000,  0.0000)
  68 Na    11.965270    8.459700   15.938325    ( 0.0000,  0.0000,  0.0000)
  69 Na    14.937419   10.582641   15.964393    ( 0.0000,  0.0000,  0.0000)
  70 Na    15.001078    8.481837   18.864480    ( 0.0000,  0.0000,  0.0000)
  71 Na    11.980719   10.584508   18.864672    ( 0.0000,  0.0000,  0.0000)
  72 Na     1.993835    0.705334   21.341370    ( 0.0000,  0.0000,  0.0000)

Unit cell:
           periodic     x           y           z      points  spacing
  1. axis:    yes   17.946370    0.000000    0.000000    60     0.2991
  2. axis:    yes    0.000000   12.690000    0.000000    42     0.3021
  3. axis:    no     0.000000    0.000000   28.973185    96     0.3018

  Lengths:  17.946370  12.690000  28.973185
  Angles:   90.000000  90.000000  90.000000

Effective grid spacing dv^(1/3) = 0.3010

     iter     time        total  log10-change:
                         energy   eigst   dens
iter:   1 07:03:00   -80.289895   -6.14c
iter:   2 07:03:26   -80.289965   -6.59c -3.80
iter:   3 07:03:52   -80.290034c  -6.80c -3.96
iter:   4 07:04:17   -80.290051c  -7.00c -4.23c

Converged after 4 iterations.

Dipole moment: (-6.384437, -5.650174, 0.295708) |e|*Ang

Energy contributions relative to reference atoms: (reference = -322558.566329)

Kinetic:       +157.371250
Potential:     -141.585496
External:        +0.000000
XC:             -98.700200
Entropy (-ST):   -1.343921
Local:           +3.296356
SIC:             +0.000000
--------------------------
Free energy:    -80.962012
Extrapolated:   -80.290051

Showing all kpts
 Kpt  Band  Eigenvalues  Occupancy
  0   253     -1.59372    1.48069
  0   254     -1.58161    1.43279
  0   255     -1.56721    1.37252
  0   256     -1.43081    0.71725

  1   253     -1.59713    1.49368
  1   254     -1.58006    1.42645
  1   255     -1.56663    1.37001
  1   256     -1.43065    0.71652


Fermi level: -1.48894

Gap: 0.136 eV
Transition (v -> c):
  (s=0, k=1, n=255, [0.25, 0.25, 0.00]) -> (s=0, k=0, n=256, [0.25, -0.25, 0.00])
Direct/indirect transitions are different
Direct gap: 0.136 eV
Transition at: (s=0, k=1, n=255, [0.25, 0.25, 0.00])

Forces in eV/Ang:
  0 Na    0.00270    0.00053    0.02215
  1 Na   -0.00157   -0.00097    0.02268
  2 Na   -0.00013   -0.00407   -0.03445
  3 Na   -0.00185    0.00731   -0.01787
  4 Na   -0.01440   -0.00147    0.01070
  5 Na    0.00479    0.00985    0.00578
  6 Na    0.11148   -0.08089   -0.16374
  7 Na   -0.08034    0.05725   -0.01959
  8 Na    0.00287   -0.00511    0.02465
  9 Na   -0.00090   -0.00283    0.02716
 10 Na   -0.00078    0.02909   -0.04738
 11 Na    0.00026   -0.00260    0.00846
 12 Na    0.01097   -0.00988    0.00032
 13 Na   -0.00592   -0.00656   -0.01268
 14 Na    0.01126   -0.00380    0.00041
 15 Na    0.00592    0.00893   -0.00275
 16 Na    0.00168    0.00437    0.02659
 17 Na   -0.00182    0.00409    0.02397
 18 Na   -0.00272   -0.02291   -0.03097
 19 Na   -0.00020   -0.00499   -0.01746
 20 Na    0.01228    0.01201   -0.00904
 21 Na   -0.00408   -0.00352    0.00059
 22 Na   -0.00568   -0.00645   -0.00930
 23 Na   -0.01661   -0.00728   -0.00483
 24 Na   -0.00393    0.00076    0.02395
 25 Na    0.00064   -0.00143    0.02807
 26 Na   -0.00006   -0.00002   -0.01318
 27 Na   -0.00082    0.00026   -0.01423
 28 Na    0.00727    0.00535    0.01574
 29 Na    0.00045   -0.01054   -0.00892
 30 Na    0.00409   -0.00058   -0.00734
 31 Na    0.00670    0.01474   -0.00337
 32 Na   -0.00270   -0.00300    0.02640
 33 Na    0.00132    0.00006    0.02997
 34 Na    0.00193    0.00081   -0.01336
 35 Na   -0.00225    0.00069   -0.01448
 36 Na   -0.01549   -0.01513   -0.00624
 37 Na    0.00695    0.00071   -0.00103
 38 Na   -0.00312   -0.00006   -0.00353
 39 Na   -0.00711    0.00014    0.00766
 40 Na   -0.00065    0.00208    0.02865
 41 Na    0.00061    0.00135    0.02874
 42 Na    0.00351   -0.00070   -0.01346
 43 Na   -0.00128   -0.00095   -0.01427
 44 Na   -0.00795    0.00815   -0.00103
 45 Na    0.00052    0.00987   -0.00887
 46 Na   -0.00359    0.00046   -0.00404
 47 Na    0.01797   -0.01249   -0.02112
 48 Na   -0.00120    0.00094    0.02801
 49 Na    0.00310   -0.00145    0.02587
 50 Na    0.00309   -0.00404   -0.01485
 51 Na   -0.00002    0.00735   -0.02896
 52 Na   -0.00077    0.00532   -0.00644
 53 Na    0.00146   -0.01088    0.00791
 54 Na   -0.01438   -0.01388   -0.01023
 55 Na   -0.00184    0.00080   -0.00708
 56 Na   -0.00098   -0.00061    0.02870
 57 Na   -0.00078   -0.00042    0.03062
 58 Na   -0.00077    0.00180   -0.01414
 59 Na    0.00394    0.00884   -0.00296
 60 Na   -0.00003   -0.00423   -0.00606
 61 Na   -0.00302   -0.00284    0.00085
 62 Na   -0.01597    0.01249   -0.02238
 63 Na    0.00180   -0.00031   -0.00602
 64 Na   -0.00094   -0.00029    0.02872
 65 Na    0.00247    0.00201    0.02708
 66 Na   -0.00208    0.00243   -0.00195
 67 Na    0.00025   -0.01811   -0.03264
 68 Na   -0.00346   -0.00117   -0.00273
 69 Na    0.00935    0.01527   -0.00762
 70 Na    0.00601    0.00038    0.00225
 71 Na    0.00162   -0.00027   -0.00492
 72 Na   -0.01761    0.03131    0.13862

System changes: positions 

Initializing position-dependent things.

Density initialized from wave functions
         .-------------------------------------------.  
        /|                                           |  
       / |                                           |  
      /  |                                           |  
     /   |                                           |  
    /    |                                           |  
   /     |                                           |  
  /      |                                           |  
 *       |                                           |  
 |       |                                           |  
 |       |                                           |  
 |       |                                           |  
 |       |                                           |  
 |       |                     Na                    |  
 |      Na            Na             Na              |  
 |       |    Na            Na             Na        |  
 |       Na             Na            Na             |  
 |   NNa |          Na            Na        Na       |  
 |       | Na  Na         Na  Na        Na           |  
 |Na     |       Na  Na         Na  Na            Na |  
 |       |  Na             Na         Na  Na         |  
 |      Na        Na  Na             Na              |  
 |       |                       Na             Na   |  
 |       |Na  Na        Na  Na         Na  Na        |  
 |   Na  |          Na            Na                 |  
 |       | Na  Na         Na  Na        Na  Na       |  
 |    Na |           Na             Na               |  
 |Na     |       Na             Na                   |  
 |      Na  Na         Na  Na         Na  Na         |  
 |  Na   |        Na             Na                  |  
 |       |Na            Na             Na            |  
 |       |                                           |  
 Na      |      Na            Na                     |  
 |       |                                           |  
 |       |                                           |  
 |       |                                           |  
 |       .-------------------------------------------.  
 |      /                                           /   
 |     /                                           /    
 |    /                                           /     
 |   /                                           /      
 |  /                                           /       
 | /                                           /        
 |/                                           /         
 *-------------------------------------------*          

Atomic positions and initial magnetic moments

Positions:
   0 Na     0.000000    0.000000   10.000000    ( 0.0000,  0.0000,  0.0000)
   1 Na     2.991062    2.115000   10.000000    ( 0.0000,  0.0000,  0.0000)
   2 Na     2.991062    0.000000   12.991062    ( 0.0000,  0.0000,  0.0000)
   3 Na     5.982123    2.115000   12.991062    ( 0.0000,  0.0000,  0.0000)
   4 Na     0.032615   -0.040983   15.851453    ( 0.0000,  0.0000,  0.0000)
   5 Na     2.974673    2.197169   15.798234    ( 0.0000,  0.0000,  0.0000)
   6 Na     2.955072    0.042751   18.479441    ( 0.0000,  0.0000,  0.0000)
   7 Na     0.076309    2.026323   18.765863    ( 0.0000,  0.0000,  0.0000)
   8 Na     0.000000    4.230000   10.000000    ( 0.0000,  0.0000,  0.0000)
   9 Na     2.991062    6.345000   10.000000    ( 0.0000,  0.0000,  0.0000)
  10 Na     2.991062    4.230000   12.991062    ( 0.0000,  0.0000,  0.0000)
  11 Na     5.982123    6.345000   12.991062    ( 0.0000,  0.0000,  0.0000)
  12 Na    -0.028533    4.254568   15.917928    ( 0.0000,  0.0000,  0.0000)
  13 Na     3.005326    6.336766   16.001293    ( 0.0000,  0.0000,  0.0000)
  14 Na     2.952029    4.116041   18.954436    ( 0.0000,  0.0000,  0.0000)
  15 Na     0.025761    6.310962   18.879328    ( 0.0000,  0.0000,  0.0000)
  16 Na     0.000000    8.460000   10.000000    ( 0.0000,  0.0000,  0.0000)
  17 Na     2.991062   10.575000   10.000000    ( 0.0000,  0.0000,  0.0000)
  18 Na     2.991062    8.460000   12.991062    ( 0.0000,  0.0000,  0.0000)
  19 Na     5.982123   10.575000   12.991062    ( 0.0000,  0.0000,  0.0000)
  20 Na    -0.028504    8.476437   16.002769    ( 0.0000,  0.0000,  0.0000)
  21 Na     3.005369   10.501058   15.831467    ( 0.0000,  0.0000,  0.0000)
  22 Na     2.978098    8.528424   18.893112    ( 0.0000,  0.0000,  0.0000)
  23 Na     0.078240   10.699512   19.001342    ( 0.0000,  0.0000,  0.0000)
  24 Na     5.982123    0.000000   10.000000    ( 0.0000,  0.0000,  0.0000)
  25 Na     8.973185    2.115000   10.000000    ( 0.0000,  0.0000,  0.0000)
  26 Na     8.973185    0.000000   12.991062    ( 0.0000,  0.0000,  0.0000)
  27 Na    11.964247    2.115000   12.991062    ( 0.0000,  0.0000,  0.0000)
  28 Na     5.951096   -0.000110   15.918087    ( 0.0000,  0.0000,  0.0000)
  29 Na     8.976753    2.115225   15.942595    ( 0.0000,  0.0000,  0.0000)
  30 Na     8.956401   -0.000721   18.867096    ( 0.0000,  0.0000,  0.0000)
  31 Na     5.895127    2.025045   18.988417    ( 0.0000,  0.0000,  0.0000)
  32 Na     5.982123    4.230000   10.000000    ( 0.0000,  0.0000,  0.0000)
  33 Na     8.973185    6.345000   10.000000    ( 0.0000,  0.0000,  0.0000)
  34 Na     8.973185    4.230000   12.991062    ( 0.0000,  0.0000,  0.0000)
  35 Na    11.964247    6.345000   12.991062    ( 0.0000,  0.0000,  0.0000)
  36 Na     6.012303    4.213746   15.984247    ( 0.0000,  0.0000,  0.0000)
  37 Na     8.971274    6.345167   15.938296    ( 0.0000,  0.0000,  0.0000)
  38 Na     8.940177    4.208864   18.864229    ( 0.0000,  0.0000,  0.0000)
  39 Na     5.939870    6.334087   18.865169    ( 0.0000,  0.0000,  0.0000)
  40 Na     5.982123    8.460000   10.000000    ( 0.0000,  0.0000,  0.0000)
  41 Na     8.973185   10.575000   10.000000    ( 0.0000,  0.0000,  0.0000)
  42 Na     8.973185    8.460000   12.991062    ( 0.0000,  0.0000,  0.0000)
  43 Na    11.964247   10.575000   12.991062    ( 0.0000,  0.0000,  0.0000)
  44 Na     6.009704    8.476316   15.982330    ( 0.0000,  0.0000,  0.0000)
  45 Na     8.976748   10.574609   15.942186    ( 0.0000,  0.0000,  0.0000)
  46 Na     8.940159    8.481852   18.866499    ( 0.0000,  0.0000,  0.0000)
  47 Na     5.887472   10.675943   18.986401    ( 0.0000,  0.0000,  0.0000)
  48 Na    11.964247    0.000000   10.000000    ( 0.0000,  0.0000,  0.0000)
  49 Na    14.955308    2.115000   10.000000    ( 0.0000,  0.0000,  0.0000)
  50 Na    14.955308    0.000000   12.991062    ( 0.0000,  0.0000,  0.0000)
  51 Na    17.946370    2.115000   12.991062    ( 0.0000,  0.0000,  0.0000)
  52 Na    11.962441   -0.000111   15.941038    ( 0.0000,  0.0000,  0.0000)
  53 Na    14.968313    2.115219   15.931285    ( 0.0000,  0.0000,  0.0000)
  54 Na    15.011165    0.044783   18.928172    ( 0.0000,  0.0000,  0.0000)
  55 Na    11.972640    2.116429   18.865989    ( 0.0000,  0.0000,  0.0000)
  56 Na    11.964247    4.230000   10.000000    ( 0.0000,  0.0000,  0.0000)
  57 Na    14.955308    6.345000   10.000000    ( 0.0000,  0.0000,  0.0000)
  58 Na    14.955308    4.230000   12.991062    ( 0.0000,  0.0000,  0.0000)
  59 Na    17.946370    6.345000   12.991062    ( 0.0000,  0.0000,  0.0000)
  60 Na    11.962473    4.230430   15.940229    ( 0.0000,  0.0000,  0.0000)
  61 Na    14.942890    6.336881   15.960353    ( 0.0000,  0.0000,  0.0000)
  62 Na    15.027110    4.163339   18.924831    ( 0.0000,  0.0000,  0.0000)
  63 Na    11.980761    6.334072   18.869100    ( 0.0000,  0.0000,  0.0000)
  64 Na    11.964247    8.460000   10.000000    ( 0.0000,  0.0000,  0.0000)
  65 Na    14.955308   10.575000   10.000000    ( 0.0000,  0.0000,  0.0000)
  66 Na    14.955308    8.460000   12.991062    ( 0.0000,  0.0000,  0.0000)
  67 Na    17.946370   10.575000   12.991062    ( 0.0000,  0.0000,  0.0000)
  68 Na    11.965204    8.459678   15.938269    ( 0.0000,  0.0000,  0.0000)
  69 Na    14.937602   10.582947   15.964234    ( 0.0000,  0.0000,  0.0000)
  70 Na    15.001196    8.481845   18.864517    ( 0.0000,  0.0000,  0.0000)
  71 Na    11.980750   10.584506   18.864563    ( 0.0000,  0.0000,  0.0000)
  72 Na     1.993430    0.705997   21.344191    ( 0.0000,  0.0000,  0.0000)

Unit cell:
           periodic     x           y           z      points  spacing
  1. axis:    yes   17.946370    0.000000    0.000000    60     0.2991
  2. axis:    yes    0.000000   12.690000    0.000000    42     0.3021
  3. axis:    no     0.000000    0.000000   28.973185    96     0.3018

  Lengths:  17.946370  12.690000  28.973185
  Angles:   90.000000  90.000000  90.000000

Effective grid spacing dv^(1/3) = 0.3010

     iter     time        total  log10-change:
                         energy   eigst   dens
iter:   1 07:13:05   -80.291380   -6.17c
iter:   2 07:13:30   -80.291285   -6.94c -3.38
iter:   3 07:13:55   -80.291445c  -7.41c -3.71
iter:   4 07:14:20   -80.291693c  -7.51c -4.07c

Converged after 4 iterations.

Dipole moment: (-6.338772, -5.605596, 0.294202) |e|*Ang

Energy contributions relative to reference atoms: (reference = -322558.566329)

Kinetic:       +158.118612
Potential:     -142.247346
External:        +0.000000
XC:             -98.788685
Entropy (-ST):   -1.343961
Local:           +3.297706
SIC:             +0.000000
--------------------------
Free energy:    -80.963674
Extrapolated:   -80.291693

Showing all kpts
 Kpt  Band  Eigenvalues  Occupancy
  0   253     -1.59351    1.48064
  0   254     -1.58139    1.43269
  0   255     -1.56702    1.37254
  0   256     -1.43060    0.71719

  1   253     -1.59693    1.49368
  1   254     -1.57983    1.42637
  1   255     -1.56645    1.37011
  1   256     -1.43042    0.71637


Fermi level: -1.48874

Gap: 0.136 eV
Transition (v -> c):
  (s=0, k=1, n=255, [0.25, 0.25, 0.00]) -> (s=0, k=0, n=256, [0.25, -0.25, 0.00])
Direct/indirect transitions are different
Direct gap: 0.136 eV
Transition at: (s=0, k=1, n=255, [0.25, 0.25, 0.00])

Forces in eV/Ang:
  0 Na    0.00273    0.00064    0.02408
  1 Na   -0.00163   -0.00132    0.02460
  2 Na    0.00011   -0.00406   -0.03581
  3 Na   -0.00196    0.00711   -0.01850
  4 Na   -0.01402   -0.00157    0.01076
  5 Na    0.00507    0.00961    0.00559
  6 Na    0.10886   -0.07941   -0.15849
  7 Na   -0.07956    0.05709   -0.01997
  8 Na    0.00243   -0.00538    0.02614
  9 Na   -0.00068   -0.00292    0.02850
 10 Na   -0.00057    0.02912   -0.04814
 11 Na    0.00002   -0.00251    0.00823
 12 Na    0.01043   -0.00959    0.00058
 13 Na   -0.00574   -0.00640   -0.01252
 14 Na    0.01132   -0.00182    0.00004
 15 Na    0.00579    0.00868   -0.00219
 16 Na    0.00112    0.00453    0.02791
 17 Na   -0.00171    0.00454    0.02572
 18 Na   -0.00255   -0.02294   -0.03127
 19 Na   -0.00030   -0.00489   -0.01791
 20 Na    0.01196    0.01196   -0.00879
 21 Na   -0.00368   -0.00385    0.00063
 22 Na   -0.00544   -0.00609   -0.00918
 23 Na   -0.01694   -0.00919   -0.00558
 24 Na   -0.00422    0.00061    0.02558
 25 Na    0.00044   -0.00063    0.02843
 26 Na   -0.00085   -0.00005   -0.01286
 27 Na   -0.00021    0.00034   -0.01394
 28 Na    0.00644    0.00508    0.01602
 29 Na    0.00057   -0.01086   -0.00902
 30 Na    0.00405   -0.00055   -0.00708
 31 Na    0.00740    0.01471   -0.00382
 32 Na   -0.00222   -0.00279    0.02745
 33 Na    0.00212    0.00047    0.02966
 34 Na    0.00140    0.00079   -0.01386
 35 Na   -0.00173    0.00067   -0.01545
 36 Na   -0.01553   -0.01497   -0.00611
 37 Na    0.00629    0.00072   -0.00117
 38 Na   -0.00321   -0.00033   -0.00284
 39 Na   -0.00745    0.00019    0.00826
 40 Na    0.00015    0.00202    0.02952
 41 Na    0.00073    0.00012    0.02888
 42 Na    0.00293   -0.00065   -0.01422
 43 Na   -0.00078   -0.00101   -0.01454
 44 Na   -0.00810    0.00824   -0.00118
 45 Na    0.00015    0.01018   -0.00884
 46 Na   -0.00393    0.00073   -0.00340
 47 Na    0.01782   -0.01297   -0.02132
 48 Na   -0.00091    0.00043    0.02820
 49 Na    0.00333   -0.00103    0.02708
 50 Na    0.00353   -0.00394   -0.01521
 51 Na   -0.00042    0.00726   -0.03027
 52 Na   -0.00086    0.00554   -0.00647
 53 Na    0.00164   -0.01073    0.00780
 54 Na   -0.01452   -0.01385   -0.01019
 55 Na   -0.00192    0.00060   -0.00676
 56 Na   -0.00105    0.00079    0.02850
 57 Na   -0.00173   -0.00028    0.03109
 58 Na   -0.00047    0.00178   -0.01450
 59 Na    0.00361    0.00891   -0.00316
 60 Na    0.00043   -0.00459   -0.00604
 61 Na   -0.00262   -0.00279    0.00043
 62 Na   -0.01551    0.01267   -0.02196
 63 Na    0.00213   -0.00043   -0.00544
 64 Na   -0.00124   -0.00116    0.02828
 65 Na    0.00224    0.00146    0.02798
 66 Na   -0.00166    0.00235   -0.00229
 67 Na   -0.00011   -0.01809   -0.03348
 68 Na   -0.00292   -0.00103   -0.00275
 69 Na    0.00952    0.01505   -0.00763
 70 Na    0.00642    0.00042    0.00277
 71 Na    0.00158    0.00003   -0.00434
 72 Na   -0.01616    0.03041    0.13462

System changes: positions 

Initializing position-dependent things.

Density initialized from wave functions
         .-------------------------------------------.  
        /|                                           |  
       / |                                           |  
      /  |                                           |  
     /   |                                           |  
    /    |                                           |  
   /     |                                           |  
  /      |                                           |  
 *       |                                           |  
 |       |                                           |  
 |       |                                           |  
 |       |                                           |  
 |       |                                           |  
 |       |                     Na                    |  
 |      Na            Na             Na              |  
 |       |    Na            Na             Na        |  
 |       Na                                          |  
 |   NNa |          Na            Na        Na       |  
 |       | Na  Na         Na  Na        Na           |  
 |Na     |       Na  Na         Na  Na            Na |  
 |       |  Na             Na         Na  Na         |  
 |      Na        Na  Na             Na              |  
 |       |                       Na             Na   |  
 |       |Na  Na        Na  Na         Na  Na        |  
 |   Na  |      Na  Na        Na  Na                 |  
 |       | Na  Na         Na  Na        Na  Na       |  
 |    Na |           Na             Na               |  
 |Na     |       Na             Na                   |  
 |      Na  Na         Na  Na         Na  Na         |  
 |  Na   |        Na             Na                  |  
 |       |Na            Na             Na            |  
 |       |                                           |  
 Na      |      Na            Na                     |  
 |       |                                           |  
 |       |                                           |  
 |       |                                           |  
 |       .-------------------------------------------.  
 |      /                                           /   
 |     /                                           /    
 |    /                                           /     
 |   /                                           /      
 |  /                                           /       
 | /                                           /        
 |/                                           /         
 *-------------------------------------------*          

Atomic positions and initial magnetic moments

Positions:
   0 Na     0.000000    0.000000   10.000000    ( 0.0000,  0.0000,  0.0000)
   1 Na     2.991062    2.115000   10.000000    ( 0.0000,  0.0000,  0.0000)
   2 Na     2.991062    0.000000   12.991062    ( 0.0000,  0.0000,  0.0000)
   3 Na     5.982123    2.115000   12.991062    ( 0.0000,  0.0000,  0.0000)
   4 Na     0.032186   -0.041027   15.851782    ( 0.0000,  0.0000,  0.0000)
   5 Na     2.974816    2.197453   15.798423    ( 0.0000,  0.0000,  0.0000)
   6 Na     2.958409    0.040328   18.474547    ( 0.0000,  0.0000,  0.0000)
   7 Na     0.073890    2.028048   18.765229    ( 0.0000,  0.0000,  0.0000)
   8 Na     0.000000    4.230000   10.000000    ( 0.0000,  0.0000,  0.0000)
   9 Na     2.991062    6.345000   10.000000    ( 0.0000,  0.0000,  0.0000)
  10 Na     2.991062    4.230000   12.991062    ( 0.0000,  0.0000,  0.0000)
  11 Na     5.982123    6.345000   12.991062    ( 0.0000,  0.0000,  0.0000)
  12 Na    -0.028210    4.254274   15.917933    ( 0.0000,  0.0000,  0.0000)
  13 Na     3.005156    6.336570   16.000906    ( 0.0000,  0.0000,  0.0000)
  14 Na     2.952367    4.115936   18.954441    ( 0.0000,  0.0000,  0.0000)
  15 Na     0.025934    6.311226   18.879250    ( 0.0000,  0.0000,  0.0000)
  16 Na     0.000000    8.460000   10.000000    ( 0.0000,  0.0000,  0.0000)
  17 Na     2.991062   10.575000   10.000000    ( 0.0000,  0.0000,  0.0000)
  18 Na     2.991062    8.460000   12.991062    ( 0.0000,  0.0000,  0.0000)
  19 Na     5.982123   10.575000   12.991062    ( 0.0000,  0.0000,  0.0000)
  20 Na    -0.028144    8.476797   16.002492    ( 0.0000,  0.0000,  0.0000)
  21 Na     3.005251   10.500957   15.831496    ( 0.0000,  0.0000,  0.0000)
  22 Na     2.977930    8.528235   18.892832    ( 0.0000,  0.0000,  0.0000)
  23 Na     0.077734   10.699280   19.001177    ( 0.0000,  0.0000,  0.0000)
  24 Na     5.982123    0.000000   10.000000    ( 0.0000,  0.0000,  0.0000)
  25 Na     8.973185    2.115000   10.000000    ( 0.0000,  0.0000,  0.0000)
  26 Na     8.973185    0.000000   12.991062    ( 0.0000,  0.0000,  0.0000)
  27 Na    11.964247    2.115000   12.991062    ( 0.0000,  0.0000,  0.0000)
  28 Na     5.951316    0.000049   15.918557    ( 0.0000,  0.0000,  0.0000)
  29 Na     8.976770    2.114901   15.942322    ( 0.0000,  0.0000,  0.0000)
  30 Na     8.956527   -0.000737   18.866871    ( 0.0000,  0.0000,  0.0000)
  31 Na     5.895338    2.025492   18.988300    ( 0.0000,  0.0000,  0.0000)
  32 Na     5.982123    4.230000   10.000000    ( 0.0000,  0.0000,  0.0000)
  33 Na     8.973185    6.345000   10.000000    ( 0.0000,  0.0000,  0.0000)
  34 Na     8.973185    4.230000   12.991062    ( 0.0000,  0.0000,  0.0000)
  35 Na    11.964247    6.345000   12.991062    ( 0.0000,  0.0000,  0.0000)
  36 Na     6.011840    4.213293   15.984053    ( 0.0000,  0.0000,  0.0000)
  37 Na     8.971470    6.345189   15.938261    ( 0.0000,  0.0000,  0.0000)
  38 Na     8.940084    4.208856   18.864123    ( 0.0000,  0.0000,  0.0000)
  39 Na     5.939655    6.334091   18.865400    ( 0.0000,  0.0000,  0.0000)
  40 Na     5.982123    8.460000   10.000000    ( 0.0000,  0.0000,  0.0000)
  41 Na     8.973185   10.575000   10.000000    ( 0.0000,  0.0000,  0.0000)
  42 Na     8.973185    8.460000   12.991062    ( 0.0000,  0.0000,  0.0000)
  43 Na    11.964247   10.575000   12.991062    ( 0.0000,  0.0000,  0.0000)
  44 Na     6.009467    8.476560   15.982285    ( 0.0000,  0.0000,  0.0000)
  45 Na     8.976759   10.574913   15.941915    ( 0.0000,  0.0000,  0.0000)
  46 Na     8.940048    8.481871   18.866377    ( 0.0000,  0.0000,  0.0000)
  47 Na     5.888016   10.675560   18.985756    ( 0.0000,  0.0000,  0.0000)
  48 Na    11.964247    0.000000   10.000000    ( 0.0000,  0.0000,  0.0000)
  49 Na    14.955308    2.115000   10.000000    ( 0.0000,  0.0000,  0.0000)
  50 Na    14.955308    0.000000   12.991062    ( 0.0000,  0.0000,  0.0000)
  51 Na    17.946370    2.115000   12.991062    ( 0.0000,  0.0000,  0.0000)
  52 Na    11.962413    0.000054   15.940842    ( 0.0000,  0.0000,  0.0000)
  53 Na    14.968355    2.114892   15.931512    ( 0.0000,  0.0000,  0.0000)
  54 Na    15.010733    0.044367   18.927862    ( 0.0000,  0.0000,  0.0000)
  55 Na    11.972579    2.116448   18.865771    ( 0.0000,  0.0000,  0.0000)
  56 Na    11.964247    4.230000   10.000000    ( 0.0000,  0.0000,  0.0000)
  57 Na    14.955308    6.345000   10.000000    ( 0.0000,  0.0000,  0.0000)
  58 Na    14.955308    4.230000   12.991062    ( 0.0000,  0.0000,  0.0000)
  59 Na    17.946370    6.345000   12.991062    ( 0.0000,  0.0000,  0.0000)
  60 Na    11.962478    4.230294   15.940044    ( 0.0000,  0.0000,  0.0000)
  61 Na    14.942801    6.336797   15.960366    ( 0.0000,  0.0000,  0.0000)
  62 Na    15.026632    4.163715   18.924162    ( 0.0000,  0.0000,  0.0000)
  63 Na    11.980821    6.334059   18.868918    ( 0.0000,  0.0000,  0.0000)
  64 Na    11.964247    8.460000   10.000000    ( 0.0000,  0.0000,  0.0000)
  65 Na    14.955308   10.575000   10.000000    ( 0.0000,  0.0000,  0.0000)
  66 Na    14.955308    8.460000   12.991062    ( 0.0000,  0.0000,  0.0000)
  67 Na    17.946370   10.575000   12.991062    ( 0.0000,  0.0000,  0.0000)
  68 Na    11.965109    8.459647   15.938185    ( 0.0000,  0.0000,  0.0000)
  69 Na    14.937881   10.583404   15.963999    ( 0.0000,  0.0000,  0.0000)
  70 Na    15.001380    8.481857   18.864584    ( 0.0000,  0.0000,  0.0000)
  71 Na    11.980797   10.584506   18.864413    ( 0.0000,  0.0000,  0.0000)
  72 Na     1.992839    0.706983   21.348356    ( 0.0000,  0.0000,  0.0000)

Unit cell:
           periodic     x           y           z      points  spacing
  1. axis:    yes   17.946370    0.000000    0.000000    60     0.2991
  2. axis:    yes    0.000000   12.690000    0.000000    42     0.3021
  3. axis:    no     0.000000    0.000000   28.973185    96     0.3018

  Lengths:  17.946370  12.690000  28.973185
  Angles:   90.000000  90.000000  90.000000

Effective grid spacing dv^(1/3) = 0.3010

     iter     time        total  log10-change:
                         energy   eigst   dens
iter:   1 07:23:29   -80.293820   -5.96c
iter:   2 07:23:55   -80.293639   -6.86c -3.36
iter:   3 07:24:20   -80.293801c  -7.40c -3.68
iter:   4 07:24:45   -80.294038c  -7.57c -4.03c

Converged after 4 iterations.

Dipole moment: (-6.259189, -5.535592, 0.297333) |e|*Ang

Energy contributions relative to reference atoms: (reference = -322558.566329)

Kinetic:       +157.775081
Potential:     -141.949874
External:        +0.000000
XC:             -98.745301
Entropy (-ST):   -1.343950
Local:           +3.298032
SIC:             +0.000000
--------------------------
Free energy:    -80.966013
Extrapolated:   -80.294038

Showing all kpts
 Kpt  Band  Eigenvalues  Occupancy
  0   253     -1.59349    1.48038
  0   254     -1.58152    1.43305
  0   255     -1.56706    1.37251
  0   256     -1.43068    0.71732

  1   253     -1.59691    1.49343
  1   254     -1.57998    1.42676
  1   255     -1.56650    1.37008
  1   256     -1.43048    0.71639


Fermi level: -1.48880

Gap: 0.136 eV
Transition (v -> c):
  (s=0, k=1, n=255, [0.25, 0.25, 0.00]) -> (s=0, k=0, n=256, [0.25, -0.25, 0.00])
Direct/indirect transitions are different
Direct gap: 0.136 eV
Transition at: (s=0, k=1, n=255, [0.25, 0.25, 0.00])

Forces in eV/Ang:
  0 Na    0.00259    0.00044    0.02184
  1 Na   -0.00166   -0.00082    0.02235
  2 Na   -0.00027   -0.00411   -0.03416
  3 Na   -0.00171    0.00742   -0.01779
  4 Na   -0.01345   -0.00159    0.01057
  5 Na    0.00494    0.01000    0.00482
  6 Na    0.10328   -0.07566   -0.14821
  7 Na   -0.07617    0.05490   -0.01875
  8 Na    0.00294   -0.00493    0.02434
  9 Na   -0.00112   -0.00275    0.02688
 10 Na   -0.00088    0.02943   -0.04700
 11 Na   -0.00011   -0.00259    0.00878
 12 Na    0.01048   -0.00923    0.00053
 13 Na   -0.00603   -0.00649   -0.01225
 14 Na    0.01085   -0.00160   -0.00061
 15 Na    0.00578    0.00797   -0.00308
 16 Na    0.00184    0.00428    0.02631
 17 Na   -0.00196    0.00386    0.02365
 18 Na   -0.00305   -0.02322   -0.03058
 19 Na   -0.00008   -0.00510   -0.01730
 20 Na    0.01219    0.01186   -0.00850
 21 Na   -0.00377   -0.00476   -0.00049
 22 Na   -0.00534   -0.00556   -0.01028
 23 Na   -0.01640   -0.00887   -0.00614
 24 Na   -0.00376    0.00076    0.02359
 25 Na    0.00090   -0.00165    0.02780
 26 Na    0.00033    0.00002   -0.01328
 27 Na   -0.00094    0.00010   -0.01428
 28 Na    0.00550    0.00500    0.01650
 29 Na    0.00051   -0.01016   -0.00880
 30 Na    0.00362   -0.00062   -0.00761
 31 Na    0.00716    0.01436   -0.00443
 32 Na   -0.00281   -0.00302    0.02604
 33 Na    0.00129   -0.00008    0.02961
 34 Na    0.00215    0.00068   -0.01319
 35 Na   -0.00227    0.00068   -0.01393
 36 Na   -0.01543   -0.01468   -0.00556
 37 Na    0.00681    0.00083   -0.00126
 38 Na   -0.00312    0.00009   -0.00355
 39 Na   -0.00718   -0.00014    0.00741
 40 Na   -0.00092    0.00211    0.02823
 41 Na    0.00080    0.00168    0.02844
 42 Na    0.00373   -0.00060   -0.01306
 43 Na   -0.00130   -0.00079   -0.01412
 44 Na   -0.00805    0.00806   -0.00073
 45 Na    0.00048    0.00937   -0.00859
 46 Na   -0.00343    0.00039   -0.00432
 47 Na    0.01771   -0.01283   -0.02190
 48 Na   -0.00128    0.00105    0.02780
 49 Na    0.00294   -0.00155    0.02557
 50 Na    0.00294   -0.00410   -0.01475
 51 Na   -0.00010    0.00746   -0.02894
 52 Na   -0.00060    0.00507   -0.00643
 53 Na    0.00208   -0.01056    0.00835
 54 Na   -0.01403   -0.01354   -0.01058
 55 Na   -0.00156    0.00086   -0.00729
 56 Na   -0.00097   -0.00101    0.02840
 57 Na   -0.00052   -0.00045    0.03021
 58 Na   -0.00087    0.00178   -0.01393
 59 Na    0.00431    0.00898   -0.00258
 60 Na    0.00018   -0.00384   -0.00596
 61 Na   -0.00275   -0.00272    0.00072
 62 Na   -0.01533    0.01244   -0.02235
 63 Na    0.00173   -0.00022   -0.00643
 64 Na   -0.00084    0.00002    0.02842
 65 Na    0.00244    0.00213    0.02680
 66 Na   -0.00195    0.00249   -0.00166
 67 Na    0.00012   -0.01833   -0.03234
 68 Na   -0.00330   -0.00130   -0.00297
 69 Na    0.00936    0.01476   -0.00714
 70 Na    0.00603    0.00064    0.00200
 71 Na    0.00164   -0.00045   -0.00504
 72 Na   -0.01477    0.02949    0.12529

System changes: positions 

Initializing position-dependent things.

Density initialized from wave functions
         .-------------------------------------------.  
        /|                                           |  
       / |                                           |  
      /  |                                           |  
     /   |                                           |  
    /    |                                           |  
   /     |                                           |  
  /      |                                           |  
 *       |                                           |  
 |       |                                           |  
 |       |                                           |  
 |       |                                           |  
 |       |                                           |  
 |       |                     Na                    |  
 |      Na            Na             Na              |  
 |       |    Na            Na             Na        |  
 |       Na                                          |  
 |   NNa |          Na            Na        Na       |  
 |       | Na  Na         Na  Na        Na           |  
 |Na     |       Na  Na         Na  Na            Na |  
 |       |  Na             Na         Na  Na         |  
 |      Na        Na  Na             Na              |  
 |       |                       Na             Na   |  
 |       |Na  Na        Na  Na         Na  Na        |  
 |   Na  |      Na  Na        Na  Na                 |  
 |       | Na  Na         Na  Na        Na  Na       |  
 |    Na |           Na             Na               |  
 |Na     |       Na             Na                   |  
 |      Na  Na         Na  Na         Na  Na         |  
 |  Na   |        Na             Na                  |  
 |       |Na            Na             Na            |  
 |       |                                           |  
 Na      |      Na            Na                     |  
 |       |                                           |  
 |       |                                           |  
 |       |                                           |  
 |       .-------------------------------------------.  
 |      /                                           /   
 |     /                                           /    
 |    /                                           /     
 |   /                                           /      
 |  /                                           /       
 | /                                           /        
 |/                                           /         
 *-------------------------------------------*          

Atomic positions and initial magnetic moments

Positions:
   0 Na     0.000000    0.000000   10.000000    ( 0.0000,  0.0000,  0.0000)
   1 Na     2.991062    2.115000   10.000000    ( 0.0000,  0.0000,  0.0000)
   2 Na     2.991062    0.000000   12.991062    ( 0.0000,  0.0000,  0.0000)
   3 Na     5.982123    2.115000   12.991062    ( 0.0000,  0.0000,  0.0000)
   4 Na     0.031620   -0.041090   15.852217    ( 0.0000,  0.0000,  0.0000)
   5 Na     2.975010    2.197840   15.798659    ( 0.0000,  0.0000,  0.0000)
   6 Na     2.962779    0.037145   18.468189    ( 0.0000,  0.0000,  0.0000)
   7 Na     0.070702    2.030331   18.764399    ( 0.0000,  0.0000,  0.0000)
   8 Na     0.000000    4.230000   10.000000    ( 0.0000,  0.0000,  0.0000)
   9 Na     2.991062    6.345000   10.000000    ( 0.0000,  0.0000,  0.0000)
  10 Na     2.991062    4.230000   12.991062    ( 0.0000,  0.0000,  0.0000)
  11 Na     5.982123    6.345000   12.991062    ( 0.0000,  0.0000,  0.0000)
  12 Na    -0.027779    4.253889   15.917941    ( 0.0000,  0.0000,  0.0000)
  13 Na     3.004924    6.336307   16.000396    ( 0.0000,  0.0000,  0.0000)
  14 Na     2.952814    4.115819   18.954438    ( 0.0000,  0.0000,  0.0000)
  15 Na     0.026167    6.311568   18.879140    ( 0.0000,  0.0000,  0.0000)
  16 Na     0.000000    8.460000   10.000000    ( 0.0000,  0.0000,  0.0000)
  17 Na     2.991062   10.575000   10.000000    ( 0.0000,  0.0000,  0.0000)
  18 Na     2.991062    8.460000   12.991062    ( 0.0000,  0.0000,  0.0000)
  19 Na     5.982123   10.575000   12.991062    ( 0.0000,  0.0000,  0.0000)
  20 Na    -0.027657    8.477279   16.002131    ( 0.0000,  0.0000,  0.0000)
  21 Na     3.005096   10.500806   15.831519    ( 0.0000,  0.0000,  0.0000)
  22 Na     2.977707    8.527990   18.892443    ( 0.0000,  0.0000,  0.0000)
  23 Na     0.077059   10.698953   19.000945    ( 0.0000,  0.0000,  0.0000)
  24 Na     5.982123    0.000000   10.000000    ( 0.0000,  0.0000,  0.0000)
  25 Na     8.973185    2.115000   10.000000    ( 0.0000,  0.0000,  0.0000)
  26 Na     8.973185    0.000000   12.991062    ( 0.0000,  0.0000,  0.0000)
  27 Na    11.964247    2.115000   12.991062    ( 0.0000,  0.0000,  0.0000)
  28 Na     5.951588    0.000259   15.919199    ( 0.0000,  0.0000,  0.0000)
  29 Na     8.976792    2.114475   15.941960    ( 0.0000,  0.0000,  0.0000)
  30 Na     8.956690   -0.000760   18.866567    ( 0.0000,  0.0000,  0.0000)
  31 Na     5.895625    2.026086   18.988135    ( 0.0000,  0.0000,  0.0000)
  32 Na     5.982123    4.230000   10.000000    ( 0.0000,  0.0000,  0.0000)
  33 Na     8.973185    6.345000   10.000000    ( 0.0000,  0.0000,  0.0000)
  34 Na     8.973185    4.230000   12.991062    ( 0.0000,  0.0000,  0.0000)
  35 Na    11.964247    6.345000   12.991062    ( 0.0000,  0.0000,  0.0000)
  36 Na     6.011219    4.212692   15.983805    ( 0.0000,  0.0000,  0.0000)
  37 Na     8.971737    6.345219   15.938212    ( 0.0000,  0.0000,  0.0000)
  38 Na     8.939959    4.208851   18.863980    ( 0.0000,  0.0000,  0.0000)
  39 Na     5.939367    6.334093   18.865707    ( 0.0000,  0.0000,  0.0000)
  40 Na     5.982123    8.460000   10.000000    ( 0.0000,  0.0000,  0.0000)
  41 Na     8.973185   10.575000   10.000000    ( 0.0000,  0.0000,  0.0000)
  42 Na     8.973185    8.460000   12.991062    ( 0.0000,  0.0000,  0.0000)
  43 Na    11.964247   10.575000   12.991062    ( 0.0000,  0.0000,  0.0000)
  44 Na     6.009147    8.476886   15.982235    ( 0.0000,  0.0000,  0.0000)
  45 Na     8.976774   10.575310   15.941557    ( 0.0000,  0.0000,  0.0000)
  46 Na     8.939903    8.481893   18.866210    ( 0.0000,  0.0000,  0.0000)
  47 Na     5.888741   10.675043   18.984883    ( 0.0000,  0.0000,  0.0000)
  48 Na    11.964247    0.000000   10.000000    ( 0.0000,  0.0000,  0.0000)
  49 Na    14.955308    2.115000   10.000000    ( 0.0000,  0.0000,  0.0000)
  50 Na    14.955308    0.000000   12.991062    ( 0.0000,  0.0000,  0.0000)
  51 Na    17.946370    2.115000   12.991062    ( 0.0000,  0.0000,  0.0000)
  52 Na    11.962380    0.000269   15.940581    ( 0.0000,  0.0000,  0.0000)
  53 Na    14.968421    2.114458   15.931826    ( 0.0000,  0.0000,  0.0000)
  54 Na    15.010160    0.043815   18.927445    ( 0.0000,  0.0000,  0.0000)
  55 Na    11.972505    2.116477   18.865479    ( 0.0000,  0.0000,  0.0000)
  56 Na    11.964247    4.230000   10.000000    ( 0.0000,  0.0000,  0.0000)
  57 Na    14.955308    6.345000   10.000000    ( 0.0000,  0.0000,  0.0000)
  58 Na    14.955308    4.230000   12.991062    ( 0.0000,  0.0000,  0.0000)
  59 Na    17.946370    6.345000   12.991062    ( 0.0000,  0.0000,  0.0000)
  60 Na    11.962485    4.230121   15.939799    ( 0.0000,  0.0000,  0.0000)
  61 Na    14.942683    6.336686   15.960388    ( 0.0000,  0.0000,  0.0000)
  62 Na    15.026000    4.164216   18.923265    ( 0.0000,  0.0000,  0.0000)
  63 Na    11.980898    6.334045   18.868669    ( 0.0000,  0.0000,  0.0000)
  64 Na    11.964247    8.460000   10.000000    ( 0.0000,  0.0000,  0.0000)
  65 Na    14.955308   10.575000   10.000000    ( 0.0000,  0.0000,  0.0000)
  66 Na    14.955308    8.460000   12.991062    ( 0.0000,  0.0000,  0.0000)
  67 Na    17.946370   10.575000   12.991062    ( 0.0000,  0.0000,  0.0000)
  68 Na    11.964980    8.459602   15.938070    ( 0.0000,  0.0000,  0.0000)
  69 Na    14.938256   10.584011   15.963694    ( 0.0000,  0.0000,  0.0000)
  70 Na    15.001624    8.481876   18.864671    ( 0.0000,  0.0000,  0.0000)
  71 Na    11.980862   10.584500   18.864211    ( 0.0000,  0.0000,  0.0000)
  72 Na     1.992071    0.708290   21.353765    ( 0.0000,  0.0000,  0.0000)

Unit cell:
           periodic     x           y           z      points  spacing
  1. axis:    yes   17.946370    0.000000    0.000000    60     0.2991
  2. axis:    yes    0.000000   12.690000    0.000000    42     0.3021
  3. axis:    no     0.000000    0.000000   28.973185    96     0.3018

  Lengths:  17.946370  12.690000  28.973185
  Angles:   90.000000  90.000000  90.000000

Effective grid spacing dv^(1/3) = 0.3010

     iter     time        total  log10-change:
                         energy   eigst   dens
iter:   1 07:34:06   -80.297381   -5.73c
iter:   2 07:34:32   -80.296555   -6.61c -3.22
iter:   3 07:34:57   -80.296650c  -7.22c -3.56
iter:   4 07:35:22   -80.296915c  -7.35c -3.93
iter:   5 07:35:47   -80.296955c  -7.65c -4.18c

Converged after 5 iterations.

Dipole moment: (-6.159333, -5.443689, 0.295179) |e|*Ang

Energy contributions relative to reference atoms: (reference = -322558.566329)

Kinetic:       +157.876567
Potential:     -142.044426
External:        +0.000000
XC:             -98.755613
Entropy (-ST):   -1.343788
Local:           +3.298410
SIC:             +0.000000
--------------------------
Free energy:    -80.968849
Extrapolated:   -80.296955

Showing all kpts
 Kpt  Band  Eigenvalues  Occupancy
  0   253     -1.59342    1.48020
  0   254     -1.58149    1.43302
  0   255     -1.56700    1.37236
  0   256     -1.43079    0.71794

  1   253     -1.59682    1.49318
  1   254     -1.57997    1.42681
  1   255     -1.56645    1.36999
  1   256     -1.43055    0.71686


Fermi level: -1.48877

Gap: 0.136 eV
Transition (v -> c):
  (s=0, k=1, n=255, [0.25, 0.25, 0.00]) -> (s=0, k=0, n=256, [0.25, -0.25, 0.00])
Direct/indirect transitions are different
Direct gap: 0.136 eV
Transition at: (s=0, k=1, n=255, [0.25, 0.25, 0.00])

Forces in eV/Ang:
  0 Na    0.00272    0.00067    0.02350
  1 Na   -0.00148   -0.00130    0.02406
  2 Na    0.00007   -0.00381   -0.03572
  3 Na   -0.00152    0.00730   -0.01881
  4 Na   -0.01294   -0.00110    0.01088
  5 Na    0.00454    0.01024    0.00439
  6 Na    0.09497   -0.07044   -0.13342
  7 Na   -0.07057    0.05138   -0.01592
  8 Na    0.00246   -0.00541    0.02582
  9 Na   -0.00051   -0.00296    0.02819
 10 Na   -0.00038    0.02904   -0.04826
 11 Na    0.00047   -0.00255    0.00813
 12 Na    0.00979   -0.00894    0.00016
 13 Na   -0.00527   -0.00670   -0.01195
 14 Na    0.01010   -0.00215    0.00054
 15 Na    0.00577    0.00751   -0.00183
 16 Na    0.00115    0.00453    0.02760
 17 Na   -0.00155    0.00454    0.02526
 18 Na   -0.00238   -0.02314   -0.03178
 19 Na    0.00029   -0.00502   -0.01836
 20 Na    0.01106    0.01150   -0.00829
 21 Na   -0.00362   -0.00579   -0.00234
 22 Na   -0.00528   -0.00523   -0.00871
 23 Na   -0.01512   -0.00769   -0.00487
 24 Na   -0.00402    0.00067    0.02523
 25 Na    0.00050   -0.00077    0.02848
 26 Na   -0.00037   -0.00003   -0.01345
 27 Na   -0.00072    0.00033   -0.01436
 28 Na    0.00620    0.00513    0.01503
 29 Na    0.00072   -0.00981   -0.00900
 30 Na    0.00397   -0.00039   -0.00687
 31 Na    0.00698    0.01451   -0.00323
 32 Na   -0.00213   -0.00285    0.02736
 33 Na    0.00195    0.00038    0.02991
 34 Na    0.00160    0.00092   -0.01385
 35 Na   -0.00211    0.00071   -0.01527
 36 Na   -0.01429   -0.01386   -0.00570
 37 Na    0.00592    0.00060   -0.00157
 38 Na   -0.00318   -0.00002   -0.00301
 39 Na   -0.00694   -0.00041    0.00799
 40 Na    0.00022    0.00203    0.02943
 41 Na    0.00077    0.00034    0.02899
 42 Na    0.00317   -0.00079   -0.01413
 43 Na   -0.00116   -0.00106   -0.01466
 44 Na   -0.00708    0.00723   -0.00134
 45 Na    0.00057    0.00926   -0.00882
 46 Na   -0.00340    0.00029   -0.00369
 47 Na    0.01804   -0.01341   -0.02022
 48 Na   -0.00112    0.00051    0.02826
 49 Na    0.00315   -0.00114    0.02685
 50 Na    0.00315   -0.00392   -0.01552
 51 Na   -0.00039    0.00723   -0.03021
 52 Na   -0.00094    0.00504   -0.00659
 53 Na    0.00178   -0.01027    0.00748
 54 Na   -0.01352   -0.01360   -0.00937
 55 Na   -0.00210    0.00069   -0.00667
 56 Na   -0.00122    0.00052    0.02865
 57 Na   -0.00174   -0.00032    0.03106
 58 Na   -0.00090    0.00181   -0.01466
 59 Na    0.00361    0.00882   -0.00339
 60 Na    0.00000   -0.00413   -0.00617
 61 Na   -0.00272   -0.00237    0.00001
 62 Na   -0.01528    0.01273   -0.02109
 63 Na    0.00147   -0.00015   -0.00572
 64 Na   -0.00134   -0.00095    0.02851
 65 Na    0.00210    0.00159    0.02784
 66 Na   -0.00212    0.00229   -0.00243
 67 Na   -0.00032   -0.01792   -0.03365
 68 Na   -0.00304   -0.00100   -0.00313
 69 Na    0.00872    0.01405   -0.00730
 70 Na    0.00598    0.00080    0.00264
 71 Na    0.00134   -0.00036   -0.00441
 72 Na   -0.01321    0.02822    0.11232

System changes: positions 

Initializing position-dependent things.

Density initialized from wave functions
         .-------------------------------------------.  
        /|                                           |  
       / |                                           |  
      /  |                                           |  
     /   |                                           |  
    /    |                                           |  
   /     |                                           |  
  /      |                                           |  
 *       |                                           |  
 |       |                                           |  
 |       |                                           |  
 |       |                                           |  
 |       |                                           |  
 |       |                     Na                    |  
 |      Na            Na             Na              |  
 |       |    Na            Na             Na        |  
 |       Na                                          |  
 |   NNa |          Na            Na        Na       |  
 |       | Na  Na         Na  Na        Na           |  
 |Na     |       Na  Na         Na  Na            Na |  
 |       |  Na             Na         Na  Na         |  
 |      Na        Na  Na             Na              |  
 |       |                       Na             Na   |  
 |       |Na  Na        Na  Na         Na  Na        |  
 |   Na  |      Na  Na        Na  Na                 |  
 |       | Na  Na         Na  Na        Na  Na       |  
 |    Na |           Na             Na               |  
 |Na     |       Na             Na                   |  
 |      Na  Na         Na  Na         Na  Na         |  
 |  Na   |        Na             Na                  |  
 |       |Na            Na             Na            |  
 |       |                                           |  
 Na      |      Na            Na                     |  
 |       |                                           |  
 |       |                                           |  
 |       |                                           |  
 |       .-------------------------------------------.  
 |      /                                           /   
 |     /                                           /    
 |    /                                           /     
 |   /                                           /      
 |  /                                           /       
 | /                                           /        
 |/                                           /         
 *-------------------------------------------*          

Atomic positions and initial magnetic moments

Positions:
   0 Na     0.000000    0.000000   10.000000    ( 0.0000,  0.0000,  0.0000)
   1 Na     2.991062    2.115000   10.000000    ( 0.0000,  0.0000,  0.0000)
   2 Na     2.991062    0.000000   12.991062    ( 0.0000,  0.0000,  0.0000)
   3 Na     5.982123    2.115000   12.991062    ( 0.0000,  0.0000,  0.0000)
   4 Na     0.030922   -0.041164   15.852765    ( 0.0000,  0.0000,  0.0000)
   5 Na     2.975250    2.198336   15.798938    ( 0.0000,  0.0000,  0.0000)
   6 Na     2.968099    0.033253   18.460527    ( 0.0000,  0.0000,  0.0000)
   7 Na     0.066800    2.033137   18.763409    ( 0.0000,  0.0000,  0.0000)
   8 Na     0.000000    4.230000   10.000000    ( 0.0000,  0.0000,  0.0000)
   9 Na     2.991062    6.345000   10.000000    ( 0.0000,  0.0000,  0.0000)
  10 Na     2.991062    4.230000   12.991062    ( 0.0000,  0.0000,  0.0000)
  11 Na     5.982123    6.345000   12.991062    ( 0.0000,  0.0000,  0.0000)
  12 Na    -0.027248    4.253413   15.917948    ( 0.0000,  0.0000,  0.0000)
  13 Na     3.004638    6.335973   15.999762    ( 0.0000,  0.0000,  0.0000)
  14 Na     2.953361    4.115683   18.954445    ( 0.0000,  0.0000,  0.0000)
  15 Na     0.026460    6.311984   18.879014    ( 0.0000,  0.0000,  0.0000)
  16 Na     0.000000    8.460000   10.000000    ( 0.0000,  0.0000,  0.0000)
  17 Na     2.991062   10.575000   10.000000    ( 0.0000,  0.0000,  0.0000)
  18 Na     2.991062    8.460000   12.991062    ( 0.0000,  0.0000,  0.0000)
  19 Na     5.982123   10.575000   12.991062    ( 0.0000,  0.0000,  0.0000)
  20 Na    -0.027057    8.477880   16.001685    ( 0.0000,  0.0000,  0.0000)
  21 Na     3.004904   10.500587   15.831508    ( 0.0000,  0.0000,  0.0000)
  22 Na     2.977430    8.527693   18.891966    ( 0.0000,  0.0000,  0.0000)
  23 Na     0.076230   10.698546   19.000664    ( 0.0000,  0.0000,  0.0000)
  24 Na     5.982123    0.000000   10.000000    ( 0.0000,  0.0000,  0.0000)
  25 Na     8.973185    2.115000   10.000000    ( 0.0000,  0.0000,  0.0000)
  26 Na     8.973185    0.000000   12.991062    ( 0.0000,  0.0000,  0.0000)
  27 Na    11.964247    2.115000   12.991062    ( 0.0000,  0.0000,  0.0000)
  28 Na     5.951924    0.000522   15.919997    ( 0.0000,  0.0000,  0.0000)
  29 Na     8.976822    2.113947   15.941502    ( 0.0000,  0.0000,  0.0000)
  30 Na     8.956894   -0.000787   18.866193    ( 0.0000,  0.0000,  0.0000)
  31 Na     5.895986    2.026835   18.987936    ( 0.0000,  0.0000,  0.0000)
  32 Na     5.982123    4.230000   10.000000    ( 0.0000,  0.0000,  0.0000)
  33 Na     8.973185    6.345000   10.000000    ( 0.0000,  0.0000,  0.0000)
  34 Na     8.973185    4.230000   12.991062    ( 0.0000,  0.0000,  0.0000)
  35 Na    11.964247    6.345000   12.991062    ( 0.0000,  0.0000,  0.0000)
  36 Na     6.010450    4.211948   15.983497    ( 0.0000,  0.0000,  0.0000)
  37 Na     8.972063    6.345255   15.938146    ( 0.0000,  0.0000,  0.0000)
  38 Na     8.939802    4.208846   18.863807    ( 0.0000,  0.0000,  0.0000)
  39 Na     5.939005    6.334087   18.866099    ( 0.0000,  0.0000,  0.0000)
  40 Na     5.982123    8.460000   10.000000    ( 0.0000,  0.0000,  0.0000)
  41 Na     8.973185   10.575000   10.000000    ( 0.0000,  0.0000,  0.0000)
  42 Na     8.973185    8.460000   12.991062    ( 0.0000,  0.0000,  0.0000)
  43 Na    11.964247   10.575000   12.991062    ( 0.0000,  0.0000,  0.0000)
  44 Na     6.008756    8.477285   15.982170    ( 0.0000,  0.0000,  0.0000)
  45 Na     8.976797   10.575803   15.941106    ( 0.0000,  0.0000,  0.0000)
  46 Na     8.939723    8.481917   18.866006    ( 0.0000,  0.0000,  0.0000)
  47 Na     5.889657   10.674382   18.983800    ( 0.0000,  0.0000,  0.0000)
  48 Na    11.964247    0.000000   10.000000    ( 0.0000,  0.0000,  0.0000)
  49 Na    14.955308    2.115000   10.000000    ( 0.0000,  0.0000,  0.0000)
  50 Na    14.955308    0.000000   12.991062    ( 0.0000,  0.0000,  0.0000)
  51 Na    17.946370    2.115000   12.991062    ( 0.0000,  0.0000,  0.0000)
  52 Na    11.962336    0.000536   15.940250    ( 0.0000,  0.0000,  0.0000)
  53 Na    14.968506    2.113917   15.932218    ( 0.0000,  0.0000,  0.0000)
  54 Na    15.009447    0.043121   18.926935    ( 0.0000,  0.0000,  0.0000)
  55 Na    11.972408    2.116512   18.865118    ( 0.0000,  0.0000,  0.0000)
  56 Na    11.964247    4.230000   10.000000    ( 0.0000,  0.0000,  0.0000)
  57 Na    14.955308    6.345000   10.000000    ( 0.0000,  0.0000,  0.0000)
  58 Na    14.955308    4.230000   12.991062    ( 0.0000,  0.0000,  0.0000)
  59 Na    17.946370    6.345000   12.991062    ( 0.0000,  0.0000,  0.0000)
  60 Na    11.962491    4.229906   15.939488    ( 0.0000,  0.0000,  0.0000)
  61 Na    14.942538    6.336550   15.960409    ( 0.0000,  0.0000,  0.0000)
  62 Na    15.025209    4.164852   18.922153    ( 0.0000,  0.0000,  0.0000)
  63 Na    11.980990    6.334029   18.868361    ( 0.0000,  0.0000,  0.0000)
  64 Na    11.964247    8.460000   10.000000    ( 0.0000,  0.0000,  0.0000)
  65 Na    14.955308   10.575000   10.000000    ( 0.0000,  0.0000,  0.0000)
  66 Na    14.955308    8.460000   12.991062    ( 0.0000,  0.0000,  0.0000)
  67 Na    17.946370   10.575000   12.991062    ( 0.0000,  0.0000,  0.0000)
  68 Na    11.964820    8.459546   15.937922    ( 0.0000,  0.0000,  0.0000)
  69 Na    14.938721   10.584763   15.963314    ( 0.0000,  0.0000,  0.0000)
  70 Na    15.001932    8.481904   18.864787    ( 0.0000,  0.0000,  0.0000)
  71 Na    11.980940   10.584490   18.863965    ( 0.0000,  0.0000,  0.0000)
  72 Na     1.991156    0.709901   21.360274    ( 0.0000,  0.0000,  0.0000)

Unit cell:
           periodic     x           y           z      points  spacing
  1. axis:    yes   17.946370    0.000000    0.000000    60     0.2991
  2. axis:    yes    0.000000   12.690000    0.000000    42     0.3021
  3. axis:    no     0.000000    0.000000   28.973185    96     0.3018

  Lengths:  17.946370  12.690000  28.973185
  Angles:   90.000000  90.000000  90.000000

Effective grid spacing dv^(1/3) = 0.3010

     iter     time        total  log10-change:
                         energy   eigst   dens
iter:   1 07:45:35   -80.300555   -5.50c
iter:   2 07:46:00   -80.299676   -6.50c -3.17
iter:   3 07:46:24   -80.299832c  -6.92c -3.42
iter:   4 07:46:48   -80.300194c  -6.99c -3.80
iter:   5 07:47:12   -80.300106c  -7.33c -3.99
iter:   6 07:47:36   -80.300046c  -7.64c -4.27c

Converged after 6 iterations.

Dipole moment: (-6.030249, -5.330640, 0.296254) |e|*Ang

Energy contributions relative to reference atoms: (reference = -322558.566329)

Kinetic:       +157.805096
Potential:     -141.986678
External:        +0.000000
XC:             -98.744907
Entropy (-ST):   -1.343870
Local:           +3.298378
SIC:             +0.000000
--------------------------
Free energy:    -80.971981
Extrapolated:   -80.300046

Showing all kpts
 Kpt  Band  Eigenvalues  Occupancy
  0   253     -1.59311    1.48020
  0   254     -1.58136    1.43372
  0   255     -1.56674    1.37253
  0   256     -1.43043    0.71771

  1   253     -1.59649    1.49308
  1   254     -1.57986    1.42761
  1   255     -1.56618    1.37014
  1   256     -1.43015    0.71640


Fermi level: -1.48846

Gap: 0.136 eV
Transition (v -> c):
  (s=0, k=1, n=255, [0.25, 0.25, 0.00]) -> (s=0, k=0, n=256, [0.25, -0.25, 0.00])
Direct/indirect transitions are different
Direct gap: 0.136 eV
Transition at: (s=0, k=1, n=255, [0.25, 0.25, 0.00])

Forces in eV/Ang:
  0 Na    0.00291    0.00056    0.02354
  1 Na   -0.00164   -0.00122    0.02408
  2 Na   -0.00028   -0.00376   -0.03512
  3 Na   -0.00154    0.00735   -0.01849
  4 Na   -0.01189   -0.00060    0.01076
[...]
 19 Na    0.00054   -0.00516   -0.01806
 20 Na    0.00896    0.01033   -0.00854
 21 Na   -0.00390   -0.01077   -0.01113
 22 Na   -0.00461   -0.00368   -0.00876
 23 Na   -0.01039   -0.00270   -0.00399
 24 Na   -0.00446    0.00053    0.02543
 25 Na    0.00037   -0.00104    0.02913
 26 Na    0.00007   -0.00028   -0.01383
 27 Na   -0.00101    0.00051   -0.01426
 28 Na    0.00670    0.00490    0.01076
 29 Na    0.00091   -0.00738   -0.00878
 30 Na    0.00376   -0.00021   -0.00697
 31 Na    0.00652    0.01375   -0.00219
 32 Na   -0.00278   -0.00279    0.02792
 33 Na    0.00151    0.00039    0.03108
 34 Na    0.00172    0.00148   -0.01270
 35 Na   -0.00235    0.00102   -0.01380
 36 Na   -0.01139   -0.01119   -0.00532
 37 Na    0.00476    0.00049   -0.00244
 38 Na   -0.00275    0.00067   -0.00431
 39 Na   -0.00535   -0.00124    0.00617
 40 Na   -0.00053    0.00213    0.03004
 41 Na    0.00052    0.00060    0.02985
 42 Na    0.00339   -0.00111   -0.01278
 43 Na   -0.00132   -0.00155   -0.01375
 44 Na   -0.00511    0.00508   -0.00239
 45 Na    0.00136    0.00688   -0.00874
 46 Na   -0.00194   -0.00049   -0.00519
 47 Na    0.01971   -0.01493   -0.01790
 48 Na   -0.00106    0.00053    0.02896
 49 Na    0.00361   -0.00120    0.02724
 50 Na    0.00317   -0.00388   -0.01555
 51 Na   -0.00003    0.00700   -0.02943
 52 Na   -0.00085    0.00368   -0.00671
 53 Na    0.00181   -0.00902    0.00548
 54 Na   -0.01223   -0.01325   -0.00831
 55 Na   -0.00245    0.00082   -0.00701
 56 Na   -0.00101    0.00019    0.02958
 57 Na   -0.00092   -0.00030    0.03182
 58 Na   -0.00088    0.00198   -0.01382
 59 Na    0.00366    0.00879   -0.00311
 60 Na   -0.00063   -0.00295   -0.00656
 61 Na   -0.00240   -0.00110   -0.00184
 62 Na   -0.01585    0.01345   -0.01972
 63 Na   -0.00001    0.00066   -0.00702
 64 Na   -0.00109   -0.00066    0.02967
 65 Na    0.00266    0.00161    0.02848
 66 Na   -0.00225    0.00211   -0.00157
 67 Na   -0.00025   -0.01757   -0.03343
 68 Na   -0.00279   -0.00073   -0.00397
 69 Na    0.00691    0.01128   -0.00725
 70 Na    0.00445    0.00147    0.00113
 71 Na    0.00066   -0.00136   -0.00546
 72 Na   -0.00729    0.02359    0.06276

System changes: positions 

Initializing position-dependent things.

Density initialized from wave functions
         .-------------------------------------------.  
        /|                                           |  
       / |                                           |  
      /  |                                           |  
     /   |                                           |  
    /    |                                           |  
   /     |                                           |  
  /      |                                           |  
 *       |                                           |  
 |       |                                           |  
 |       |                                           |  
 |       |                                           |  
 |       |                                           |  
 |       |                     Na                    |  
 |      Na            Na             Na              |  
 |       |    Na            Na             Na        |  
 |       Na                                          |  
 |   NNa |          Na            Na        Na       |  
 |       | Na  Na         Na  Na        Na           |  
 |Na     |       Na  Na         Na  Na            Na |  
 |       |  Na             Na         Na  Na         |  
 |      Na        Na  Na             Na              |  
 |       |                       Na             Na   |  
 |       |Na  Na        Na  Na         Na  Na        |  
 |   Na  |      Na  Na        Na  Na                 |  
 |       | Na  Na         Na  Na        Na  Na       |  
 |    Na |           Na             Na               |  
 |Na     |       Na             Na                   |  
 |      Na  Na         Na  Na         Na  Na         |  
 |  Na   |        Na             Na                  |  
 |       |Na            Na             Na            |  
 |       |                                           |  
 Na      |      Na            Na                     |  
 |       |                                           |  
 |       |                                           |  
 |       |                                           |  
 |       .-------------------------------------------.  
 |      /                                           /   
 |     /                                           /    
 |    /                                           /     
 |   /                                           /      
 |  /                                           /       
 | /                                           /        
 |/                                           /         
 *-------------------------------------------*          

Atomic positions and initial magnetic moments

Positions:
   0 Na     0.000000    0.000000   10.000000    ( 0.0000,  0.0000,  0.0000)
   1 Na     2.991062    2.115000   10.000000    ( 0.0000,  0.0000,  0.0000)
   2 Na     2.991062    0.000000   12.991062    ( 0.0000,  0.0000,  0.0000)
   3 Na     5.982123    2.115000   12.991062    ( 0.0000,  0.0000,  0.0000)
   4 Na     0.027987   -0.041388   15.855252    ( 0.0000,  0.0000,  0.0000)
   5 Na     2.976166    2.200746   15.799893    ( 0.0000,  0.0000,  0.0000)
   6 Na     2.989510    0.017306   18.430471    ( 0.0000,  0.0000,  0.0000)
   7 Na     0.050911    2.044690   18.759780    ( 0.0000,  0.0000,  0.0000)
   8 Na     0.000000    4.230000   10.000000    ( 0.0000,  0.0000,  0.0000)
   9 Na     2.991062    6.345000   10.000000    ( 0.0000,  0.0000,  0.0000)
  10 Na     2.991062    4.230000   12.991062    ( 0.0000,  0.0000,  0.0000)
  11 Na     5.982123    6.345000   12.991062    ( 0.0000,  0.0000,  0.0000)
  12 Na    -0.024952    4.251378   15.917792    ( 0.0000,  0.0000,  0.0000)
  13 Na     3.003414    6.334414   15.996860    ( 0.0000,  0.0000,  0.0000)
  14 Na     2.955612    4.114887   18.954524    ( 0.0000,  0.0000,  0.0000)
  15 Na     0.027773    6.313700   18.878444    ( 0.0000,  0.0000,  0.0000)
  16 Na     0.000000    8.460000   10.000000    ( 0.0000,  0.0000,  0.0000)
  17 Na     2.991062   10.575000   10.000000    ( 0.0000,  0.0000,  0.0000)
  18 Na     2.991062    8.460000   12.991062    ( 0.0000,  0.0000,  0.0000)
  19 Na     5.982123   10.575000   12.991062    ( 0.0000,  0.0000,  0.0000)
  20 Na    -0.024518    8.480533   15.999621    ( 0.0000,  0.0000,  0.0000)
  21 Na     3.003992   10.499118   15.830654    ( 0.0000,  0.0000,  0.0000)
  22 Na     2.976203    8.526498   18.889841    ( 0.0000,  0.0000,  0.0000)
  23 Na     0.072871   10.697105   18.999512    ( 0.0000,  0.0000,  0.0000)
  24 Na     5.982123    0.000000   10.000000    ( 0.0000,  0.0000,  0.0000)
  25 Na     8.973185    2.115000   10.000000    ( 0.0000,  0.0000,  0.0000)
  26 Na     8.973185    0.000000   12.991062    ( 0.0000,  0.0000,  0.0000)
  27 Na    11.964247    2.115000   12.991062    ( 0.0000,  0.0000,  0.0000)
  28 Na     5.953476    0.001721   15.923289    ( 0.0000,  0.0000,  0.0000)
  29 Na     8.976994    2.111757   15.939393    ( 0.0000,  0.0000,  0.0000)
  30 Na     8.957831   -0.000887   18.864504    ( 0.0000,  0.0000,  0.0000)
  31 Na     5.897563    2.030208   18.987179    ( 0.0000,  0.0000,  0.0000)
  32 Na     5.982123    4.230000   10.000000    ( 0.0000,  0.0000,  0.0000)
  33 Na     8.973185    6.345000   10.000000    ( 0.0000,  0.0000,  0.0000)
  34 Na     8.973185    4.230000   12.991062    ( 0.0000,  0.0000,  0.0000)
  35 Na    11.964247    6.345000   12.991062    ( 0.0000,  0.0000,  0.0000)
  36 Na     6.007200    4.208798   15.982114    ( 0.0000,  0.0000,  0.0000)
  37 Na     8.973448    6.345409   15.937739    ( 0.0000,  0.0000,  0.0000)
  38 Na     8.939100    4.208891   18.862935    ( 0.0000,  0.0000,  0.0000)
  39 Na     5.937487    6.333973   18.867782    ( 0.0000,  0.0000,  0.0000)
  40 Na     5.982123    8.460000   10.000000    ( 0.0000,  0.0000,  0.0000)
  41 Na     8.973185   10.575000   10.000000    ( 0.0000,  0.0000,  0.0000)
  42 Na     8.973185    8.460000   12.991062    ( 0.0000,  0.0000,  0.0000)
  43 Na    11.964247   10.575000   12.991062    ( 0.0000,  0.0000,  0.0000)
  44 Na     6.007171    8.478893   15.981759    ( 0.0000,  0.0000,  0.0000)
  45 Na     8.976985   10.577847   15.939015    ( 0.0000,  0.0000,  0.0000)
  46 Na     8.939021    8.481945   18.864970    ( 0.0000,  0.0000,  0.0000)
  47 Na     5.893972   10.671219   18.979101    ( 0.0000,  0.0000,  0.0000)
  48 Na    11.964247    0.000000   10.000000    ( 0.0000,  0.0000,  0.0000)
  49 Na    14.955308    2.115000   10.000000    ( 0.0000,  0.0000,  0.0000)
  50 Na    14.955308    0.000000   12.991062    ( 0.0000,  0.0000,  0.0000)
  51 Na    17.946370    2.115000   12.991062    ( 0.0000,  0.0000,  0.0000)
  52 Na    11.962125    0.001641   15.938692    ( 0.0000,  0.0000,  0.0000)
  53 Na    14.968911    2.111549   15.933836    ( 0.0000,  0.0000,  0.0000)
  54 Na    15.006333    0.039946   18.924720    ( 0.0000,  0.0000,  0.0000)
  55 Na    11.971902    2.116687   18.863463    ( 0.0000,  0.0000,  0.0000)
  56 Na    11.964247    4.230000   10.000000    ( 0.0000,  0.0000,  0.0000)
  57 Na    14.955308    6.345000   10.000000    ( 0.0000,  0.0000,  0.0000)
  58 Na    14.955308    4.230000   12.991062    ( 0.0000,  0.0000,  0.0000)
  59 Na    17.946370    6.345000   12.991062    ( 0.0000,  0.0000,  0.0000)
  60 Na    11.962446    4.229024   15.938001    ( 0.0000,  0.0000,  0.0000)
  61 Na    14.941890    6.336052   15.960307    ( 0.0000,  0.0000,  0.0000)
  62 Na    15.021559    4.167842   18.917189    ( 0.0000,  0.0000,  0.0000)
  63 Na    11.981258    6.334037   18.866864    ( 0.0000,  0.0000,  0.0000)
  64 Na    11.964247    8.460000   10.000000    ( 0.0000,  0.0000,  0.0000)
  65 Na    14.955308   10.575000   10.000000    ( 0.0000,  0.0000,  0.0000)
  66 Na    14.955308    8.460000   12.991062    ( 0.0000,  0.0000,  0.0000)
  67 Na    17.946370   10.575000   12.991062    ( 0.0000,  0.0000,  0.0000)
  68 Na    11.964097    8.459310   15.937142    ( 0.0000,  0.0000,  0.0000)
  69 Na    14.940691   10.587954   15.961555    ( 0.0000,  0.0000,  0.0000)
  70 Na    15.003223    8.482109   18.865233    ( 0.0000,  0.0000,  0.0000)
  71 Na    11.981226   10.584347   18.862781    ( 0.0000,  0.0000,  0.0000)
  72 Na     1.987880    0.716595   21.385373    ( 0.0000,  0.0000,  0.0000)

Unit cell:
           periodic     x           y           z      points  spacing
  1. axis:    yes   17.946370    0.000000    0.000000    60     0.2991
  2. axis:    yes    0.000000   12.690000    0.000000    42     0.3021
  3. axis:    no     0.000000    0.000000   28.973185    96     0.3018

  Lengths:  17.946370  12.690000  28.973185
  Angles:   90.000000  90.000000  90.000000

Effective grid spacing dv^(1/3) = 0.3010

     iter     time        total  log10-change:
                         energy   eigst   dens
iter:   1 08:26:19   -80.313798   -5.08
iter:   2 08:26:44   -80.310238   -6.09c -3.00
iter:   3 08:27:08   -80.309795c  -6.58c -3.22
iter:   4 08:27:31   -80.309914c  -6.49c -3.54
iter:   5 08:27:55   -80.309718c  -6.82c -3.74
iter:   6 08:28:19   -80.309544c  -7.17c -4.01c

Converged after 6 iterations.

Dipole moment: (-5.523949, -4.866293, 0.299609) |e|*Ang

Energy contributions relative to reference atoms: (reference = -322558.566329)

Kinetic:       +157.709971
Potential:     -141.922469
External:        +0.000000
XC:             -98.724156
Entropy (-ST):   -1.343664
Local:           +3.298943
SIC:             +0.000000
--------------------------
Free energy:    -80.981376
Extrapolated:   -80.309544

Showing all kpts
 Kpt  Band  Eigenvalues  Occupancy
  0   253     -1.59246    1.47923
  0   254     -1.58119    1.43467
  0   255     -1.56616    1.37180
  0   256     -1.43034    0.71916

  1   253     -1.59583    1.49214
  1   254     -1.57975    1.42884
  1   255     -1.56566    1.36966
  1   256     -1.42990    0.71712


Fermi level: -1.48806

Gap: 0.135 eV
Transition (v -> c):
  (s=0, k=1, n=255, [0.25, 0.25, 0.00]) -> (s=0, k=0, n=256, [0.25, -0.25, 0.00])
Direct/indirect transitions are different
Direct gap: 0.136 eV
Transition at: (s=0, k=1, n=255, [0.25, 0.25, 0.00])

Forces in eV/Ang:
  0 Na    0.00319    0.00057    0.02361
  1 Na   -0.00183   -0.00131    0.02416
  2 Na   -0.00058   -0.00332   -0.03417
  3 Na   -0.00142    0.00727   -0.01881
  4 Na   -0.00882    0.00026    0.00950
  5 Na    0.00177    0.01161   -0.00051
  6 Na    0.05057   -0.04177   -0.05801
  7 Na   -0.04096    0.03166   -0.00436
  8 Na    0.00284   -0.00530    0.02633
  9 Na   -0.00075   -0.00287    0.02870
 10 Na   -0.00061    0.02886   -0.04858
 11 Na    0.00081   -0.00238    0.00903
 12 Na    0.00741   -0.00619   -0.00307
 13 Na   -0.00412   -0.00674   -0.01138
 14 Na    0.00586   -0.00454    0.00082
 15 Na    0.00478    0.00444   -0.00227
 16 Na    0.00153    0.00454    0.02817
 17 Na   -0.00179    0.00444    0.02557
 18 Na   -0.00259   -0.02368   -0.03284
 19 Na    0.00071   -0.00516   -0.01819
 20 Na    0.00804    0.00981   -0.00811
 21 Na   -0.00376   -0.01277   -0.01435
 22 Na   -0.00421   -0.00284   -0.00868
 23 Na   -0.00868   -0.00155   -0.00369
 24 Na   -0.00456    0.00050    0.02547
 25 Na    0.00033   -0.00101    0.02923
 26 Na    0.00023   -0.00031   -0.01424
 27 Na   -0.00115    0.00057   -0.01449
 28 Na    0.00648    0.00470    0.00932
 29 Na    0.00096   -0.00643   -0.00845
 30 Na    0.00350   -0.00009   -0.00682
 31 Na    0.00647    0.01324   -0.00183
 32 Na   -0.00282   -0.00277    0.02808
 33 Na    0.00149    0.00042    0.03127
 34 Na    0.00177    0.00163   -0.01267
 35 Na   -0.00242    0.00109   -0.01368
 36 Na   -0.01020   -0.01015   -0.00482
 37 Na    0.00420    0.00039   -0.00268
 38 Na   -0.00260    0.00084   -0.00444
 39 Na   -0.00484   -0.00162    0.00579
 40 Na   -0.00054    0.00214    0.03018
 41 Na    0.00048    0.00053    0.02998
 42 Na    0.00345   -0.00123   -0.01272
 43 Na   -0.00140   -0.00168   -0.01377
 44 Na   -0.00441    0.00433   -0.00249
 45 Na    0.00150    0.00603   -0.00838
 46 Na   -0.00143   -0.00077   -0.00543
 47 Na    0.02012   -0.01552   -0.01692
 48 Na   -0.00106    0.00049    0.02904
 49 Na    0.00370   -0.00116    0.02733
 50 Na    0.00316   -0.00380   -0.01578
 51 Na    0.00004    0.00689   -0.02934
 52 Na   -0.00077    0.00322   -0.00652
 53 Na    0.00193   -0.00840    0.00497
 54 Na   -0.01161   -0.01292   -0.00771
 55 Na   -0.00247    0.00083   -0.00692
 56 Na   -0.00100    0.00026    0.02970
 57 Na   -0.00089   -0.00030    0.03198
 58 Na   -0.00095    0.00199   -0.01378
 59 Na    0.00365    0.00874   -0.00319
 60 Na   -0.00069   -0.00256   -0.00642
 61 Na   -0.00217   -0.00068   -0.00234
 62 Na   -0.01575    0.01365   -0.01883
 63 Na   -0.00051    0.00091   -0.00723
 64 Na   -0.00110   -0.00068    0.02982
 65 Na    0.00271    0.00157    0.02862
 66 Na   -0.00233    0.00203   -0.00159
 67 Na   -0.00031   -0.01734   -0.03346
 68 Na   -0.00257   -0.00063   -0.00415
 69 Na    0.00622    0.01015   -0.00685
 70 Na    0.00398    0.00177    0.00086
 71 Na    0.00042   -0.00164   -0.00552
 72 Na   -0.00483    0.02176    0.04357

Timing:                                      incl.     excl.
-------------------------------------------------------------------
Density initialized from wave functions:    21.632    21.632   0.0% |
 Symmetrize density:                         0.000     0.000   0.0% |
Forces:                                     63.512    63.512   0.1% |
Hamiltonian:                                13.723     0.225   0.0% |
 Atomic:                                     6.027     0.022   0.0% |
  XC Correction:                             6.005     6.005   0.0% |
 Calculate atomic Hamiltonians:              4.900     4.900   0.0% |
 Communicate:                                0.000     0.000   0.0% |
 Initialize Hamiltonian:                     0.000     0.000   0.0% |
 Poisson:                                    0.761     0.761   0.0% |
 XC 3D grid:                                 1.811     1.811   0.0% |
LCAO initialization:                       141.277     0.010   0.0% |
 LCAO eigensolver:                           0.588     0.000   0.0% |
  Calculate projections:                     0.022     0.022   0.0% |
  DenseAtomicCorrection:                     0.101     0.101   0.0% |
  Distribute overlap matrix:                 0.001     0.001   0.0% |
  Orbital Layouts:                           0.193     0.193   0.0% |
  Potential matrix:                          0.264     0.264   0.0% |
  Sum over cells:                            0.008     0.008   0.0% |
 LCAO to grid:                             140.149   140.149   0.3% |
 Set positions (LCAO WFS):                   0.530     0.196   0.0% |
  Basic WFS set positions:                   0.001     0.001   0.0% |
  Basis functions set positions:             0.000     0.000   0.0% |
  P tci:                                     0.229     0.229   0.0% |
  ST tci:                                    0.096     0.096   0.0% |
  mktci:                                     0.008     0.008   0.0% |
PWDescriptor:                                0.009     0.009   0.0% |
Redistribute:                                0.058     0.058   0.0% |
SCF-cycle:                                1447.668     0.303   0.0% |
 Davidson:                                1248.738   233.774   0.4% |
  Apply H:                                 169.574   167.866   0.3% |
   HMM T:                                    1.708     1.708   0.0% |
  Subspace diag:                           233.354     0.014   0.0% |
   calc_h_matrix:                          196.329    32.570   0.1% |
    Apply H:                               163.759   161.698   0.3% |
     HMM T:                                  2.061     2.061   0.0% |
   diagonalize:                              2.657     2.657   0.0% |
   rotate_psi:                              34.353    34.353   0.1% |
  calc. matrices:                          502.153   166.491   0.3% |
   Apply H:                                335.662   332.270   0.6% |
    HMM T:                                   3.392     3.392   0.0% |
  diagonalize:                              38.144    38.144   0.1% |
  rotate_psi:                               71.739    71.739   0.1% |
 Density:                                   96.320     0.000   0.0% |
  Atomic density matrices:                   0.324     0.324   0.0% |
  Mix:                                      25.115    25.115   0.0% |
  Multipole moments:                         0.022     0.022   0.0% |
  Pseudo density:                           70.858    70.857   0.1% |
   Symmetrize density:                       0.001     0.001   0.0% |
 Hamiltonian:                               70.007     0.134   0.0% |
  Atomic:                                   33.181     0.090   0.0% |
   XC Correction:                           33.091    33.091   0.1% |
  Calculate atomic Hamiltonians:            26.888    26.888   0.1% |
  Communicate:                               0.000     0.000   0.0% |
  Poisson:                                   0.120     0.120   0.0% |
  XC 3D grid:                                9.684     9.684   0.0% |
 Orthonormalize:                            32.301     0.006   0.0% |
  calc_s_matrix:                             3.450     3.450   0.0% |
  inverse-cholesky:                          0.090     0.090   0.0% |
  projections:                              10.037    10.037   0.0% |
  rotate_psi_s:                             18.719    18.719   0.0% |
Set symmetry:                                0.000     0.000   0.0% |
Other:                                   51509.585 51509.585  96.8% |--------------------------------------|
-------------------------------------------------------------------
Total:                                             53197.464 100.0%

Memory usage: 5.62 GiB
Date: Mon Nov 24 20:48:50 2025
