
  ___ ___ ___ _ _ _  
 |   |   |_  | | | | 
 | | | | | . | | | | 
 |__ |  _|___|_____|  25.7.0
 |___|_|             

User:   tew@Mathuss-MacBook-Air-357.local
Date:   Mon Nov 24 06:02:13 2025
Arch:   arm64
Pid:    82977
CWD:    /Users/tew/Documents/Project/GitHub/chem-com
Python: 3.13.5
gpaw:   /Users/tew/Documents/Project/GitHub/chem-com/.venv/lib/python3.13/site-packages/gpaw
_gpaw:  /Users/tew/Documents/Project/GitHub/chem-com/.venv/lib/python3.13/site-packages/
        _gpaw.cpython-313-darwin.so
ase:    /Users/tew/Documents/Project/GitHub/chem-com/.venv/lib/python3.13/site-packages/ase (version 3.26.0)
numpy:  /Users/tew/Documents/Project/GitHub/chem-com/.venv/lib/python3.13/site-packages/numpy (version 2.3.5)
scipy:  /Users/tew/Documents/Project/GitHub/chem-com/.venv/lib/python3.13/site-packages/scipy (version 1.16.3)
libxc:  2.x.y
units:  Angstrom and eV
cores: 1
OpenMP: False
OMP_NUM_THREADS: 1

Input parameters:
  convergence: {density: 0.0001,
                eigenstates: 5e-06}
  kpts: [2 2 1]
  mode: {ecut: 200.0,
         name: pw}
  xc: PBE

System changes: positions, numbers, cell, pbc, initial_charges, initial_magmoms 

Initialize ...

species:
  Na:
    name: Sodium
    id: d7ecbc49209718622bcbe287195dca2a
    Z: 11.0
    valence: 7
    core: 4
    charge: 0.0
    file: /Users/tew/Documents/Project/GitHub/chem-com/.venv/lib/python3.13/site-packages/gpaw_data/setups/Na.PBE.gz
    compensation charges: {type: gauss,
                           rc: 0.37,
                           lmax: 2}
    cutoffs: {filter: 2.17,
              core: 2.59}
    projectors:
      #              energy  rcut
      - 3s(1.00)    -2.744   1.201
      - 2p(6.00)   -28.672   1.217
      - 3p(0.00)    -0.743   1.217
      -  s          24.468   1.201
      -  d           0.000   1.238
  
    # Using partial waves for Na as LCAO basis

Reference energy: -322558.566329  # eV

Spin-paired calculation

Convergence criteria:
 Maximum [total energy] change in last 3 cyles: 0.0005 eV / valence electron
 Maximum integral of absolute [dens]ity change: 0.0001 electrons / valence electron
 Maximum integral of absolute [eigenst]ate change: 5e-06 eV^2 / valence electron
 Maximum number of scf [iter]ations: 333
 (Square brackets indicate name in SCF output, whereas a 'c' in
 the SCF output indicates the quantity has converged.)

Symmetries present (total): 1

  ( 1  0  0)
  ( 0  1  0)
  ( 0  0  1)

4 k-points: 2 x 2 x 1 Monkhorst-Pack grid
2 k-points in the irreducible part of the Brillouin zone
       k-points in crystal coordinates                weights
   0:     0.25000000   -0.25000000    0.00000000          2/4
   1:     0.25000000    0.25000000    0.00000000          2/4

Wave functions: Plane wave expansion
  Cutoff energy: 200.000 eV
  Number of coefficients (min, max): 42398, 42398
  Pulay-stress correction: 0.000000 eV/Ang^3 (de/decut=0.000000)
  Using Numpy's FFT
  ScaLapack parameters: grid=1x1, blocksize=None
  Wavefunction extrapolation:
    Improved wavefunction reuse through dual PAW basis 

Occupation numbers: Fermi-Dirac:
  width: 0.1000  # eV
 

Eigensolver
   Davidson(niter=2) 

Densities:
  Coarse grid: 60*42*96 grid
  Fine grid: 120*84*192 grid
  Total Charge: 0.000000 

Density mixing:
  Method: separate
  Backend: pulay
  Linear mixing parameter: 0.05
  old densities: 5
  Damping of long wavelength oscillations: 50 

Hamiltonian:
  XC and Coulomb potentials evaluated on a 120*84*192 grid
  Using the PBE Exchange-Correlation functional
  External potential:
    NoExternalPotential
 

XC parameters: PBE with 2 nearest neighbor stencil

Memory estimate:
  Process memory now: 4272.72 MiB
  Calculator: 793.74 MiB
    Density: 111.27 MiB
      Arrays: 47.99 MiB
      Localized functions: 44.82 MiB
      Mixer: 18.46 MiB
    Hamiltonian: 32.29 MiB
      Arrays: 31.38 MiB
      XC: 0.00 MiB
      Poisson: 0.00 MiB
      vbar: 0.91 MiB
    Wavefunctions: 650.19 MiB
      Arrays psit_nG: 402.40 MiB
      Eigensolver: 219.20 MiB
      Projections: 9.01 MiB
      Projectors: 9.06 MiB
      PW-descriptor: 10.52 MiB

Total number of cores used: 1

Number of atoms: 73
Number of atomic orbitals: 511
Number of bands in calculation: 311
Number of valence electrons: 511
Bands to converge: occupied

... initialized

Initializing position-dependent things.

Density initialized from atomic densities
Creating initial wave functions:
  311 bands from LCAO basis set

         .-------------------------------------------.  
        /|                                           |  
       / |                                           |  
      /  |                                           |  
     /   |                                           |  
    /    |                                           |  
   /     |                                           |  
  /      |                                           |  
 *       |                                           |  
 |       |                                           |  
 |       |                                           |  
 |       |                                           |  
 |       |                                           |  
 |       |                     Na                    |  
 |      Na            Na             Na              |  
 |       |    Na            Na             Na        |  
 | Na    Na             Na            Na             |  
 |   Na  |          Na            Na        Na       |  
 |       | Na  Na         Na  Na         Na          |  
 |       |       Na  Na         Na  Na            Na |  
 |Na    Na  Na             Na         Na  Na         |  
 |      Na            Na             Na              |  
 |       |        Na             Na             Na   |  
 |       |Na  Na        Na  Na         Na  Na        |  
 |   Na  |          Na            Na                 |  
 |       | Na  Na         Na  Na        Na  Na       |  
 |    Na |           Na             Na               |  
 |Na     |       Na             Na                   |  
 |      Na  Na         Na  Na         Na  Na         |  
 |  Na   |        Na             Na                  |  
 |       |Na            Na             Na            |  
 |       |                                           |  
 Na      |      Na            Na                     |  
 |       |                                           |  
 |       |                                           |  
 |       |                                           |  
 |       .-------------------------------------------.  
 |      /                                           /   
 |     /                                           /    
 |    /                                           /     
 |   /                                           /      
 |  /                                           /       
 | /                                           /        
 |/                                           /         
 *-------------------------------------------*          

Atomic positions and initial magnetic moments

Positions:
   0 Na     0.000000    0.000000   10.000000    ( 0.0000,  0.0000,  0.0000)
   1 Na     2.991062    2.115000   10.000000    ( 0.0000,  0.0000,  0.0000)
   2 Na     2.991062    0.000000   12.991062    ( 0.0000,  0.0000,  0.0000)
   3 Na     5.982123    2.115000   12.991062    ( 0.0000,  0.0000,  0.0000)
   4 Na     0.008261   -0.102366   15.771482    ( 0.0000,  0.0000,  0.0000)
   5 Na     2.949754    2.135473   15.877655    ( 0.0000,  0.0000,  0.0000)
   6 Na     2.892637    0.113002   18.907545    ( 0.0000,  0.0000,  0.0000)
   7 Na     0.019685    2.092400   18.343423    ( 0.0000,  0.0000,  0.0000)
   8 Na     0.000000    4.230000   10.000000    ( 0.0000,  0.0000,  0.0000)
   9 Na     2.991062    6.345000   10.000000    ( 0.0000,  0.0000,  0.0000)
  10 Na     2.991062    4.230000   12.991062    ( 0.0000,  0.0000,  0.0000)
  11 Na     5.982123    6.345000   12.991062    ( 0.0000,  0.0000,  0.0000)
  12 Na    -0.007215    4.328347   15.788186    ( 0.0000,  0.0000,  0.0000)
  13 Na     3.027137    6.324906   16.003739    ( 0.0000,  0.0000,  0.0000)
  14 Na     2.892637    4.099846   19.025041    ( 0.0000,  0.0000,  0.0000)
  15 Na     0.006397    6.259236   18.900381    ( 0.0000,  0.0000,  0.0000)
  16 Na     0.000000    8.460000   10.000000    ( 0.0000,  0.0000,  0.0000)
  17 Na     2.991062   10.575000   10.000000    ( 0.0000,  0.0000,  0.0000)
  18 Na     2.991062    8.460000   12.991062    ( 0.0000,  0.0000,  0.0000)
  19 Na     5.982123   10.575000   12.991062    ( 0.0000,  0.0000,  0.0000)
  20 Na    -0.007215    8.464019   16.001009    ( 0.0000,  0.0000,  0.0000)
  21 Na     3.027137   10.574621   15.961175    ( 0.0000,  0.0000,  0.0000)
  22 Na     2.959076    8.477153   18.872429    ( 0.0000,  0.0000,  0.0000)
  23 Na     0.019685   10.683364   18.930903    ( 0.0000,  0.0000,  0.0000)
  24 Na     5.982123    0.000000   10.000000    ( 0.0000,  0.0000,  0.0000)
  25 Na     8.973185    2.115000   10.000000    ( 0.0000,  0.0000,  0.0000)
  26 Na     8.973185    0.000000   12.991062    ( 0.0000,  0.0000,  0.0000)
  27 Na    11.964247    2.115000   12.991062    ( 0.0000,  0.0000,  0.0000)
  28 Na     5.978298   -0.000686   15.937788    ( 0.0000,  0.0000,  0.0000)
  29 Na     8.974072    2.115137   15.940416    ( 0.0000,  0.0000,  0.0000)
  30 Na     8.968956   -0.001763   18.865665    ( 0.0000,  0.0000,  0.0000)
  31 Na     5.941293    2.092400   18.898470    ( 0.0000,  0.0000,  0.0000)
  32 Na     5.982123    4.230000   10.000000    ( 0.0000,  0.0000,  0.0000)
  33 Na     8.973185    6.345000   10.000000    ( 0.0000,  0.0000,  0.0000)
  34 Na     8.973185    4.230000   12.991062    ( 0.0000,  0.0000,  0.0000)
  35 Na    11.964247    6.345000   12.991062    ( 0.0000,  0.0000,  0.0000)
  36 Na     5.993775    4.226667   15.954492    ( 0.0000,  0.0000,  0.0000)
  37 Na     8.972658    6.345364   15.938364    ( 0.0000,  0.0000,  0.0000)
  38 Na     8.964956    4.226305   18.864921    ( 0.0000,  0.0000,  0.0000)
  39 Na     5.934579    6.317709   18.864223    ( 0.0000,  0.0000,  0.0000)
  40 Na     5.982123    8.460000   10.000000    ( 0.0000,  0.0000,  0.0000)
  41 Na     8.973185   10.575000   10.000000    ( 0.0000,  0.0000,  0.0000)
  42 Na     8.973185    8.460000   12.991062    ( 0.0000,  0.0000,  0.0000)
  43 Na    11.964247   10.575000   12.991062    ( 0.0000,  0.0000,  0.0000)
  44 Na     5.986704    8.464019   15.949329    ( 0.0000,  0.0000,  0.0000)
  45 Na     8.974072   10.574499   15.939396    ( 0.0000,  0.0000,  0.0000)
  46 Na     8.964956    8.465458   18.870628    ( 0.0000,  0.0000,  0.0000)
  47 Na     5.921291   10.624891   18.894746    ( 0.0000,  0.0000,  0.0000)
  48 Na    11.964247    0.000000   10.000000    ( 0.0000,  0.0000,  0.0000)
  49 Na    14.955308    2.115000   10.000000    ( 0.0000,  0.0000,  0.0000)
  50 Na    14.955308    0.000000   12.991062    ( 0.0000,  0.0000,  0.0000)
  51 Na    17.946370    2.115000   12.991062    ( 0.0000,  0.0000,  0.0000)
  52 Na    11.959810   -0.000686   15.943688    ( 0.0000,  0.0000,  0.0000)
  53 Na    14.995729    2.115137   15.910916    ( 0.0000,  0.0000,  0.0000)
  54 Na    15.057963    0.113002   19.018555    ( 0.0000,  0.0000,  0.0000)
  55 Na    11.985392    2.115353   18.867892    ( 0.0000,  0.0000,  0.0000)
  56 Na    11.964247    4.230000   10.000000    ( 0.0000,  0.0000,  0.0000)
  57 Na    14.955308    6.345000   10.000000    ( 0.0000,  0.0000,  0.0000)
  58 Na    14.955308    4.230000   12.991062    ( 0.0000,  0.0000,  0.0000)
  59 Na    17.946370    6.345000   12.991062    ( 0.0000,  0.0000,  0.0000)
  60 Na    11.959810    4.230759   15.943484    ( 0.0000,  0.0000,  0.0000)
  61 Na    14.919760    6.324906   15.993403    ( 0.0000,  0.0000,  0.0000)
  62 Na    15.061963    4.111540   19.017810    ( 0.0000,  0.0000,  0.0000)
  63 Na    12.005394    6.317709   18.865309    ( 0.0000,  0.0000,  0.0000)
  64 Na    11.964247    8.460000   10.000000    ( 0.0000,  0.0000,  0.0000)
  65 Na    14.955308   10.575000   10.000000    ( 0.0000,  0.0000,  0.0000)
  66 Na    14.955308    8.460000   12.991062    ( 0.0000,  0.0000,  0.0000)
  67 Na    17.946370   10.575000   12.991062    ( 0.0000,  0.0000,  0.0000)
  68 Na    11.966881    8.459927   15.938322    ( 0.0000,  0.0000,  0.0000)
  69 Na    14.918346   10.594957   15.994436    ( 0.0000,  0.0000,  0.0000)
  70 Na    14.995524    8.465458   18.865198    ( 0.0000,  0.0000,  0.0000)
  71 Na    12.005394   10.601938   18.864168    ( 0.0000,  0.0000,  0.0000)
  72 Na     0.498510    1.762500   21.339934    ( 0.0000,  0.0000,  0.0000)

Unit cell:
           periodic     x           y           z      points  spacing
  1. axis:    yes   17.946370    0.000000    0.000000    60     0.2991
  2. axis:    yes    0.000000   12.690000    0.000000    42     0.3021
  3. axis:    no     0.000000    0.000000   28.973185    96     0.3018

  Lengths:  17.946370  12.690000  28.973185
  Angles:   90.000000  90.000000  90.000000

Effective grid spacing dv^(1/3) = 0.3010

     iter     time        total  log10-change:
                         energy   eigst   dens
iter:   1 06:42:58   -81.487960
iter:   2 06:43:24   -80.918543   -2.32  -1.52
iter:   3 06:43:50   -80.569433   -2.78  -1.59
iter:   4 06:44:16   -80.352764   -2.89  -1.71
iter:   5 06:44:42   -80.435802c  -3.04  -1.99
iter:   6 06:45:07   -80.373633c  -3.69  -2.13
iter:   7 06:45:32   -80.315213c  -3.88  -2.27
iter:   8 06:45:58   -80.309928c  -4.37  -2.74
iter:   9 06:46:24   -80.302156c  -4.56  -2.88
iter:  10 06:46:49   -80.298891c  -4.77  -3.16
iter:  11 06:47:15   -80.297075c  -5.02  -3.29
iter:  12 06:47:40   -80.296025c  -5.23  -3.40
iter:  13 06:48:05   -80.295767c  -5.24  -3.53
iter:  14 06:48:30   -80.295764c  -5.68c -3.82
iter:  15 06:48:56   -80.295727c  -5.95c -3.90
iter:  16 06:49:21   -80.295660c  -6.16c -3.97
iter:  17 06:49:47   -80.295714c  -6.36c -4.11c

Converged after 17 iterations.

Dipole moment: (-9.444679, -3.612964, 0.287875) |e|*Ang

Energy contributions relative to reference atoms: (reference = -322558.566329)

Kinetic:       +160.043561
Potential:     -143.987241
External:        +0.000000
XC:             -98.984302
Entropy (-ST):   -1.343755
Local:           +3.304145
SIC:             +0.000000
--------------------------
Free energy:    -80.967592
Extrapolated:   -80.295714

Showing all kpts
 Kpt  Band  Eigenvalues  Occupancy
  0   253     -1.59616    1.48906
  0   254     -1.58084    1.42863
  0   255     -1.56727    1.37169
  0   256     -1.43078    0.71599

  1   253     -1.59765    1.49470
  1   254     -1.58021    1.42609
  1   255     -1.56696    1.37035
  1   256     -1.43067    0.71546


Fermi level: -1.48919

Gap: 0.136 eV
Transition (v -> c):
  (s=0, k=1, n=255, [0.25, 0.25, 0.00]) -> (s=0, k=0, n=256, [0.25, -0.25, 0.00])
Direct/indirect transitions are different
Direct gap: 0.136 eV
Transition at: (s=0, k=1, n=255, [0.25, 0.25, 0.00])

Forces in eV/Ang:
  0 Na    0.00102    0.00182    0.02580
  1 Na   -0.00384   -0.00028    0.02484
  2 Na    0.00022   -0.00832   -0.02767
  3 Na   -0.00366    0.00206   -0.01432
  4 Na   -0.00150   -0.01638    0.00619
  5 Na    0.02199   -0.00019    0.01404
  6 Na    0.03767   -0.02576    0.00791
  7 Na   -0.06067    0.04466   -0.16179
  8 Na    0.00099   -0.00349    0.02625
  9 Na   -0.00180   -0.00454    0.02770
 10 Na    0.00013    0.01346   -0.02842
 11 Na    0.00205   -0.00123   -0.00747
 12 Na    0.00183    0.01322    0.00232
 13 Na   -0.01532   -0.01400   -0.00732
 14 Na    0.01536    0.00724   -0.00707
 15 Na    0.00426   -0.00100   -0.00863
 16 Na    0.00040    0.00151    0.02882
 17 Na   -0.00270    0.00493    0.02685
 18 Na   -0.00316   -0.00398    0.00790
 19 Na    0.00128   -0.00092   -0.01337
 20 Na    0.00260    0.00329   -0.01493
 21 Na   -0.01516    0.01388   -0.00117
 22 Na   -0.00639   -0.00518    0.00434
 23 Na   -0.00718    0.00913   -0.00189
 24 Na   -0.00267    0.00086    0.02824
 25 Na    0.00064   -0.00018    0.02861
 26 Na    0.00019   -0.00097   -0.01466
 27 Na    0.00222    0.00013   -0.01284
 28 Na   -0.00135    0.01319   -0.00074
 29 Na    0.00082   -0.00267   -0.00489
 30 Na    0.00126   -0.00071   -0.00755
 31 Na    0.01168    0.00831   -0.01043
 32 Na   -0.00220   -0.00082    0.02862
 33 Na    0.00068    0.00147    0.02883
 34 Na    0.00050    0.00151   -0.01486
 35 Na   -0.00290    0.00055   -0.01324
 36 Na   -0.00504   -0.01518   -0.00921
 37 Na    0.00179    0.00142   -0.00298
 38 Na   -0.00054    0.00047   -0.00656
 39 Na   -0.00523   -0.00048   -0.00095
 40 Na    0.00189   -0.00010    0.03184
 41 Na    0.00064   -0.00132    0.02892
 42 Na    0.00105   -0.00055   -0.01570
 43 Na   -0.00168   -0.00076   -0.01316
 44 Na    0.00771    0.00100    0.00081
 45 Na   -0.00016    0.00128   -0.00461
 46 Na   -0.00085    0.00011   -0.00794
 47 Na    0.00666   -0.00675   -0.01474
 48 Na    0.00052    0.00059    0.02899
 49 Na    0.00467   -0.00020    0.02562
 50 Na    0.00085   -0.00827   -0.02091
 51 Na   -0.00004    0.00215   -0.03950
 52 Na   -0.00012    0.01313   -0.01001
 53 Na   -0.01853   -0.00263    0.01542
 54 Na   -0.00554   -0.01055   -0.00291
 55 Na   -0.00460    0.00036   -0.00742
 56 Na    0.00030   -0.00037    0.02932
 57 Na    0.00127   -0.00311    0.02866
 58 Na    0.00019    0.00700   -0.02049
 59 Na    0.00123    0.03207   -0.04885
 60 Na   -0.00027   -0.01261   -0.01015
 61 Na    0.01314   -0.01152   -0.00314
 62 Na   -0.01025    0.00644   -0.01171
 63 Na    0.00426   -0.00054   -0.00416
 64 Na   -0.00215   -0.00022    0.03126
 65 Na    0.00240    0.00342    0.02760
 66 Na    0.00097    0.00143    0.01324
 67 Na    0.00048   -0.03556   -0.05796
 68 Na   -0.00876   -0.00056    0.00019
 69 Na    0.01719    0.01518   -0.00573
 70 Na    0.00711   -0.00018    0.00998
 71 Na    0.00382    0.00025   -0.00388
 72 Na    0.00918   -0.02596    0.10372

System changes: positions 

Initializing position-dependent things.

Density initialized from wave functions
         .-------------------------------------------.  
        /|                                           |  
       / |                                           |  
      /  |                                           |  
     /   |                                           |  
    /    |                                           |  
   /     |                                           |  
  /      |                                           |  
 *       |                                           |  
 |       |                                           |  
 |       |                                           |  
 |       |                                           |  
 |       |                                           |  
 |       |                     Na                    |  
 |      Na            Na             Na              |  
 |       |    Na            Na             Na        |  
 | Na    Na             Na            Na             |  
 |   Na  |          Na            Na        Na       |  
 |       | Na  Na         Na  Na         Na          |  
 |       |       Na  Na         Na  Na            Na |  
 |Na    Na  Na             Na         Na  Na         |  
 |      Na            Na             Na              |  
 |       |        Na             Na             Na   |  
 |       |Na  Na        Na  Na         Na  Na        |  
 |   Na  |          Na            Na                 |  
 |       | Na  Na         Na  Na        Na  Na       |  
 |    Na |           Na             Na               |  
 |Na     |       Na             Na                   |  
 |      Na  Na         Na  Na         Na  Na         |  
 |  Na   |        Na             Na                  |  
 |       |Na            Na             Na            |  
 |       |                                           |  
 Na      |      Na            Na                     |  
 |       |                                           |  
 |       |                                           |  
 |       |                                           |  
 |       .-------------------------------------------.  
 |      /                                           /   
 |     /                                           /    
 |    /                                           /     
 |   /                                           /      
 |  /                                           /       
 | /                                           /        
 |/                                           /         
 *-------------------------------------------*          

Atomic positions and initial magnetic moments

Positions:
   0 Na     0.000000    0.000000   10.000000    ( 0.0000,  0.0000,  0.0000)
   1 Na     2.991062    2.115000   10.000000    ( 0.0000,  0.0000,  0.0000)
   2 Na     2.991062    0.000000   12.991062    ( 0.0000,  0.0000,  0.0000)
   3 Na     5.982123    2.115000   12.991062    ( 0.0000,  0.0000,  0.0000)
   4 Na     0.008249   -0.102524   15.771551    ( 0.0000,  0.0000,  0.0000)
   5 Na     2.949976    2.135477   15.877788    ( 0.0000,  0.0000,  0.0000)
   6 Na     2.893019    0.112738   18.907587    ( 0.0000,  0.0000,  0.0000)
   7 Na     0.019083    2.092840   18.341842    ( 0.0000,  0.0000,  0.0000)
   8 Na     0.000000    4.230000   10.000000    ( 0.0000,  0.0000,  0.0000)
   9 Na     2.991062    6.345000   10.000000    ( 0.0000,  0.0000,  0.0000)
  10 Na     2.991062    4.230000   12.991062    ( 0.0000,  0.0000,  0.0000)
  11 Na     5.982123    6.345000   12.991062    ( 0.0000,  0.0000,  0.0000)
  12 Na    -0.007199    4.328472   15.788220    ( 0.0000,  0.0000,  0.0000)
  13 Na     3.026982    6.324767   16.003666    ( 0.0000,  0.0000,  0.0000)
  14 Na     2.892795    4.099919   19.024964    ( 0.0000,  0.0000,  0.0000)
  15 Na     0.006441    6.259231   18.900292    ( 0.0000,  0.0000,  0.0000)
  16 Na     0.000000    8.460000   10.000000    ( 0.0000,  0.0000,  0.0000)
  17 Na     2.991062   10.575000   10.000000    ( 0.0000,  0.0000,  0.0000)
  18 Na     2.991062    8.460000   12.991062    ( 0.0000,  0.0000,  0.0000)
  19 Na     5.982123   10.575000   12.991062    ( 0.0000,  0.0000,  0.0000)
  20 Na    -0.007191    8.464053   16.000860    ( 0.0000,  0.0000,  0.0000)
  21 Na     3.026983   10.574754   15.961152    ( 0.0000,  0.0000,  0.0000)
  22 Na     2.959014    8.477105   18.872474    ( 0.0000,  0.0000,  0.0000)
  23 Na     0.019618   10.683457   18.930890    ( 0.0000,  0.0000,  0.0000)
  24 Na     5.982123    0.000000   10.000000    ( 0.0000,  0.0000,  0.0000)
  25 Na     8.973185    2.115000   10.000000    ( 0.0000,  0.0000,  0.0000)
  26 Na     8.973185    0.000000   12.991062    ( 0.0000,  0.0000,  0.0000)
  27 Na    11.964247    2.115000   12.991062    ( 0.0000,  0.0000,  0.0000)
  28 Na     5.978282   -0.000554   15.937778    ( 0.0000,  0.0000,  0.0000)
  29 Na     8.974081    2.115111   15.940367    ( 0.0000,  0.0000,  0.0000)
  30 Na     8.968968   -0.001770   18.865590    ( 0.0000,  0.0000,  0.0000)
  31 Na     5.941406    2.092477   18.898373    ( 0.0000,  0.0000,  0.0000)
  32 Na     5.982123    4.230000   10.000000    ( 0.0000,  0.0000,  0.0000)
  33 Na     8.973185    6.345000   10.000000    ( 0.0000,  0.0000,  0.0000)
  34 Na     8.973185    4.230000   12.991062    ( 0.0000,  0.0000,  0.0000)
  35 Na    11.964247    6.345000   12.991062    ( 0.0000,  0.0000,  0.0000)
  36 Na     5.993726    4.226514   15.954402    ( 0.0000,  0.0000,  0.0000)
  37 Na     8.972676    6.345378   15.938334    ( 0.0000,  0.0000,  0.0000)
  38 Na     8.964948    4.226308   18.864855    ( 0.0000,  0.0000,  0.0000)
  39 Na     5.934527    6.317706   18.864214    ( 0.0000,  0.0000,  0.0000)
  40 Na     5.982123    8.460000   10.000000    ( 0.0000,  0.0000,  0.0000)
  41 Na     8.973185   10.575000   10.000000    ( 0.0000,  0.0000,  0.0000)
  42 Na     8.973185    8.460000   12.991062    ( 0.0000,  0.0000,  0.0000)
  43 Na    11.964247   10.575000   12.991062    ( 0.0000,  0.0000,  0.0000)
  44 Na     5.986783    8.464030   15.949341    ( 0.0000,  0.0000,  0.0000)
  45 Na     8.974071   10.574511   15.939351    ( 0.0000,  0.0000,  0.0000)
  46 Na     8.964945    8.465461   18.870548    ( 0.0000,  0.0000,  0.0000)
  47 Na     5.921354   10.624828   18.894606    ( 0.0000,  0.0000,  0.0000)
  48 Na    11.964247    0.000000   10.000000    ( 0.0000,  0.0000,  0.0000)
  49 Na    14.955308    2.115000   10.000000    ( 0.0000,  0.0000,  0.0000)
  50 Na    14.955308    0.000000   12.991062    ( 0.0000,  0.0000,  0.0000)
  51 Na    17.946370    2.115000   12.991062    ( 0.0000,  0.0000,  0.0000)
  52 Na    11.959809   -0.000555   15.943587    ( 0.0000,  0.0000,  0.0000)
  53 Na    14.995541    2.115111   15.911072    ( 0.0000,  0.0000,  0.0000)
  54 Na    15.057903    0.112890   19.018518    ( 0.0000,  0.0000,  0.0000)
  55 Na    11.985345    2.115356   18.867818    ( 0.0000,  0.0000,  0.0000)
  56 Na    11.964247    4.230000   10.000000    ( 0.0000,  0.0000,  0.0000)
  57 Na    14.955308    6.345000   10.000000    ( 0.0000,  0.0000,  0.0000)
  58 Na    14.955308    4.230000   12.991062    ( 0.0000,  0.0000,  0.0000)
  59 Na    17.946370    6.345000   12.991062    ( 0.0000,  0.0000,  0.0000)
  60 Na    11.959808    4.230633   15.943382    ( 0.0000,  0.0000,  0.0000)
  61 Na    14.919894    6.324791   15.993369    ( 0.0000,  0.0000,  0.0000)
  62 Na    15.061857    4.111609   19.017685    ( 0.0000,  0.0000,  0.0000)
  63 Na    12.005435    6.317705   18.865268    ( 0.0000,  0.0000,  0.0000)
  64 Na    11.964247    8.460000   10.000000    ( 0.0000,  0.0000,  0.0000)
  65 Na    14.955308   10.575000   10.000000    ( 0.0000,  0.0000,  0.0000)
  66 Na    14.955308    8.460000   12.991062    ( 0.0000,  0.0000,  0.0000)
  67 Na    17.946370   10.575000   12.991062    ( 0.0000,  0.0000,  0.0000)
  68 Na    11.966794    8.459922   15.938324    ( 0.0000,  0.0000,  0.0000)
  69 Na    14.918520   10.595108   15.994376    ( 0.0000,  0.0000,  0.0000)
  70 Na    14.995595    8.465458   18.865297    ( 0.0000,  0.0000,  0.0000)
  71 Na    12.005430   10.601939   18.864129    ( 0.0000,  0.0000,  0.0000)
  72 Na     0.498733    1.762148   21.340971    ( 0.0000,  0.0000,  0.0000)

Unit cell:
           periodic     x           y           z      points  spacing
  1. axis:    yes   17.946370    0.000000    0.000000    60     0.2991
  2. axis:    yes    0.000000   12.690000    0.000000    42     0.3021
  3. axis:    no     0.000000    0.000000   28.973185    96     0.3018

  Lengths:  17.946370  12.690000  28.973185
  Angles:   90.000000  90.000000  90.000000

Effective grid spacing dv^(1/3) = 0.3010

     iter     time        total  log10-change:
                         energy   eigst   dens
iter:   1 07:09:00   -80.296123   -6.15c
iter:   2 07:09:26   -80.296191   -6.76c -3.85
iter:   3 07:09:51   -80.296249c  -6.98c -3.98
iter:   4 07:10:16   -80.296275c  -7.16c -4.24c

Converged after 4 iterations.

Dipole moment: (-9.424946, -3.609553, 0.289165) |e|*Ang

Energy contributions relative to reference atoms: (reference = -322558.566329)

Kinetic:       +156.625814
Potential:     -140.966064
External:        +0.000000
XC:             -98.580102
Entropy (-ST):   -1.343630
Local:           +3.295892
SIC:             +0.000000
--------------------------
Free energy:    -80.968089
Extrapolated:   -80.296275

Showing all kpts
 Kpt  Band  Eigenvalues  Occupancy
  0   253     -1.59632    1.48857
  0   254     -1.58121    1.42900
  0   255     -1.56752    1.37152
  0   256     -1.43116    0.71640

  1   253     -1.59780    1.49421
  1   254     -1.58060    1.42647
  1   255     -1.56721    1.37017
  1   256     -1.43105    0.71588


Fermi level: -1.48948

Gap: 0.136 eV
Transition (v -> c):
  (s=0, k=1, n=255, [0.25, 0.25, 0.00]) -> (s=0, k=0, n=256, [0.25, -0.25, 0.00])
Direct/indirect transitions are different
Direct gap: 0.136 eV
Transition at: (s=0, k=1, n=255, [0.25, 0.25, 0.00])

Forces in eV/Ang:
  0 Na    0.00089    0.00150    0.02357
  1 Na   -0.00323   -0.00030    0.02258
  2 Na    0.00016   -0.00851   -0.02487
  3 Na   -0.00335    0.00207   -0.01305
  4 Na   -0.00195   -0.01758    0.00123
  5 Na    0.02263    0.00012    0.00993
  6 Na    0.03790   -0.02629    0.01074
  7 Na   -0.06006    0.04413   -0.15242
  8 Na    0.00090   -0.00318    0.02419
  9 Na   -0.00178   -0.00443    0.02657
 10 Na    0.00015    0.01354   -0.02591
 11 Na    0.00230   -0.00145   -0.00699
 12 Na    0.00161    0.01436   -0.00148
 13 Na   -0.01593   -0.01402   -0.00773
 14 Na    0.01588    0.00846   -0.00529
 15 Na    0.00418    0.00101   -0.00826
 16 Na    0.00037    0.00150    0.02766
 17 Na   -0.00264    0.00484    0.02555
 18 Na   -0.00356   -0.00386    0.00888
 19 Na    0.00157   -0.00072   -0.01278
 20 Na    0.00288    0.00333   -0.01490
 21 Na   -0.01542    0.01368   -0.00236
 22 Na   -0.00664   -0.00545    0.00468
 23 Na   -0.00728    0.00669   -0.00058
 24 Na   -0.00222    0.00138    0.02703
 25 Na    0.00078   -0.00043    0.02791
 26 Na    0.00045   -0.00060   -0.01456
 27 Na    0.00153    0.00004   -0.01230
 28 Na   -0.00205    0.01344   -0.00125
 29 Na    0.00040   -0.00268   -0.00558
 30 Na    0.00093   -0.00082   -0.00651
 31 Na    0.01247    0.00824   -0.00990
 32 Na   -0.00192   -0.00142    0.02759
 33 Na    0.00059    0.00070    0.02847
 34 Na    0.00070    0.00105   -0.01462
 35 Na   -0.00326    0.00035   -0.01281
 36 Na   -0.00571   -0.01560   -0.00966
 37 Na    0.00175    0.00136   -0.00367
 38 Na   -0.00079    0.00054   -0.00544
 39 Na   -0.00551   -0.00032   -0.00009
 40 Na    0.00151   -0.00002    0.03141
 41 Na    0.00061   -0.00030    0.02851
 42 Na    0.00113   -0.00046   -0.01506
 43 Na   -0.00206   -0.00047   -0.01271
 44 Na    0.00724    0.00120    0.00086
 45 Na   -0.00029    0.00136   -0.00520
 46 Na   -0.00098    0.00016   -0.00678
 47 Na    0.00654   -0.00690   -0.01407
 48 Na    0.00019    0.00127    0.02807
 49 Na    0.00395   -0.00028    0.02350
 50 Na    0.00081   -0.00856   -0.01882
 51 Na    0.00011    0.00209   -0.03553
 52 Na    0.00051    0.01326   -0.01060
 53 Na   -0.01815   -0.00255    0.01330
 54 Na   -0.00636   -0.01096   -0.00174
 55 Na   -0.00461    0.00035   -0.00669
 56 Na    0.00010   -0.00121    0.02850
 57 Na    0.00128   -0.00307    0.02766
 58 Na    0.00009    0.00717   -0.01871
 59 Na    0.00139    0.03203   -0.04695
 60 Na    0.00023   -0.01287   -0.01066
 61 Na    0.01403   -0.01180   -0.00331
 62 Na   -0.01096    0.00716   -0.01103
 63 Na    0.00450   -0.00042   -0.00305
 64 Na   -0.00166   -0.00007    0.03089
 65 Na    0.00233    0.00348    0.02645
 66 Na    0.00119    0.00157    0.01387
 67 Na    0.00057   -0.03547   -0.05553
 68 Na   -0.00872   -0.00043   -0.00023
 69 Na    0.01786    0.01538   -0.00642
 70 Na    0.00761   -0.00031    0.01061
 71 Na    0.00401    0.00013   -0.00283
 72 Na    0.00913   -0.02600    0.09724

System changes: positions 

Initializing position-dependent things.

Density initialized from wave functions
         .-------------------------------------------.  
        /|                                           |  
       / |                                           |  
      /  |                                           |  
     /   |                                           |  
    /    |                                           |  
   /     |                                           |  
  /      |                                           |  
 *       |                                           |  
 |       |                                           |  
 |       |                                           |  
 |       |                                           |  
 |       |                                           |  
 |       |                     Na                    |  
 |      Na            Na             Na              |  
 |       |    Na            Na             Na        |  
 | Na    Na             Na            Na             |  
 |   Na  |          Na            Na        Na       |  
 |       | Na  Na         Na  Na         Na          |  
 |       |       Na  Na         Na  Na            Na |  
 |Na    Na  Na             Na         Na  Na         |  
 |      Na            Na             Na              |  
 |       |        Na             Na             Na   |  
 |       |Na  Na        Na  Na         Na  Na        |  
 |   Na  |          Na            Na                 |  
 |       | Na  Na         Na  Na        Na  Na       |  
 |    Na |           Na             Na               |  
 |Na     |       Na             Na                   |  
 |      Na  Na         Na  Na         Na  Na         |  
 |  Na   |        Na             Na                  |  
 |       |Na            Na             Na            |  
 |       |                                           |  
 Na      |      Na            Na                     |  
 |       |                                           |  
 |       |                                           |  
 |       |                                           |  
 |       .-------------------------------------------.  
 |      /                                           /   
 |     /                                           /    
 |    /                                           /     
 |   /                                           /      
 |  /                                           /       
 | /                                           /        
 |/                                           /         
 *-------------------------------------------*          

Atomic positions and initial magnetic moments

Positions:
   0 Na     0.000000    0.000000   10.000000    ( 0.0000,  0.0000,  0.0000)
   1 Na     2.991062    2.115000   10.000000    ( 0.0000,  0.0000,  0.0000)
   2 Na     2.991062    0.000000   12.991062    ( 0.0000,  0.0000,  0.0000)
   3 Na     5.982123    2.115000   12.991062    ( 0.0000,  0.0000,  0.0000)
   4 Na     0.008218   -0.102855   15.771633    ( 0.0000,  0.0000,  0.0000)
   5 Na     2.950428    2.135487   15.878011    ( 0.0000,  0.0000,  0.0000)
   6 Na     2.893786    0.112205   18.907706    ( 0.0000,  0.0000,  0.0000)
   7 Na     0.017885    2.093718   18.338775    ( 0.0000,  0.0000,  0.0000)
   8 Na     0.000000    4.230000   10.000000    ( 0.0000,  0.0000,  0.0000)
   9 Na     2.991062    6.345000   10.000000    ( 0.0000,  0.0000,  0.0000)
  10 Na     2.991062    4.230000   12.991062    ( 0.0000,  0.0000,  0.0000)
  11 Na     5.982123    6.345000   12.991062    ( 0.0000,  0.0000,  0.0000)
  12 Na    -0.007168    4.328737   15.788247    ( 0.0000,  0.0000,  0.0000)
  13 Na     3.026664    6.324488   16.003514    ( 0.0000,  0.0000,  0.0000)
  14 Na     2.893119    4.100081   19.024831    ( 0.0000,  0.0000,  0.0000)
  15 Na     0.006529    6.259242   18.900120    ( 0.0000,  0.0000,  0.0000)
  16 Na     0.000000    8.460000   10.000000    ( 0.0000,  0.0000,  0.0000)
  17 Na     2.991062   10.575000   10.000000    ( 0.0000,  0.0000,  0.0000)
  18 Na     2.991062    8.460000   12.991062    ( 0.0000,  0.0000,  0.0000)
  19 Na     5.982123   10.575000   12.991062    ( 0.0000,  0.0000,  0.0000)
  20 Na    -0.007139    8.464121   16.000561    ( 0.0000,  0.0000,  0.0000)
  21 Na     3.026673   10.575017   15.961093    ( 0.0000,  0.0000,  0.0000)
  22 Na     2.958886    8.477007   18.872568    ( 0.0000,  0.0000,  0.0000)
  23 Na     0.019483   10.683615   18.930879    ( 0.0000,  0.0000,  0.0000)
  24 Na     5.982123    0.000000   10.000000    ( 0.0000,  0.0000,  0.0000)
  25 Na     8.973185    2.115000   10.000000    ( 0.0000,  0.0000,  0.0000)
  26 Na     8.973185    0.000000   12.991062    ( 0.0000,  0.0000,  0.0000)
  27 Na    11.964247    2.115000   12.991062    ( 0.0000,  0.0000,  0.0000)
  28 Na     5.978243   -0.000287   15.937755    ( 0.0000,  0.0000,  0.0000)
  29 Na     8.974093    2.115057   15.940262    ( 0.0000,  0.0000,  0.0000)
  30 Na     8.968987   -0.001785   18.865451    ( 0.0000,  0.0000,  0.0000)
  31 Na     5.941641    2.092631   18.898185    ( 0.0000,  0.0000,  0.0000)
  32 Na     5.982123    4.230000   10.000000    ( 0.0000,  0.0000,  0.0000)
  33 Na     8.973185    6.345000   10.000000    ( 0.0000,  0.0000,  0.0000)
  34 Na     8.973185    4.230000   12.991062    ( 0.0000,  0.0000,  0.0000)
  35 Na    11.964247    6.345000   12.991062    ( 0.0000,  0.0000,  0.0000)
  36 Na     5.993621    4.226203   15.954218    ( 0.0000,  0.0000,  0.0000)
  37 Na     8.972711    6.345406   15.938267    ( 0.0000,  0.0000,  0.0000)
  38 Na     8.964930    4.226315   18.864736    ( 0.0000,  0.0000,  0.0000)
  39 Na     5.934420    6.317700   18.864204    ( 0.0000,  0.0000,  0.0000)
  40 Na     5.982123    8.460000   10.000000    ( 0.0000,  0.0000,  0.0000)
  41 Na     8.973185   10.575000   10.000000    ( 0.0000,  0.0000,  0.0000)
  42 Na     8.973185    8.460000   12.991062    ( 0.0000,  0.0000,  0.0000)
  43 Na    11.964247   10.575000   12.991062    ( 0.0000,  0.0000,  0.0000)
  44 Na     5.986936    8.464054   15.949363    ( 0.0000,  0.0000,  0.0000)
  45 Na     8.974067   10.574538   15.939252    ( 0.0000,  0.0000,  0.0000)
  46 Na     8.964922    8.465466   18.870401    ( 0.0000,  0.0000,  0.0000)
  47 Na     5.921481   10.624700   18.894334    ( 0.0000,  0.0000,  0.0000)
  48 Na    11.964247    0.000000   10.000000    ( 0.0000,  0.0000,  0.0000)
  49 Na    14.955308    2.115000   10.000000    ( 0.0000,  0.0000,  0.0000)
  50 Na    14.955308    0.000000   12.991062    ( 0.0000,  0.0000,  0.0000)
  51 Na    17.946370    2.115000   12.991062    ( 0.0000,  0.0000,  0.0000)
  52 Na    11.959814   -0.000290   15.943380    ( 0.0000,  0.0000,  0.0000)
  53 Na    14.995169    2.115059   15.911361    ( 0.0000,  0.0000,  0.0000)
  54 Na    15.057775    0.112663   19.018457    ( 0.0000,  0.0000,  0.0000)
  55 Na    11.985250    2.115363   18.867677    ( 0.0000,  0.0000,  0.0000)
  56 Na    11.964247    4.230000   10.000000    ( 0.0000,  0.0000,  0.0000)
  57 Na    14.955308    6.345000   10.000000    ( 0.0000,  0.0000,  0.0000)
  58 Na    14.955308    4.230000   12.991062    ( 0.0000,  0.0000,  0.0000)
  59 Na    17.946370    6.345000   12.991062    ( 0.0000,  0.0000,  0.0000)
  60 Na    11.959808    4.230377   15.943173    ( 0.0000,  0.0000,  0.0000)
  61 Na    14.920171    6.324559   15.993299    ( 0.0000,  0.0000,  0.0000)
  62 Na    15.061639    4.111755   19.017442    ( 0.0000,  0.0000,  0.0000)
  63 Na    12.005518    6.317698   18.865197    ( 0.0000,  0.0000,  0.0000)
  64 Na    11.964247    8.460000   10.000000    ( 0.0000,  0.0000,  0.0000)
  65 Na    14.955308   10.575000   10.000000    ( 0.0000,  0.0000,  0.0000)
  66 Na    14.955308    8.460000   12.991062    ( 0.0000,  0.0000,  0.0000)
  67 Na    17.946370   10.575000   12.991062    ( 0.0000,  0.0000,  0.0000)
  68 Na    11.966618    8.459912   15.938323    ( 0.0000,  0.0000,  0.0000)
  69 Na    14.918875   10.595412   15.994249    ( 0.0000,  0.0000,  0.0000)
  70 Na    14.995744    8.465455   18.865504    ( 0.0000,  0.0000,  0.0000)
  71 Na    12.005505   10.601940   18.864063    ( 0.0000,  0.0000,  0.0000)
  72 Na     0.499167    1.761450   21.342978    ( 0.0000,  0.0000,  0.0000)

Unit cell:
           periodic     x           y           z      points  spacing
  1. axis:    yes   17.946370    0.000000    0.000000    60     0.2991
  2. axis:    yes    0.000000   12.690000    0.000000    42     0.3021
  3. axis:    no     0.000000    0.000000   28.973185    96     0.3018

  Lengths:  17.946370  12.690000  28.973185
  Angles:   90.000000  90.000000  90.000000

Effective grid spacing dv^(1/3) = 0.3010

     iter     time        total  log10-change:
                         energy   eigst   dens
iter:   1 07:19:09   -80.296757   -6.35c
iter:   2 07:19:37   -80.296803   -7.11c -3.46
iter:   3 07:20:05   -80.296964c  -7.58c -3.81
iter:   4 07:20:33   -80.297200c  -7.70c -4.17c

Converged after 4 iterations.

Dipole moment: (-9.382864, -3.599223, 0.289671) |e|*Ang

Energy contributions relative to reference atoms: (reference = -322558.566329)

Kinetic:       +157.965086
Potential:     -142.147608
External:        +0.000000
XC:             -98.740618
Entropy (-ST):   -1.343719
Local:           +3.297800
SIC:             +0.000000
--------------------------
Free energy:    -80.969059
Extrapolated:   -80.297200

Showing all kpts
 Kpt  Band  Eigenvalues  Occupancy
  0   253     -1.59597    1.48869
  0   254     -1.58072    1.42853
  0   255     -1.56717    1.37164
  0   256     -1.43075    0.71625

  1   253     -1.59747    1.49437
  1   254     -1.58010    1.42599
  1   255     -1.56686    1.37032
  1   256     -1.43063    0.71570


Fermi level: -1.48910

Gap: 0.136 eV
Transition (v -> c):
  (s=0, k=1, n=255, [0.25, 0.25, 0.00]) -> (s=0, k=0, n=256, [0.25, -0.25, 0.00])
Direct/indirect transitions are different
Direct gap: 0.136 eV
Transition at: (s=0, k=1, n=255, [0.25, 0.25, 0.00])

Forces in eV/Ang:
  0 Na    0.00096    0.00188    0.02481
  1 Na   -0.00338   -0.00035    0.02381
  2 Na    0.00053   -0.00864   -0.02671
  3 Na   -0.00323    0.00205   -0.01392
  4 Na   -0.00200   -0.01703    0.00339
  5 Na    0.02148    0.00018    0.01213
  6 Na    0.03763   -0.02627    0.00858
  7 Na   -0.05862    0.04325   -0.14966
  8 Na    0.00095   -0.00360    0.02542
  9 Na   -0.00171   -0.00466    0.02748
 10 Na    0.00044    0.01381   -0.02740
 11 Na    0.00198   -0.00150   -0.00736
 12 Na    0.00155    0.01418    0.00033
 13 Na   -0.01571   -0.01412   -0.00693
 14 Na    0.01596    0.00905   -0.00718
 15 Na    0.00408    0.00016   -0.00916
 16 Na    0.00044    0.00155    0.02871
 17 Na   -0.00256    0.00512    0.02648
 18 Na   -0.00363   -0.00401    0.00831
 19 Na    0.00142   -0.00064   -0.01329
 20 Na    0.00282    0.00328   -0.01449
 21 Na   -0.01514    0.01364   -0.00126
 22 Na   -0.00661   -0.00515    0.00469
 23 Na   -0.00715    0.00643   -0.00182
 24 Na   -0.00235    0.00132    0.02772
 25 Na    0.00065   -0.00035    0.02824
 26 Na    0.00032   -0.00036   -0.01464
 27 Na    0.00160   -0.00001   -0.01267
 28 Na   -0.00177    0.01333   -0.00063
 29 Na    0.00063   -0.00273   -0.00529
 30 Na    0.00102   -0.00060   -0.00686
 31 Na    0.01200    0.00819   -0.01033
 32 Na   -0.00195   -0.00137    0.02815
 33 Na    0.00062    0.00090    0.02817
 34 Na    0.00055    0.00073   -0.01479
 35 Na   -0.00296    0.00013   -0.01314
 36 Na   -0.00549   -0.01537   -0.00900
 37 Na    0.00165    0.00129   -0.00325
 38 Na   -0.00069    0.00031   -0.00572
 39 Na   -0.00558   -0.00059   -0.00020
 40 Na    0.00182    0.00000    0.03153
 41 Na    0.00061   -0.00059    0.02834
 42 Na    0.00091   -0.00039   -0.01530
 43 Na   -0.00186   -0.00021   -0.01315
 44 Na    0.00727    0.00111    0.00081
 45 Na   -0.00038    0.00148   -0.00477
 46 Na   -0.00102    0.00017   -0.00716
 47 Na    0.00625   -0.00670   -0.01408
 48 Na    0.00026    0.00109    0.02851
 49 Na    0.00422   -0.00030    0.02468
 50 Na    0.00051   -0.00854   -0.02024
 51 Na   -0.00001    0.00220   -0.03768
 52 Na    0.00004    0.01336   -0.01010
 53 Na   -0.01704   -0.00240    0.01506
 54 Na   -0.00651   -0.01086   -0.00326
 55 Na   -0.00442    0.00034   -0.00711
 56 Na    0.00008   -0.00101    0.02882
 57 Na    0.00122   -0.00329    0.02837
 58 Na   -0.00009    0.00723   -0.01989
 59 Na    0.00140    0.03246   -0.04789
 60 Na   -0.00003   -0.01290   -0.01011
 61 Na    0.01387   -0.01188   -0.00276
 62 Na   -0.01078    0.00729   -0.01234
 63 Na    0.00445   -0.00067   -0.00321
 64 Na   -0.00208   -0.00008    0.03072
 65 Na    0.00228    0.00371    0.02721
 66 Na    0.00153    0.00147    0.01347
 67 Na    0.00052   -0.03601   -0.05680
 68 Na   -0.00864   -0.00050   -0.00004
 69 Na    0.01771    0.01530   -0.00550
 70 Na    0.00766   -0.00019    0.01058
 71 Na    0.00395    0.00036   -0.00290
 72 Na    0.00822   -0.02558    0.09402

System changes: positions 

Initializing position-dependent things.

Density initialized from wave functions
         .-------------------------------------------.  
        /|                                           |  
       / |                                           |  
      /  |                                           |  
     /   |                                           |  
    /    |                                           |  
   /     |                                           |  
  /      |                                           |  
 *       |                                           |  
 |       |                                           |  
 |       |                                           |  
 |       |                                           |  
 |       |                                           |  
 |       |                     Na                    |  
 |      Na            Na             Na              |  
 |       |    Na            Na             Na        |  
 | Na    Na                                          |  
 |   Na  |          Na            Na        Na       |  
 |       | Na  Na         Na  Na         Na          |  
 |       |       Na  Na         Na  Na            Na |  
 |Na    Na  Na             Na         Na  Na         |  
 |      Na            Na             Na              |  
 |       |        Na             Na             Na   |  
 |       |Na  Na        Na  Na         Na  Na        |  
 |   Na  |      Na  Na        Na  Na                 |  
 |       | Na  Na         Na  Na        Na  Na       |  
 |    Na |           Na             Na               |  
 |Na     |       Na             Na                   |  
 |      Na  Na         Na  Na         Na  Na         |  
 |  Na   |        Na             Na                  |  
 |       |Na            Na             Na            |  
 |       |                                           |  
 Na      |      Na            Na                     |  
 |       |                                           |  
 |       |                                           |  
 |       |                                           |  
 |       .-------------------------------------------.  
 |      /                                           /   
 |     /                                           /    
 |    /                                           /     
 |   /                                           /      
 |  /                                           /       
 | /                                           /        
 |/                                           /         
 *-------------------------------------------*          

Atomic positions and initial magnetic moments

Positions:
   0 Na     0.000000    0.000000   10.000000    ( 0.0000,  0.0000,  0.0000)
   1 Na     2.991062    2.115000   10.000000    ( 0.0000,  0.0000,  0.0000)
   2 Na     2.991062    0.000000   12.991062    ( 0.0000,  0.0000,  0.0000)
   3 Na     5.982123    2.115000   12.991062    ( 0.0000,  0.0000,  0.0000)
   4 Na     0.008168   -0.103353   15.771756    ( 0.0000,  0.0000,  0.0000)
   5 Na     2.951096    2.135503   15.878350    ( 0.0000,  0.0000,  0.0000)
   6 Na     2.894936    0.111401   18.907877    ( 0.0000,  0.0000,  0.0000)
   7 Na     0.016103    2.095024   18.334247    ( 0.0000,  0.0000,  0.0000)
   8 Na     0.000000    4.230000   10.000000    ( 0.0000,  0.0000,  0.0000)
   9 Na     2.991062    6.345000   10.000000    ( 0.0000,  0.0000,  0.0000)
  10 Na     2.991062    4.230000   12.991062    ( 0.0000,  0.0000,  0.0000)
  11 Na     5.982123    6.345000   12.991062    ( 0.0000,  0.0000,  0.0000)
  12 Na    -0.007124    4.329140   15.788286    ( 0.0000,  0.0000,  0.0000)
  13 Na     3.026187    6.324068   16.003294    ( 0.0000,  0.0000,  0.0000)
  14 Na     2.893608    4.100336   19.024617    ( 0.0000,  0.0000,  0.0000)
  15 Na     0.006659    6.259258   18.899853    ( 0.0000,  0.0000,  0.0000)
  16 Na     0.000000    8.460000   10.000000    ( 0.0000,  0.0000,  0.0000)
  17 Na     2.991062   10.575000   10.000000    ( 0.0000,  0.0000,  0.0000)
  18 Na     2.991062    8.460000   12.991062    ( 0.0000,  0.0000,  0.0000)
  19 Na     5.982123   10.575000   12.991062    ( 0.0000,  0.0000,  0.0000)
  20 Na    -0.007061    8.464224   16.000118    ( 0.0000,  0.0000,  0.0000)
  21 Na     3.026209   10.575412   15.961014    ( 0.0000,  0.0000,  0.0000)
  22 Na     2.958693    8.476862   18.872712    ( 0.0000,  0.0000,  0.0000)
  23 Na     0.019281   10.683837   18.930853    ( 0.0000,  0.0000,  0.0000)
  24 Na     5.982123    0.000000   10.000000    ( 0.0000,  0.0000,  0.0000)
  25 Na     8.973185    2.115000   10.000000    ( 0.0000,  0.0000,  0.0000)
  26 Na     8.973185    0.000000   12.991062    ( 0.0000,  0.0000,  0.0000)
  27 Na    11.964247    2.115000   12.991062    ( 0.0000,  0.0000,  0.0000)
  28 Na     5.978184    0.000114   15.937724    ( 0.0000,  0.0000,  0.0000)
  29 Na     8.974112    2.114976   15.940104    ( 0.0000,  0.0000,  0.0000)
  30 Na     8.969016   -0.001806   18.865242    ( 0.0000,  0.0000,  0.0000)
  31 Na     5.941993    2.092863   18.897900    ( 0.0000,  0.0000,  0.0000)
  32 Na     5.982123    4.230000   10.000000    ( 0.0000,  0.0000,  0.0000)
  33 Na     8.973185    6.345000   10.000000    ( 0.0000,  0.0000,  0.0000)
  34 Na     8.973185    4.230000   12.991062    ( 0.0000,  0.0000,  0.0000)
  35 Na    11.964247    6.345000   12.991062    ( 0.0000,  0.0000,  0.0000)
  36 Na     5.993462    4.225737   15.953946    ( 0.0000,  0.0000,  0.0000)
  37 Na     8.972763    6.345447   15.938167    ( 0.0000,  0.0000,  0.0000)
  38 Na     8.964904    4.226324   18.864559    ( 0.0000,  0.0000,  0.0000)
  39 Na     5.934257    6.317690   18.864193    ( 0.0000,  0.0000,  0.0000)
  40 Na     5.982123    8.460000   10.000000    ( 0.0000,  0.0000,  0.0000)
  41 Na     8.973185   10.575000   10.000000    ( 0.0000,  0.0000,  0.0000)
  42 Na     8.973185    8.460000   12.991062    ( 0.0000,  0.0000,  0.0000)
  43 Na    11.964247   10.575000   12.991062    ( 0.0000,  0.0000,  0.0000)
  44 Na     5.987164    8.464090   15.949396    ( 0.0000,  0.0000,  0.0000)
  45 Na     8.974059   10.574580   15.939106    ( 0.0000,  0.0000,  0.0000)
  46 Na     8.964887    8.465475   18.870182    ( 0.0000,  0.0000,  0.0000)
  47 Na     5.921667   10.624508   18.893927    ( 0.0000,  0.0000,  0.0000)
  48 Na    11.964247    0.000000   10.000000    ( 0.0000,  0.0000,  0.0000)
  49 Na    14.955308    2.115000   10.000000    ( 0.0000,  0.0000,  0.0000)
  50 Na    14.955308    0.000000   12.991062    ( 0.0000,  0.0000,  0.0000)
  51 Na    17.946370    2.115000   12.991062    ( 0.0000,  0.0000,  0.0000)
  52 Na    11.959820    0.000109   15.943071    ( 0.0000,  0.0000,  0.0000)
  53 Na    14.994627    2.114984   15.911804    ( 0.0000,  0.0000,  0.0000)
  54 Na    15.057578    0.112321   19.018355    ( 0.0000,  0.0000,  0.0000)
  55 Na    11.985111    2.115374   18.867464    ( 0.0000,  0.0000,  0.0000)
  56 Na    11.964247    4.230000   10.000000    ( 0.0000,  0.0000,  0.0000)
  57 Na    14.955308    6.345000   10.000000    ( 0.0000,  0.0000,  0.0000)
  58 Na    14.955308    4.230000   12.991062    ( 0.0000,  0.0000,  0.0000)
  59 Na    17.946370    6.345000   12.991062    ( 0.0000,  0.0000,  0.0000)
  60 Na    11.959809    4.229991   15.942862    ( 0.0000,  0.0000,  0.0000)
  61 Na    14.920590    6.324208   15.993199    ( 0.0000,  0.0000,  0.0000)
  62 Na    15.061308    4.111978   19.017066    ( 0.0000,  0.0000,  0.0000)
  63 Na    12.005645    6.317686   18.865096    ( 0.0000,  0.0000,  0.0000)
  64 Na    11.964247    8.460000   10.000000    ( 0.0000,  0.0000,  0.0000)
  65 Na    14.955308   10.575000   10.000000    ( 0.0000,  0.0000,  0.0000)
  66 Na    14.955308    8.460000   12.991062    ( 0.0000,  0.0000,  0.0000)
  67 Na    17.946370   10.575000   12.991062    ( 0.0000,  0.0000,  0.0000)
  68 Na    11.966356    8.459897   15.938321    ( 0.0000,  0.0000,  0.0000)
  69 Na    14.919410   10.595869   15.994065    ( 0.0000,  0.0000,  0.0000)
  70 Na    14.995971    8.465453   18.865818    ( 0.0000,  0.0000,  0.0000)
  71 Na    12.005617   10.601944   18.863969    ( 0.0000,  0.0000,  0.0000)
  72 Na     0.499795    1.760416   21.345919    ( 0.0000,  0.0000,  0.0000)

Unit cell:
           periodic     x           y           z      points  spacing
  1. axis:    yes   17.946370    0.000000    0.000000    60     0.2991
  2. axis:    yes    0.000000   12.690000    0.000000    42     0.3021
  3. axis:    no     0.000000    0.000000   28.973185    96     0.3018

  Lengths:  17.946370  12.690000  28.973185
  Angles:   90.000000  90.000000  90.000000

Effective grid spacing dv^(1/3) = 0.3010

     iter     time        total  log10-change:
                         energy   eigst   dens
iter:   1 07:30:01   -80.298306   -6.17c
iter:   2 07:30:26   -80.298264   -7.05c -3.43
iter:   3 07:30:51   -80.298393c  -7.63c -3.77
iter:   4 07:31:16   -80.298604c  -7.77c -4.18c

Converged after 4 iterations.

Dipole moment: (-9.318580, -3.582894, 0.289615) |e|*Ang

Energy contributions relative to reference atoms: (reference = -322558.566329)

Kinetic:       +157.371969
Potential:     -141.629665
External:        +0.000000
XC:             -98.666851
Entropy (-ST):   -1.343648
Local:           +3.297767
SIC:             +0.000000
--------------------------
Free energy:    -80.970428
Extrapolated:   -80.298604

Showing all kpts
 Kpt  Band  Eigenvalues  Occupancy
  0   253     -1.59621    1.48837
  0   254     -1.58118    1.42908
  0   255     -1.56745    1.37145
  0   256     -1.43112    0.71643

  1   253     -1.59772    1.49408
  1   254     -1.58057    1.42656
  1   255     -1.56715    1.37014
  1   256     -1.43099    0.71586


Fermi level: -1.48943

Gap: 0.136 eV
Transition (v -> c):
  (s=0, k=1, n=255, [0.25, 0.25, 0.00]) -> (s=0, k=0, n=256, [0.25, -0.25, 0.00])
Direct/indirect transitions are different
Direct gap: 0.136 eV
Transition at: (s=0, k=1, n=255, [0.25, 0.25, 0.00])

Forces in eV/Ang:
  0 Na    0.00093    0.00152    0.02354
  1 Na   -0.00311   -0.00029    0.02258
  2 Na    0.00036   -0.00840   -0.02501
  3 Na   -0.00341    0.00206   -0.01298
  4 Na   -0.00220   -0.01794    0.00004
  5 Na    0.02171    0.00024    0.00959
  6 Na    0.03673   -0.02579    0.01008
  7 Na   -0.05623    0.04160   -0.13833
  8 Na    0.00095   -0.00320    0.02410
  9 Na   -0.00174   -0.00448    0.02626
 10 Na    0.00039    0.01341   -0.02588
 11 Na    0.00225   -0.00170   -0.00700
 12 Na    0.00145    0.01544   -0.00282
 13 Na   -0.01555   -0.01376   -0.00723
 14 Na    0.01596    0.00932   -0.00599
 15 Na    0.00396    0.00093   -0.00883
 16 Na    0.00043    0.00151    0.02732
 17 Na   -0.00258    0.00488    0.02530
 18 Na   -0.00389   -0.00386    0.00911
 19 Na    0.00159   -0.00045   -0.01278
 20 Na    0.00292    0.00329   -0.01453
 21 Na   -0.01479    0.01318   -0.00208
 22 Na   -0.00656   -0.00504    0.00482
 23 Na   -0.00703    0.00526   -0.00099
 24 Na   -0.00211    0.00147    0.02684
 25 Na    0.00078   -0.00045    0.02764
 26 Na    0.00043   -0.00039   -0.01463
 27 Na    0.00146    0.00001   -0.01235
 28 Na   -0.00210    0.01326   -0.00112
 29 Na    0.00026   -0.00262   -0.00552
 30 Na    0.00084   -0.00073   -0.00637
 31 Na    0.01206    0.00809   -0.00990
 32 Na   -0.00182   -0.00153    0.02737
 33 Na    0.00056    0.00050    0.02806
 34 Na    0.00065    0.00082   -0.01466
 35 Na   -0.00336    0.00012   -0.01286
 36 Na   -0.00568   -0.01531   -0.00930
 37 Na    0.00161    0.00126   -0.00371
 38 Na   -0.00078    0.00046   -0.00522
 39 Na   -0.00547   -0.00054    0.00012
 40 Na    0.00152    0.00000    0.03093
 41 Na    0.00059   -0.00010    0.02812
 42 Na    0.00110   -0.00044   -0.01496
 43 Na   -0.00214   -0.00022   -0.01281
 44 Na    0.00684    0.00115    0.00070
 45 Na   -0.00047    0.00140   -0.00506
 46 Na   -0.00098    0.00015   -0.00667
 47 Na    0.00628   -0.00679   -0.01360
 48 Na    0.00002    0.00139    0.02780
 49 Na    0.00384   -0.00028    0.02341
 50 Na    0.00068   -0.00848   -0.01886
 51 Na    0.00018    0.00204   -0.03562
 52 Na    0.00045    0.01305   -0.01032
 53 Na   -0.01693   -0.00239    0.01333
 54 Na   -0.00689   -0.01094   -0.00238
 55 Na   -0.00424    0.00033   -0.00674
 56 Na   -0.00006   -0.00134    0.02820
 57 Na    0.00128   -0.00314    0.02727
 58 Na   -0.00006    0.00704   -0.01873
 59 Na    0.00154    0.03219   -0.04669
 60 Na    0.00026   -0.01265   -0.01029
 61 Na    0.01380   -0.01164   -0.00290
 62 Na   -0.01129    0.00769   -0.01158
 63 Na    0.00440   -0.00051   -0.00279
 64 Na   -0.00173   -0.00005    0.03042
 65 Na    0.00231    0.00354    0.02614
 66 Na    0.00156    0.00160    0.01402
 67 Na    0.00062   -0.03556   -0.05531
 68 Na   -0.00837   -0.00044   -0.00036
 69 Na    0.01750    0.01502   -0.00585
 70 Na    0.00763   -0.00012    0.01071
 71 Na    0.00396    0.00021   -0.00245
 72 Na    0.00769   -0.02526    0.08750

System changes: positions 

Initializing position-dependent things.

Density initialized from wave functions
         .-------------------------------------------.  
        /|                                           |  
       / |                                           |  
      /  |                                           |  
     /   |                                           |  
    /    |                                           |  
   /     |                                           |  
  /      |                                           |  
 *       |                                           |  
 |       |                                           |  
 |       |                                           |  
 |       |                                           |  
 |       |                                           |  
 |       |                     Na                    |  
 |      Na            Na             Na              |  
 |       |    Na            Na             Na        |  
 | Na    Na                                          |  
 |   Na  |          Na            Na        Na       |  
 |       | Na  Na         Na  Na         Na          |  
 |       |       Na  Na         Na  Na            Na |  
 |Na    Na  Na             Na         Na  Na         |  
 |      Na            Na             Na              |  
 |       |        Na             Na             Na   |  
 |       |Na  Na        Na  Na         Na  Na        |  
 |   Na  |      Na  Na        Na  Na                 |  
 |       | Na  Na         Na  Na        Na  Na       |  
 |    Na |           Na             Na               |  
 |Na     |       Na             Na                   |  
 |      Na  Na         Na  Na         Na  Na         |  
 |  Na   |        Na             Na                  |  
 |       |Na            Na             Na            |  
 |       |                                           |  
 Na      |      Na            Na                     |  
 |       |                                           |  
 |       |                                           |  
 |       |                                           |  
 |       .-------------------------------------------.  
 |      /                                           /   
 |     /                                           /    
 |    /                                           /     
 |   /                                           /      
 |  /                                           /       
 | /                                           /        
 |/                                           /         
 *-------------------------------------------*          

Atomic positions and initial magnetic moments

Positions:
   0 Na     0.000000    0.000000   10.000000    ( 0.0000,  0.0000,  0.0000)
   1 Na     2.991062    2.115000   10.000000    ( 0.0000,  0.0000,  0.0000)
   2 Na     2.991062    0.000000   12.991062    ( 0.0000,  0.0000,  0.0000)
   3 Na     5.982123    2.115000   12.991062    ( 0.0000,  0.0000,  0.0000)
   4 Na     0.008096   -0.104033   15.771874    ( 0.0000,  0.0000,  0.0000)
   5 Na     2.951987    2.135527   15.878776    ( 0.0000,  0.0000,  0.0000)
   6 Na     2.896465    0.110330   18.908127    ( 0.0000,  0.0000,  0.0000)
   7 Na     0.013758    2.096745   18.328376    ( 0.0000,  0.0000,  0.0000)
   8 Na     0.000000    4.230000   10.000000    ( 0.0000,  0.0000,  0.0000)
   9 Na     2.991062    6.345000   10.000000    ( 0.0000,  0.0000,  0.0000)
  10 Na     2.991062    4.230000   12.991062    ( 0.0000,  0.0000,  0.0000)
  11 Na     5.982123    6.345000   12.991062    ( 0.0000,  0.0000,  0.0000)
  12 Na    -0.007066    4.329701   15.788296    ( 0.0000,  0.0000,  0.0000)
  13 Na     3.025550    6.323508   16.003000    ( 0.0000,  0.0000,  0.0000)
  14 Na     2.894265    4.100692   19.024339    ( 0.0000,  0.0000,  0.0000)
  15 Na     0.006830    6.259290   18.899493    ( 0.0000,  0.0000,  0.0000)
  16 Na     0.000000    8.460000   10.000000    ( 0.0000,  0.0000,  0.0000)
  17 Na     2.991062   10.575000   10.000000    ( 0.0000,  0.0000,  0.0000)
  18 Na     2.991062    8.460000   12.991062    ( 0.0000,  0.0000,  0.0000)
  19 Na     5.982123   10.575000   12.991062    ( 0.0000,  0.0000,  0.0000)
  20 Na    -0.006953    8.464360   15.999526    ( 0.0000,  0.0000,  0.0000)
  21 Na     3.025594   10.575936   15.960903    ( 0.0000,  0.0000,  0.0000)
  22 Na     2.958435    8.476668   18.872906    ( 0.0000,  0.0000,  0.0000)
  23 Na     0.019011   10.684108   18.930823    ( 0.0000,  0.0000,  0.0000)
  24 Na     5.982123    0.000000   10.000000    ( 0.0000,  0.0000,  0.0000)
  25 Na     8.973185    2.115000   10.000000    ( 0.0000,  0.0000,  0.0000)
  26 Na     8.973185    0.000000   12.991062    ( 0.0000,  0.0000,  0.0000)
  27 Na    11.964247    2.115000   12.991062    ( 0.0000,  0.0000,  0.0000)
  28 Na     5.978100    0.000651   15.937679    ( 0.0000,  0.0000,  0.0000)
  29 Na     8.974133    2.114868   15.939889    ( 0.0000,  0.0000,  0.0000)
  30 Na     8.969051   -0.001835   18.864971    ( 0.0000,  0.0000,  0.0000)
  31 Na     5.942466    2.093173   18.897520    ( 0.0000,  0.0000,  0.0000)
  32 Na     5.982123    4.230000   10.000000    ( 0.0000,  0.0000,  0.0000)
  33 Na     8.973185    6.345000   10.000000    ( 0.0000,  0.0000,  0.0000)
  34 Na     8.973185    4.230000   12.991062    ( 0.0000,  0.0000,  0.0000)
  35 Na    11.964247    6.345000   12.991062    ( 0.0000,  0.0000,  0.0000)
  36 Na     5.993245    4.225113   15.953580    ( 0.0000,  0.0000,  0.0000)
  37 Na     8.972830    6.345500   15.938028    ( 0.0000,  0.0000,  0.0000)
  38 Na     8.964867    4.226336   18.864331    ( 0.0000,  0.0000,  0.0000)
  39 Na     5.934038    6.317675   18.864185    ( 0.0000,  0.0000,  0.0000)
  40 Na     5.982123    8.460000   10.000000    ( 0.0000,  0.0000,  0.0000)
  41 Na     8.973185   10.575000   10.000000    ( 0.0000,  0.0000,  0.0000)
  42 Na     8.973185    8.460000   12.991062    ( 0.0000,  0.0000,  0.0000)
  43 Na    11.964247   10.575000   12.991062    ( 0.0000,  0.0000,  0.0000)
  44 Na     5.987461    8.464139   15.949438    ( 0.0000,  0.0000,  0.0000)
  45 Na     8.974045   10.574636   15.938908    ( 0.0000,  0.0000,  0.0000)
  46 Na     8.964841    8.465486   18.869896    ( 0.0000,  0.0000,  0.0000)
  47 Na     5.921915   10.624251   18.893389    ( 0.0000,  0.0000,  0.0000)
  48 Na    11.964247    0.000000   10.000000    ( 0.0000,  0.0000,  0.0000)
  49 Na    14.955308    2.115000   10.000000    ( 0.0000,  0.0000,  0.0000)
  50 Na    14.955308    0.000000   12.991062    ( 0.0000,  0.0000,  0.0000)
  51 Na    17.946370    2.115000   12.991062    ( 0.0000,  0.0000,  0.0000)
  52 Na    11.959830    0.000642   15.942656    ( 0.0000,  0.0000,  0.0000)
  53 Na    14.993912    2.114884   15.912382    ( 0.0000,  0.0000,  0.0000)
  54 Na    15.057304    0.111862   19.018224    ( 0.0000,  0.0000,  0.0000)
  55 Na    11.984928    2.115388   18.867183    ( 0.0000,  0.0000,  0.0000)
  56 Na    11.964247    4.230000   10.000000    ( 0.0000,  0.0000,  0.0000)
  57 Na    14.955308    6.345000   10.000000    ( 0.0000,  0.0000,  0.0000)
  58 Na    14.955308    4.230000   12.991062    ( 0.0000,  0.0000,  0.0000)
  59 Na    17.946370    6.345000   12.991062    ( 0.0000,  0.0000,  0.0000)
  60 Na    11.959813    4.229477   15.942445    ( 0.0000,  0.0000,  0.0000)
  61 Na    14.921152    6.323739   15.993068    ( 0.0000,  0.0000,  0.0000)
  62 Na    15.060858    4.112286   19.016566    ( 0.0000,  0.0000,  0.0000)
  63 Na    12.005816    6.317669   18.864967    ( 0.0000,  0.0000,  0.0000)
  64 Na    11.964247    8.460000   10.000000    ( 0.0000,  0.0000,  0.0000)
  65 Na    14.955308   10.575000   10.000000    ( 0.0000,  0.0000,  0.0000)
  66 Na    14.955308    8.460000   12.991062    ( 0.0000,  0.0000,  0.0000)
  67 Na    17.946370   10.575000   12.991062    ( 0.0000,  0.0000,  0.0000)
  68 Na    11.966009    8.459878   15.938315    ( 0.0000,  0.0000,  0.0000)
  69 Na    14.920125   10.596479   15.993819    ( 0.0000,  0.0000,  0.0000)
  70 Na    14.996277    8.465450   18.866242    ( 0.0000,  0.0000,  0.0000)
  71 Na    12.005769   10.601948   18.863851    ( 0.0000,  0.0000,  0.0000)
  72 Na     0.500595    1.759056   21.349726    ( 0.0000,  0.0000,  0.0000)

Unit cell:
           periodic     x           y           z      points  spacing
  1. axis:    yes   17.946370    0.000000    0.000000    60     0.2991
  2. axis:    yes    0.000000   12.690000    0.000000    42     0.3021
  3. axis:    no     0.000000    0.000000   28.973185    96     0.3018

  Lengths:  17.946370  12.690000  28.973185
  Angles:   90.000000  90.000000  90.000000

Effective grid spacing dv^(1/3) = 0.3010

     iter     time        total  log10-change:
                         energy   eigst   dens
iter:   1 07:41:16   -80.300130   -6.00c
iter:   2 07:41:41   -80.299838   -6.85c -3.31
iter:   3 07:42:05   -80.299985c  -7.44c -3.67
iter:   4 07:42:31   -80.300271c  -7.58c -4.04c

Converged after 4 iterations.

Dipole moment: (-9.235177, -3.561539, 0.290555) |e|*Ang

Energy contributions relative to reference atoms: (reference = -322558.566329)

Kinetic:       +157.602837
Potential:     -141.835654
External:        +0.000000
XC:             -98.694158
Entropy (-ST):   -1.343660
Local:           +3.298535
SIC:             +0.000000
--------------------------
Free energy:    -80.972101
Extrapolated:   -80.300271

Showing all kpts
 Kpt  Band  Eigenvalues  Occupancy
  0   253     -1.59584    1.48835
  0   254     -1.58067    1.42851
  0   255     -1.56708    1.37142
  0   256     -1.43079    0.71660

  1   253     -1.59736    1.49413
  1   254     -1.58005    1.42597
  1   255     -1.56678    1.37014
  1   256     -1.43065    0.71599


Fermi level: -1.48906

Gap: 0.136 eV
Transition (v -> c):
  (s=0, k=1, n=255, [0.25, 0.25, 0.00]) -> (s=0, k=0, n=256, [0.25, -0.25, 0.00])
Direct/indirect transitions are different
Direct gap: 0.136 eV
Transition at: (s=0, k=1, n=255, [0.25, 0.25, 0.00])

Forces in eV/Ang:
  0 Na    0.00097    0.00188    0.02441
  1 Na   -0.00336   -0.00038    0.02337
  2 Na    0.00060   -0.00868   -0.02657
  3 Na   -0.00322    0.00201   -0.01404
  4 Na   -0.00218   -0.01750    0.00115
  5 Na    0.02030    0.00021    0.01136
  6 Na    0.03502   -0.02472    0.00850
  7 Na   -0.05288    0.03952   -0.12832
  8 Na    0.00096   -0.00363    0.02508
  9 Na   -0.00160   -0.00465    0.02738
 10 Na    0.00056    0.01378   -0.02724
 11 Na    0.00206   -0.00145   -0.00775
 12 Na    0.00136    0.01562   -0.00232
 13 Na   -0.01503   -0.01372   -0.00609
 14 Na    0.01529    0.00918   -0.00747
 15 Na    0.00384    0.00029   -0.00965
 16 Na    0.00043    0.00159    0.02861
 17 Na   -0.00247    0.00513    0.02634
 18 Na   -0.00382   -0.00396    0.00811
 19 Na    0.00156   -0.00066   -0.01357
 20 Na    0.00286    0.00327   -0.01356
 21 Na   -0.01418    0.01303   -0.00085
 22 Na   -0.00644   -0.00470    0.00465
 23 Na   -0.00665    0.00512   -0.00199
 24 Na   -0.00236    0.00126    0.02751
 25 Na    0.00061   -0.00037    0.02809
 26 Na    0.00037   -0.00038   -0.01494
 27 Na    0.00138   -0.00003   -0.01302
 28 Na   -0.00188    0.01282   -0.00018
 29 Na    0.00041   -0.00265   -0.00491
 30 Na    0.00085   -0.00057   -0.00663
 31 Na    0.01165    0.00794   -0.01017
 32 Na   -0.00194   -0.00133    0.02800
 33 Na    0.00058    0.00098    0.02813
 34 Na    0.00056    0.00073   -0.01506
 35 Na   -0.00315    0.00017   -0.01357
 36 Na   -0.00541   -0.01475   -0.00822
 37 Na    0.00145    0.00118   -0.00321
 38 Na   -0.00072    0.00030   -0.00542
 39 Na   -0.00547   -0.00078   -0.00009
 40 Na    0.00186    0.00002    0.03153
 41 Na    0.00057   -0.00065    0.02830
 42 Na    0.00087   -0.00036   -0.01555
 43 Na   -0.00205   -0.00022   -0.01356
 44 Na    0.00671    0.00108    0.00082
 45 Na   -0.00056    0.00149   -0.00451
 46 Na   -0.00101    0.00017   -0.00696
 47 Na    0.00605   -0.00659   -0.01360
 48 Na    0.00023    0.00102    0.02832
 49 Na    0.00423   -0.00033    0.02426
 50 Na    0.00049   -0.00861   -0.02022
 51 Na    0.00006    0.00214   -0.03688
 52 Na    0.00006    0.01281   -0.00943
 53 Na   -0.01579   -0.00223    0.01455
 54 Na   -0.00677   -0.01047   -0.00362
 55 Na   -0.00398    0.00027   -0.00707
 56 Na    0.00005   -0.00096    0.02866
 57 Na    0.00116   -0.00326    0.02825
 58 Na   -0.00015    0.00725   -0.01989
 59 Na    0.00150    0.03262   -0.04797
 60 Na    0.00004   -0.01243   -0.00938
 61 Na    0.01346   -0.01164   -0.00207
 62 Na   -0.01108    0.00770   -0.01264
 63 Na    0.00429   -0.00076   -0.00295
 64 Na   -0.00211   -0.00006    0.03069
 65 Na    0.00224    0.00370    0.02707
 66 Na    0.00174    0.00151    0.01311
 67 Na    0.00055   -0.03608   -0.05677
 68 Na   -0.00818   -0.00042   -0.00007
 69 Na    0.01703    0.01482   -0.00469
 70 Na    0.00767   -0.00002    0.01048
 71 Na    0.00385    0.00049   -0.00259
 72 Na    0.00658   -0.02462    0.07825

System changes: positions 

Initializing position-dependent things.

Density initialized from wave functions
         .-------------------------------------------.  
        /|                                           |  
       / |                                           |  
      /  |                                           |  
     /   |                                           |  
    /    |                                           |  
   /     |                                           |  
  /      |                                           |  
 *       |                                           |  
 |       |                                           |  
 |       |                                           |  
 |       |                                           |  
 |       |                                           |  
 |       |                     Na                    |  
 |      Na            Na             Na              |  
 |       |    Na            Na             Na        |  
 | Na    Na                                          |  
 |   Na  |          Na            Na        Na       |  
 |       | Na  Na         Na  Na         Na          |  
 |       |       Na  Na         Na  Na            Na |  
 |Na    Na  Na             Na         Na  Na         |  
 |      Na            Na             Na              |  
 |       |        Na             Na             Na   |  
 |       |Na  Na        Na  Na         Na  Na        |  
 |   Na  |      Na  Na        Na  Na                 |  
 |       | Na  Na         Na  Na        Na  Na       |  
 |    Na |           Na             Na               |  
 |Na     |       Na             Na                   |  
 |      Na  Na         Na  Na         Na  Na         |  
 |  Na   |        Na             Na                  |  
 |       |Na            Na             Na            |  
 |       |                                           |  
 Na      |      Na            Na                     |  
 |       |                                           |  
 |       |                                           |  
 |       |                                           |  
 |       .-------------------------------------------.  
 |      /                                           /   
 |     /                                           /    
 |    /                                           /     
 |   /                                           /      
 |  /                                           /       
 | /                                           /        
 |/                                           /         
 *-------------------------------------------*          

Atomic positions and initial magnetic moments

Positions:
   0 Na     0.000000    0.000000   10.000000    ( 0.0000,  0.0000,  0.0000)
   1 Na     2.991062    2.115000   10.000000    ( 0.0000,  0.0000,  0.0000)
   2 Na     2.991062    0.000000   12.991062    ( 0.0000,  0.0000,  0.0000)
   3 Na     5.982123    2.115000   12.991062    ( 0.0000,  0.0000,  0.0000)
   4 Na     0.008002   -0.104895   15.772004    ( 0.0000,  0.0000,  0.0000)
   5 Na     2.953088    2.135557   15.879318    ( 0.0000,  0.0000,  0.0000)
   6 Na     2.898358    0.108998   18.908439    ( 0.0000,  0.0000,  0.0000)
   7 Na     0.010880    2.098867   18.321252    ( 0.0000,  0.0000,  0.0000)
   8 Na     0.000000    4.230000   10.000000    ( 0.0000,  0.0000,  0.0000)
   9 Na     2.991062    6.345000   10.000000    ( 0.0000,  0.0000,  0.0000)
  10 Na     2.991062    4.230000   12.991062    ( 0.0000,  0.0000,  0.0000)
  11 Na     5.982123    6.345000   12.991062    ( 0.0000,  0.0000,  0.0000)
  12 Na    -0.006997    4.330427   15.788282    ( 0.0000,  0.0000,  0.0000)
  13 Na     3.024755    6.322806   16.002646    ( 0.0000,  0.0000,  0.0000)
  14 Na     2.895085    4.101147   19.023974    ( 0.0000,  0.0000,  0.0000)
  15 Na     0.007042    6.259327   18.899026    ( 0.0000,  0.0000,  0.0000)
  16 Na     0.000000    8.460000   10.000000    ( 0.0000,  0.0000,  0.0000)
  17 Na     2.991062   10.575000   10.000000    ( 0.0000,  0.0000,  0.0000)
  18 Na     2.991062    8.460000   12.991062    ( 0.0000,  0.0000,  0.0000)
  19 Na     5.982123   10.575000   12.991062    ( 0.0000,  0.0000,  0.0000)
  20 Na    -0.006817    8.464532   15.998796    ( 0.0000,  0.0000,  0.0000)
  21 Na     3.024831   10.576591   15.960780    ( 0.0000,  0.0000,  0.0000)
  22 Na     2.958109    8.476430   18.873151    ( 0.0000,  0.0000,  0.0000)
  23 Na     0.018675   10.684428   18.930773    ( 0.0000,  0.0000,  0.0000)
  24 Na     5.982123    0.000000   10.000000    ( 0.0000,  0.0000,  0.0000)
  25 Na     8.973185    2.115000   10.000000    ( 0.0000,  0.0000,  0.0000)
  26 Na     8.973185    0.000000   12.991062    ( 0.0000,  0.0000,  0.0000)
  27 Na    11.964247    2.115000   12.991062    ( 0.0000,  0.0000,  0.0000)
  28 Na     5.977995    0.001321   15.937635    ( 0.0000,  0.0000,  0.0000)
  29 Na     8.974158    2.114732   15.939623    ( 0.0000,  0.0000,  0.0000)
  30 Na     8.969095   -0.001868   18.864629    ( 0.0000,  0.0000,  0.0000)
  31 Na     5.943058    2.093562   18.897036    ( 0.0000,  0.0000,  0.0000)
  32 Na     5.982123    4.230000   10.000000    ( 0.0000,  0.0000,  0.0000)
  33 Na     8.973185    6.345000   10.000000    ( 0.0000,  0.0000,  0.0000)
  34 Na     8.973185    4.230000   12.991062    ( 0.0000,  0.0000,  0.0000)
  35 Na    11.964247    6.345000   12.991062    ( 0.0000,  0.0000,  0.0000)
  36 Na     5.992972    4.224335   15.953134    ( 0.0000,  0.0000,  0.0000)
  37 Na     8.972912    6.345565   15.937856    ( 0.0000,  0.0000,  0.0000)
  38 Na     8.964822    4.226350   18.864047    ( 0.0000,  0.0000,  0.0000)
  39 Na     5.933762    6.317652   18.864177    ( 0.0000,  0.0000,  0.0000)
  40 Na     5.982123    8.460000   10.000000    ( 0.0000,  0.0000,  0.0000)
  41 Na     8.973185   10.575000   10.000000    ( 0.0000,  0.0000,  0.0000)
  42 Na     8.973185    8.460000   12.991062    ( 0.0000,  0.0000,  0.0000)
  43 Na    11.964247   10.575000   12.991062    ( 0.0000,  0.0000,  0.0000)
  44 Na     5.987829    8.464200   15.949490    ( 0.0000,  0.0000,  0.0000)
  45 Na     8.974025   10.574708   15.938664    ( 0.0000,  0.0000,  0.0000)
  46 Na     8.964782    8.465500   18.869537    ( 0.0000,  0.0000,  0.0000)
  47 Na     5.922224   10.623926   18.892713    ( 0.0000,  0.0000,  0.0000)
  48 Na    11.964247    0.000000   10.000000    ( 0.0000,  0.0000,  0.0000)
  49 Na    14.955308    2.115000   10.000000    ( 0.0000,  0.0000,  0.0000)
  50 Na    14.955308    0.000000   12.991062    ( 0.0000,  0.0000,  0.0000)
  51 Na    17.946370    2.115000   12.991062    ( 0.0000,  0.0000,  0.0000)
  52 Na    11.959841    0.001308   15.942145    ( 0.0000,  0.0000,  0.0000)
  53 Na    14.993035    2.114762   15.913116    ( 0.0000,  0.0000,  0.0000)
  54 Na    15.056955    0.111290   19.018045    ( 0.0000,  0.0000,  0.0000)
  55 Na    11.984704    2.115405   18.866827    ( 0.0000,  0.0000,  0.0000)
  56 Na    11.964247    4.230000   10.000000    ( 0.0000,  0.0000,  0.0000)
  57 Na    14.955308    6.345000   10.000000    ( 0.0000,  0.0000,  0.0000)
  58 Na    14.955308    4.230000   12.991062    ( 0.0000,  0.0000,  0.0000)
  59 Na    17.946370    6.345000   12.991062    ( 0.0000,  0.0000,  0.0000)
  60 Na    11.959817    4.228832   15.941933    ( 0.0000,  0.0000,  0.0000)
  61 Na    14.921856    6.323148   15.992918    ( 0.0000,  0.0000,  0.0000)
  62 Na    15.060288    4.112681   19.015923    ( 0.0000,  0.0000,  0.0000)
  63 Na    12.006029    6.317644   18.864809    ( 0.0000,  0.0000,  0.0000)
  64 Na    11.964247    8.460000   10.000000    ( 0.0000,  0.0000,  0.0000)
  65 Na    14.955308   10.575000   10.000000    ( 0.0000,  0.0000,  0.0000)
  66 Na    14.955308    8.460000   12.991062    ( 0.0000,  0.0000,  0.0000)
  67 Na    17.946370   10.575000   12.991062    ( 0.0000,  0.0000,  0.0000)
  68 Na    11.965577    8.459854   15.938309    ( 0.0000,  0.0000,  0.0000)
  69 Na    14.921019   10.597243   15.993527    ( 0.0000,  0.0000,  0.0000)
  70 Na    14.996665    8.465448   18.866777    ( 0.0000,  0.0000,  0.0000)
  71 Na    12.005959   10.601958   18.863708    ( 0.0000,  0.0000,  0.0000)
  72 Na     0.501537    1.757384   21.354297    ( 0.0000,  0.0000,  0.0000)

Unit cell:
           periodic     x           y           z      points  spacing
  1. axis:    yes   17.946370    0.000000    0.000000    60     0.2991
  2. axis:    yes    0.000000   12.690000    0.000000    42     0.3021
  3. axis:    no     0.000000    0.000000   28.973185    96     0.3018

  Lengths:  17.946370  12.690000  28.973185
  Angles:   90.000000  90.000000  90.000000

Effective grid spacing dv^(1/3) = 0.3010

     iter     time        total  log10-change:
                         energy   eigst   dens
iter:   1 07:53:49   -80.302368   -5.80c
iter:   2 07:54:14   -80.301726   -6.65c -3.22
iter:   3 07:54:39   -80.301853c  -7.25c -3.57
iter:   4 07:55:03   -80.302172c  -7.40c -3.98
iter:   5 07:55:28   -80.302194c  -7.82c -4.25c

Converged after 5 iterations.

Dipole moment: (-9.130267, -3.533014, 0.290189) |e|*Ang

Energy contributions relative to reference atoms: (reference = -322558.566329)

Kinetic:       +157.475954
Potential:     -141.729273
External:        +0.000000
XC:             -98.675702
Entropy (-ST):   -1.343518
Local:           +3.298586
SIC:             +0.000000
--------------------------
Free energy:    -80.973953
Extrapolated:   -80.302194

Showing all kpts
 Kpt  Band  Eigenvalues  Occupancy
  0   253     -1.59608    1.48805
  0   254     -1.58113    1.42910
  0   255     -1.56735    1.37125
  0   256     -1.43119    0.71699

  1   253     -1.59761    1.49387
  1   254     -1.58052    1.42657
  1   255     -1.56705    1.36997
  1   256     -1.43104    0.71634


Fermi level: -1.48938

Gap: 0.136 eV
Transition (v -> c):
  (s=0, k=1, n=255, [0.25, 0.25, 0.00]) -> (s=0, k=0, n=256, [0.25, -0.25, 0.00])
Direct/indirect transitions are different
Direct gap: 0.136 eV
Transition at: (s=0, k=1, n=255, [0.25, 0.25, 0.00])

Forces in eV/Ang:
  0 Na    0.00084    0.00164    0.02372
  1 Na   -0.00325   -0.00031    0.02272
  2 Na    0.00045   -0.00838   -0.02548
  3 Na   -0.00326    0.00197   -0.01362
  4 Na   -0.00186   -0.01824   -0.00152
  5 Na    0.01991   -0.00015    0.00961
[...]
 19 Na    0.00152   -0.00088   -0.01244
 20 Na    0.00229    0.00361   -0.01309
 21 Na   -0.01111    0.01088   -0.00177
 22 Na   -0.00566   -0.00349    0.00354
 23 Na   -0.00480    0.00682   -0.00068
 24 Na   -0.00246    0.00132    0.02786
 25 Na    0.00077   -0.00033    0.02846
 26 Na    0.00060   -0.00078   -0.01488
 27 Na    0.00138    0.00012   -0.01385
 28 Na   -0.00161    0.01022   -0.00172
 29 Na    0.00048   -0.00193   -0.00558
 30 Na    0.00138   -0.00119   -0.00655
 31 Na    0.01015    0.00762   -0.00855
 32 Na   -0.00204   -0.00135    0.02840
 33 Na    0.00065    0.00072    0.02896
 34 Na    0.00079    0.00133   -0.01461
 35 Na   -0.00313    0.00066   -0.01237
 36 Na   -0.00392   -0.01129   -0.00867
 37 Na    0.00149    0.00084   -0.00420
 38 Na   -0.00002    0.00146   -0.00578
 39 Na   -0.00429   -0.00071   -0.00123
 40 Na    0.00154   -0.00002    0.03209
 41 Na    0.00064   -0.00044    0.02899
 42 Na    0.00121   -0.00055   -0.01447
 43 Na   -0.00191   -0.00086   -0.01236
 44 Na    0.00494    0.00039   -0.00103
 45 Na    0.00003    0.00108   -0.00540
 46 Na    0.00007   -0.00033   -0.00758
 47 Na    0.00620   -0.00706   -0.01319
 48 Na    0.00032    0.00119    0.02877
 49 Na    0.00437   -0.00022    0.02455
 50 Na    0.00038   -0.00833   -0.02000
 51 Na    0.00030    0.00176   -0.03548
 52 Na   -0.00034    0.00940   -0.00955
 53 Na   -0.01589   -0.00242    0.00901
 54 Na   -0.00491   -0.00922   -0.00117
 55 Na   -0.00381    0.00016   -0.00624
 56 Na    0.00018   -0.00105    0.02923
 57 Na    0.00129   -0.00330    0.02858
 58 Na   -0.00050    0.00699   -0.01974
 59 Na    0.00135    0.03266   -0.04891
 60 Na   -0.00076   -0.00911   -0.00959
 61 Na    0.00958   -0.00831   -0.00290
 62 Na   -0.01111    0.00803   -0.00943
 63 Na    0.00342   -0.00001   -0.00421
 64 Na   -0.00175   -0.00013    0.03157
 65 Na    0.00239    0.00364    0.02743
 66 Na    0.00078    0.00149    0.01426
 67 Na    0.00055   -0.03568   -0.05731
 68 Na   -0.00577   -0.00030   -0.00121
 69 Na    0.01281    0.01136   -0.00485
 70 Na    0.00599    0.00039    0.00847
 71 Na    0.00352   -0.00024   -0.00380
 72 Na    0.00425   -0.02249    0.03907

System changes: positions 

Initializing position-dependent things.

Density initialized from wave functions
         .-------------------------------------------.  
        /|                                           |  
       / |                                           |  
      /  |                                           |  
     /   |                                           |  
    /    |                                           |  
   /     |                                           |  
  /      |                                           |  
 *       |                                           |  
 |       |                                           |  
 |       |                                           |  
 |       |                                           |  
 |       |                                           |  
 |       |                     Na                    |  
 |      Na            Na             Na              |  
 |       |    Na            Na             Na        |  
 | Na    Na                                          |  
 |   Na  |     Na   Na            Na        Na       |  
 |       | Na             Na  Na         Na          |  
 |       |       Na  Na         Na  Na            Na |  
 |      Na  Na             Na         Na  Na  Na     |  
 |      Na            Na             Na              |  
 |       |        Na             Na             Na   |  
 |       |Na  Na        Na  Na         Na  Na        |  
 |   Na  |      Na  Na        Na  Na                 |  
 |       | Na  Na         Na  Na        Na  Na       |  
 |    Na |           Na             Na               |  
 |Na     |       Na             Na                   |  
 |      Na  Na         Na  Na         Na  Na         |  
 |  Na   |        Na             Na                  |  
 |       |Na            Na             Na            |  
 |       |                                           |  
 Na      |      Na            Na                     |  
 |       |                                           |  
 |       |                                           |  
 |       |                                           |  
 |       .-------------------------------------------.  
 |      /                                           /   
 |     /                                           /    
 |    /                                           /     
 |   /                                           /      
 |  /                                           /       
 | /                                           /        
 |/                                           /         
 *-------------------------------------------*          

Atomic positions and initial magnetic moments

Positions:
   0 Na     0.000000    0.000000   10.000000    ( 0.0000,  0.0000,  0.0000)
   1 Na     2.991062    2.115000   10.000000    ( 0.0000,  0.0000,  0.0000)
   2 Na     2.991062    0.000000   12.991062    ( 0.0000,  0.0000,  0.0000)
   3 Na     5.982123    2.115000   12.991062    ( 0.0000,  0.0000,  0.0000)
   4 Na     0.007620   -0.108962   15.772145    ( 0.0000,  0.0000,  0.0000)
   5 Na     2.957848    2.135604   15.881685    ( 0.0000,  0.0000,  0.0000)
   6 Na     2.906202    0.103437   18.910141    ( 0.0000,  0.0000,  0.0000)
   7 Na    -0.000955    2.107739   18.293140    ( 0.0000,  0.0000,  0.0000)
   8 Na     0.000000    4.230000   10.000000    ( 0.0000,  0.0000,  0.0000)
   9 Na     2.991062    6.345000   10.000000    ( 0.0000,  0.0000,  0.0000)
  10 Na     2.991062    4.230000   12.991062    ( 0.0000,  0.0000,  0.0000)
  11 Na     5.982123    6.345000   12.991062    ( 0.0000,  0.0000,  0.0000)
  12 Na    -0.006661    4.334077   15.787498    ( 0.0000,  0.0000,  0.0000)
  13 Na     3.021377    6.319761   16.001075    ( 0.0000,  0.0000,  0.0000)
  14 Na     2.898499    4.102984   19.022455    ( 0.0000,  0.0000,  0.0000)
  15 Na     0.007962    6.259441   18.896956    ( 0.0000,  0.0000,  0.0000)
  16 Na     0.000000    8.460000   10.000000    ( 0.0000,  0.0000,  0.0000)
  17 Na     2.991062   10.575000   10.000000    ( 0.0000,  0.0000,  0.0000)
  18 Na     2.991062    8.460000   12.991062    ( 0.0000,  0.0000,  0.0000)
  19 Na     5.982123   10.575000   12.991062    ( 0.0000,  0.0000,  0.0000)
  20 Na    -0.006222    8.465344   15.995549    ( 0.0000,  0.0000,  0.0000)
  21 Na     3.021590   10.579458   15.960261    ( 0.0000,  0.0000,  0.0000)
  22 Na     2.956658    8.475430   18.874229    ( 0.0000,  0.0000,  0.0000)
  23 Na     0.017253   10.685866   18.930588    ( 0.0000,  0.0000,  0.0000)
  24 Na     5.982123    0.000000   10.000000    ( 0.0000,  0.0000,  0.0000)
  25 Na     8.973185    2.115000   10.000000    ( 0.0000,  0.0000,  0.0000)
  26 Na     8.973185    0.000000   12.991062    ( 0.0000,  0.0000,  0.0000)
  27 Na    11.964247    2.115000   12.991062    ( 0.0000,  0.0000,  0.0000)
  28 Na     5.977537    0.004207   15.937390    ( 0.0000,  0.0000,  0.0000)
  29 Na     8.974271    2.114155   15.938376    ( 0.0000,  0.0000,  0.0000)
  30 Na     8.969323   -0.002061   18.863097    ( 0.0000,  0.0000,  0.0000)
  31 Na     5.945659    2.095335   18.894905    ( 0.0000,  0.0000,  0.0000)
  32 Na     5.982123    4.230000   10.000000    ( 0.0000,  0.0000,  0.0000)
  33 Na     8.973185    6.345000   10.000000    ( 0.0000,  0.0000,  0.0000)
  34 Na     8.973185    4.230000   12.991062    ( 0.0000,  0.0000,  0.0000)
  35 Na    11.964247    6.345000   12.991062    ( 0.0000,  0.0000,  0.0000)
  36 Na     5.991812    4.221017   15.951110    ( 0.0000,  0.0000,  0.0000)
  37 Na     8.973290    6.345846   15.937000    ( 0.0000,  0.0000,  0.0000)
  38 Na     8.964666    4.226491   18.862759    ( 0.0000,  0.0000,  0.0000)
  39 Na     5.932565    6.317523   18.864104    ( 0.0000,  0.0000,  0.0000)
  40 Na     5.982123    8.460000   10.000000    ( 0.0000,  0.0000,  0.0000)
  41 Na     8.973185   10.575000   10.000000    ( 0.0000,  0.0000,  0.0000)
  42 Na     8.973185    8.460000   12.991062    ( 0.0000,  0.0000,  0.0000)
  43 Na    11.964247   10.575000   12.991062    ( 0.0000,  0.0000,  0.0000)
  44 Na     5.989379    8.464436   15.949603    ( 0.0000,  0.0000,  0.0000)
  45 Na     8.973965   10.575009   15.937499    ( 0.0000,  0.0000,  0.0000)
  46 Na     8.964593    8.465529   18.867872    ( 0.0000,  0.0000,  0.0000)
  47 Na     5.923635   10.622404   18.889659    ( 0.0000,  0.0000,  0.0000)
  48 Na    11.964247    0.000000   10.000000    ( 0.0000,  0.0000,  0.0000)
  49 Na    14.955308    2.115000   10.000000    ( 0.0000,  0.0000,  0.0000)
  50 Na    14.955308    0.000000   12.991062    ( 0.0000,  0.0000,  0.0000)
  51 Na    17.946370    2.115000   12.991062    ( 0.0000,  0.0000,  0.0000)
  52 Na    11.959863    0.004120   15.939829    ( 0.0000,  0.0000,  0.0000)
  53 Na    14.989132    2.114200   15.916143    ( 0.0000,  0.0000,  0.0000)
  54 Na    15.055455    0.108782   19.017370    ( 0.0000,  0.0000,  0.0000)
  55 Na    11.983737    2.115468   18.865254    ( 0.0000,  0.0000,  0.0000)
  56 Na    11.964247    4.230000   10.000000    ( 0.0000,  0.0000,  0.0000)
  57 Na    14.955308    6.345000   10.000000    ( 0.0000,  0.0000,  0.0000)
  58 Na    14.955308    4.230000   12.991062    ( 0.0000,  0.0000,  0.0000)
  59 Na    17.946370    6.345000   12.991062    ( 0.0000,  0.0000,  0.0000)
  60 Na    11.959789    4.226106   15.939616    ( 0.0000,  0.0000,  0.0000)
  61 Na    14.924808    6.320647   15.992244    ( 0.0000,  0.0000,  0.0000)
  62 Na    15.057661    4.114529   19.013168    ( 0.0000,  0.0000,  0.0000)
  63 Na    12.006961    6.317567   18.864042    ( 0.0000,  0.0000,  0.0000)
  64 Na    11.964247    8.460000   10.000000    ( 0.0000,  0.0000,  0.0000)
  65 Na    14.955308   10.575000   10.000000    ( 0.0000,  0.0000,  0.0000)
  66 Na    14.955308    8.460000   12.991062    ( 0.0000,  0.0000,  0.0000)
  67 Na    17.946370   10.575000   12.991062    ( 0.0000,  0.0000,  0.0000)
  68 Na    11.963764    8.459760   15.938195    ( 0.0000,  0.0000,  0.0000)
  69 Na    14.924810   10.600514   15.992256    ( 0.0000,  0.0000,  0.0000)
  70 Na    14.998345    8.465482   18.869130    ( 0.0000,  0.0000,  0.0000)
  71 Na    12.006825   10.601971   18.863019    ( 0.0000,  0.0000,  0.0000)
  72 Na     0.505009    1.750315   21.371708    ( 0.0000,  0.0000,  0.0000)

Unit cell:
           periodic     x           y           z      points  spacing
  1. axis:    yes   17.946370    0.000000    0.000000    60     0.2991
  2. axis:    yes    0.000000   12.690000    0.000000    42     0.3021
  3. axis:    no     0.000000    0.000000   28.973185    96     0.3018

  Lengths:  17.946370  12.690000  28.973185
  Angles:   90.000000  90.000000  90.000000

Effective grid spacing dv^(1/3) = 0.3010

     iter     time        total  log10-change:
                         energy   eigst   dens
iter:   1 08:35:02   -80.310212   -5.31c
iter:   2 08:35:27   -80.307948   -6.29c -3.04
iter:   3 08:35:51   -80.307806c  -6.82c -3.30
iter:   4 08:36:14   -80.308151c  -6.72c -3.64
iter:   5 08:36:38   -80.307996c  -7.06c -3.85
iter:   6 08:37:03   -80.307891c  -7.45c -4.14c

Converged after 6 iterations.

Dipole moment: (-8.706503, -3.405384, 0.291604) |e|*Ang

Energy contributions relative to reference atoms: (reference = -322558.566329)

Kinetic:       +157.436650
Potential:     -141.706758
External:        +0.000000
XC:             -98.664839
Entropy (-ST):   -1.343473
Local:           +3.298793
SIC:             +0.000000
--------------------------
Free energy:    -80.979628
Extrapolated:   -80.307891

Showing all kpts
 Kpt  Band  Eigenvalues  Occupancy
  0   253     -1.59543    1.48776
  0   254     -1.58063    1.42933
  0   255     -1.56672    1.37097
  0   256     -1.43072    0.71745

  1   253     -1.59704    1.49385
  1   254     -1.58000    1.42679
  1   255     -1.56644    1.36977
  1   256     -1.43053    0.71659


Fermi level: -1.48881

Gap: 0.136 eV
Transition (v -> c):
  (s=0, k=1, n=255, [0.25, 0.25, 0.00]) -> (s=0, k=0, n=256, [0.25, -0.25, 0.00])
Direct/indirect transitions are different
Direct gap: 0.136 eV
Transition at: (s=0, k=1, n=255, [0.25, 0.25, 0.00])

Forces in eV/Ang:
  0 Na    0.00100    0.00207    0.02466
  1 Na   -0.00379   -0.00034    0.02364
  2 Na    0.00034   -0.00815   -0.02588
  3 Na   -0.00338    0.00185   -0.01485
  4 Na   -0.00045   -0.01811   -0.00513
  5 Na    0.01564   -0.00117    0.00873
  6 Na    0.02059   -0.01495    0.01040
  7 Na   -0.03007    0.02508   -0.05703
  8 Na    0.00089   -0.00379    0.02533
  9 Na   -0.00176   -0.00474    0.02770
 10 Na    0.00064    0.01291   -0.02719
 11 Na    0.00243   -0.00101   -0.00679
 12 Na    0.00193    0.01961   -0.01348
 13 Na   -0.01019   -0.01042   -0.00603
 14 Na    0.00910    0.00338   -0.00472
 15 Na    0.00322   -0.00087   -0.00811
 16 Na    0.00033    0.00157    0.02865
 17 Na   -0.00268    0.00518    0.02677
 18 Na   -0.00325   -0.00367    0.00883
 19 Na    0.00159   -0.00097   -0.01242
 20 Na    0.00214    0.00372   -0.01251
 21 Na   -0.00980    0.01023   -0.00164
 22 Na   -0.00533   -0.00281    0.00351
 23 Na   -0.00411    0.00665   -0.00053
 24 Na   -0.00263    0.00131    0.02803
 25 Na    0.00076   -0.00028    0.02860
 26 Na    0.00071   -0.00089   -0.01498
 27 Na    0.00126    0.00017   -0.01432
 28 Na   -0.00158    0.00933   -0.00173
 29 Na    0.00041   -0.00168   -0.00553
 30 Na    0.00137   -0.00137   -0.00648
 31 Na    0.00929    0.00737   -0.00814
 32 Na   -0.00217   -0.00131    0.02861
 33 Na    0.00065    0.00074    0.02923
 34 Na    0.00089    0.00150   -0.01459
 35 Na   -0.00326    0.00082   -0.01231
 36 Na   -0.00350   -0.01015   -0.00819
 37 Na    0.00150    0.00089   -0.00441
 38 Na    0.00012    0.00182   -0.00579
 39 Na   -0.00391   -0.00091   -0.00138
 40 Na    0.00147   -0.00004    0.03238
 41 Na    0.00063   -0.00050    0.02923
 42 Na    0.00129   -0.00062   -0.01419
 43 Na   -0.00200   -0.00107   -0.01232
 44 Na    0.00451    0.00022   -0.00154
 45 Na    0.00012    0.00076   -0.00543
 46 Na    0.00041   -0.00048   -0.00779
 47 Na    0.00599   -0.00698   -0.01273
 48 Na    0.00045    0.00117    0.02896
 49 Na    0.00454   -0.00020    0.02459
 50 Na    0.00030   -0.00836   -0.02018
 51 Na    0.00042    0.00162   -0.03502
 52 Na   -0.00047    0.00825   -0.00913
 53 Na   -0.01495   -0.00232    0.00774
 54 Na   -0.00455   -0.00862   -0.00102
 55 Na   -0.00328    0.00012   -0.00613
 56 Na    0.00029   -0.00098    0.02945
 57 Na    0.00129   -0.00336    0.02879
 58 Na   -0.00068    0.00701   -0.01995
 59 Na    0.00138    0.03294   -0.04962
 60 Na   -0.00097   -0.00799   -0.00914
 61 Na    0.00837   -0.00761   -0.00261
 62 Na   -0.01116    0.00820   -0.00902
 63 Na    0.00304    0.00016   -0.00442
 64 Na   -0.00167   -0.00018    0.03191
 65 Na    0.00244    0.00366    0.02766
 66 Na    0.00065    0.00151    0.01417
 67 Na    0.00057   -0.03574   -0.05779
 68 Na   -0.00522   -0.00028   -0.00154
 69 Na    0.01142    0.01046   -0.00427
 70 Na    0.00552    0.00067    0.00813
 71 Na    0.00340   -0.00040   -0.00392
 72 Na    0.00298   -0.02169    0.02404

Timing:                                      incl.     excl.
-------------------------------------------------------------------
Density initialized from wave functions:    23.465    23.465   0.0% |
 Symmetrize density:                         0.000     0.000   0.0% |
Forces:                                     68.264    68.264   0.1% |
Hamiltonian:                                13.832     0.170   0.0% |
 Atomic:                                     6.042     0.029   0.0% |
  XC Correction:                             6.013     6.013   0.0% |
 Calculate atomic Hamiltonians:              4.817     4.817   0.0% |
 Communicate:                                0.000     0.000   0.0% |
 Initialize Hamiltonian:                     0.002     0.002   0.0% |
 Poisson:                                    1.012     1.012   0.0% |
 XC 3D grid:                                 1.789     1.789   0.0% |
LCAO initialization:                       145.546     0.010   0.0% |
 LCAO eigensolver:                           0.655     0.001   0.0% |
  Calculate projections:                     0.023     0.023   0.0% |
  DenseAtomicCorrection:                     0.115     0.115   0.0% |
  Distribute overlap matrix:                 0.001     0.001   0.0% |
  Orbital Layouts:                           0.203     0.203   0.0% |
  Potential matrix:                          0.305     0.305   0.0% |
  Sum over cells:                            0.008     0.008   0.0% |
 LCAO to grid:                             144.327   144.327   0.3% |
 Set positions (LCAO WFS):                   0.554     0.190   0.0% |
  Basic WFS set positions:                   0.001     0.001   0.0% |
  Basis functions set positions:             0.000     0.000   0.0% |
  P tci:                                     0.262     0.262   0.0% |
  ST tci:                                    0.090     0.090   0.0% |
  mktci:                                     0.012     0.012   0.0% |
PWDescriptor:                                0.009     0.009   0.0% |
Redistribute:                                0.046     0.046   0.0% |
SCF-cycle:                                1400.752     0.207   0.0% |
 Davidson:                                1206.569   227.203   0.4% |
  Apply H:                                 163.509   161.833   0.3% |
   HMM T:                                    1.676     1.676   0.0% |
  Subspace diag:                           226.352     0.014   0.0% |
   calc_h_matrix:                          190.047    31.704   0.1% |
    Apply H:                               158.343   155.775   0.3% |
     HMM T:                                  2.568     2.568   0.0% |
   diagonalize:                              2.571     2.571   0.0% |
   rotate_psi:                              33.720    33.720   0.1% |
  calc. matrices:                          484.014   160.218   0.3% |
   Apply H:                                323.796   320.349   0.6% |
    HMM T:                                   3.448     3.448   0.0% |
  diagonalize:                              36.385    36.385   0.1% |
  rotate_psi:                               69.106    69.106   0.1% |
 Density:                                   94.181     0.003   0.0% |
  Atomic density matrices:                   0.316     0.316   0.0% |
  Mix:                                      25.506    25.506   0.0% |
  Multipole moments:                         0.026     0.026   0.0% |
  Pseudo density:                           68.329    68.328   0.1% |
   Symmetrize density:                       0.001     0.001   0.0% |
 Hamiltonian:                               67.232     0.161   0.0% |
  Atomic:                                   31.815     0.090   0.0% |
   XC Correction:                           31.725    31.725   0.1% |
  Calculate atomic Hamiltonians:            25.802    25.802   0.0% |
  Communicate:                               0.000     0.000   0.0% |
  Poisson:                                   0.154     0.154   0.0% |
  XC 3D grid:                                9.299     9.299   0.0% |
 Orthonormalize:                            32.564     0.005   0.0% |
  calc_s_matrix:                             3.298     3.298   0.0% |
  inverse-cholesky:                          0.087     0.087   0.0% |
  projections:                              10.118    10.118   0.0% |
  rotate_psi_s:                             19.055    19.055   0.0% |
Set symmetry:                                0.000     0.000   0.0% |
Other:                                   51545.550 51545.550  96.9% |--------------------------------------|
-------------------------------------------------------------------
Total:                                             53197.465 100.0%

Memory usage: 5.62 GiB
Date: Mon Nov 24 20:48:50 2025
